Title
81332
    1CHL1    C3    1   1.195   0.329  10.340 -0.6618 -1.6606 -0.2969
    1CHL1    H3    2   1.289   0.377  10.306  0.1955 -2.5854  0.6934
    1CHL1    O3    3   1.191   0.345  10.477 -0.1436  0.1260  0.3077
    1CHL1   H3'    4   1.283   0.339  10.501 -0.0607  1.2345  0.2937
    1CHL1    C4    5   1.063   0.368  10.271  0.3236 -0.1558  0.2120
    1CHL1   H4A    6   0.998   0.291  10.316  0.9544 -0.1722  1.1109
    1CHL1   H4B    7   1.040   0.474  10.294  0.3361 -0.3187  0.9591
    1CHL1    C5    8   1.065   0.348  10.123 -0.5019 -0.4208 -0.1690
    1CHL1    C6    9   1.052   0.450  10.039 -0.0473 -0.0186 -0.2662
    1CHL1    H6   10   1.031   0.549  10.082 -2.5999 -0.8558  0.5120
    1CHL1    C7   11   1.043   0.444   9.893 -0.1529  0.3626 -0.1112
    1CHL1   H7A   12   0.950   0.489   9.854  0.1432  0.7881 -0.3283
    1CHL1   H7B   13   1.129   0.498   9.847  1.5072 -1.7196  0.4493
    1CHL1    C8   14   1.032   0.295   9.848 -0.2223  0.1299 -0.0289
    1CHL1    H8   15   0.929   0.265   9.878  0.6151 -0.0625  2.7893
    1CHL1   C14   16   1.063   0.283   9.700  0.6182 -0.4415  0.6493
    1CHL1   H14   17   1.171   0.307   9.699  0.7702 -1.1460 -1.3363
    1CHL1   C15   18   1.005   0.391   9.594  0.2369  0.8506 -0.2076
    1CHL1  H15A   19   0.903   0.414   9.632 -0.3817 -3.0402  0.7599
    1CHL1  H15B   20   1.068   0.482   9.590 -1.6854  2.1608 -1.1782
    1CHL1   C16   21   1.008   0.318   9.459  0.2798 -0.5308 -0.0299
    1CHL1  H16A   22   0.899   0.306   9.438  0.5022 -2.1467 -0.3301
    1CHL1  H16B   23   1.067   0.375   9.385  0.5056 -0.2583  0.3559
    1CHL1   C17   24   1.084   0.185   9.488  0.2751  0.1963 -0.1666
    1CHL1   H17   25   1.190   0.218   9.479 -1.0529  4.0595 -3.1269
    1CHL1   C13   26   1.059   0.146   9.636 -0.0902  0.0536 -0.0628
    1CHL1   C18   27   0.916   0.102   9.647 -0.0085  0.1735  0.6364
    1CHL1  H18A   28   0.845   0.175   9.603  0.7603  0.0192 -0.8876
    1CHL1  H18B   29   0.893   0.001   9.606 -3.1685  1.2269 -0.3644
    1CHL1  H18C   30   0.893   0.084   9.754  0.1619 -0.7154  0.5315
    1CHL1   C12   31   1.162   0.055   9.706  0.0914 -0.0909 -0.2047
    1CHL1  H12A   32   1.157  -0.047   9.661 -1.1079  1.1388 -2.9920
    1CHL1  H12B   33   1.261   0.103   9.694  1.1265 -1.9739  0.5277
    1CHL1   C11   34   1.145   0.057   9.862  0.8509  0.5528  0.1641
    1CHL1  H11A   35   1.047   0.010   9.881  0.2518  1.0250 -1.6450
    1CHL1  H11B   36   1.231   0.001   9.903  1.3964  0.2903 -1.3095
    1CHL1    C9   37   1.127   0.199   9.925  0.8514  0.2737 -0.7681
    1CHL1    H9   38   1.225   0.251   9.925  1.5384 -0.9778 -1.7119
    1CHL1   C10   39   1.095   0.210  10.082  0.1602 -0.5199 -0.3934
    1CHL1   C19   40   0.973   0.112  10.109  0.8854  0.7745  0.5437
    1CHL1  H19A   41   0.940   0.115  10.215  0.7598 -0.3841  0.5444
    1CHL1  H19B   42   0.887   0.127  10.040 -0.6861  0.7339  2.4237
    1CHL1  H19C   43   1.014   0.009  10.109  1.0503  0.8121 -1.5929
    1CHL1    C1   44   1.225   0.157  10.156 -0.2794  0.0216  0.2991
    1CHL1   H1A   45   1.247   0.051  10.134 -1.0151 -0.5344  2.0872
    1CHL1   H1B   46   1.314   0.215  10.124 -0.2325 -0.7767 -1.0144
    1CHL1    C2   47   1.223   0.178  10.307 -0.2109  0.3267  0.2944
    1CHL1   H2A   48   1.318   0.142  10.351  0.4581  3.5956  1.7326
    1CHL1   H2B   49   1.142   0.111  10.343 -0.7778  1.2185  0.7326
    1CHL1   C20   50   1.057   0.086   9.379 -0.2131  0.2851 -0.4772
    1CHL1   H20   51   0.954   0.042   9.381 -0.0667 -0.0327  0.1968
    1CHL1   C21   52   1.153  -0.030   9.384 -0.3551 -0.1497  0.4021
    1CHL1  H21A   53   1.140  -0.096   9.472  0.2359 -1.4190 -0.4472
    1CHL1  H21B   54   1.258   0.004   9.392 -0.6165  1.3482 -1.9550
    1CHL1  H21C   55   1.157  -0.091   9.291 -1.1444 -2.0188  1.5764
    1CHL1   C22   56   1.082   0.146   9.238  0.7925 -0.0307 -0.3583
    1CHL1  H22A   57   1.063   0.255   9.225 -0.5035 -0.2916 -0.6550
    1CHL1  H22B   58   1.192   0.137   9.229  0.5149 -4.0765 -0.4689
    1CHL1   C23   59   1.012   0.088   9.122 -0.0186 -0.5947  0.6273
    1CHL1  H23A   60   1.033  -0.018   9.095  0.2456 -0.0966 -1.2010
    1CHL1  H23B   61   0.905   0.088   9.151  0.0650  1.3330  0.9672
    1CHL1   C24   62   1.016   0.181   8.994  0.3858 -0.0787  0.1104
    1CHL1  H24A   63   0.989   0.288   9.003  3.0279  0.4295  2.6177
    1CHL1  H24B   64   1.122   0.177   8.963  0.3947 -1.0956  0.2493
    1CHL1   C25   65   0.941   0.127   8.870  0.9310 -0.1308 -0.7426
    1CHL1   H25   66   0.836   0.126   8.906  1.3573  0.2044  0.5439
    1CHL1   C26   67   0.953   0.229   8.762 -0.1392 -0.0918 -0.4194
    1CHL1  H26A   68   1.055   0.274   8.764  0.0785 -0.5879 -0.3766
    1CHL1  H26B   69   0.947   0.186   8.660  0.5972  0.9339 -0.8994
    1CHL1  H26C   70   0.868   0.299   8.779 -1.7416 -2.5026  1.9759
    1CHL1   C27   71   0.974  -0.020   8.837  0.2266 -0.2724  0.7595
    1CHL1  H27A   72   0.915  -0.048   8.747  0.5287 -0.8190  0.7360
    1CHL1  H27B   73   1.081  -0.028   8.811  0.5265  0.7202  1.6522
    1CHL1  H27C   74   0.941  -0.090   8.917  1.0156 -1.5491 -0.0205
    2CHL1    C3   75   2.149   4.316  10.031  1.1811 -0.0413 -0.3142
    2CHL1    H3   76   2.051   4.265  10.037  1.2825 -0.1864  0.1637
    2CHL1    O3   77   2.182   4.341  10.169  1.0061 -0.1978  0.3333
    2CHL1   H3'   78   2.277   4.359  10.168  0.6203  2.1254 -2.2280
    2CHL1    C4   79   2.258   4.231   9.960  0.0207  0.0761 -1.0243
    2CHL1   H4A   80   2.355   4.284   9.972  1.0770 -2.2499  1.2985
    2CHL1   H4B   81   2.272   4.138  10.019 -0.4125  0.8470  0.3168
    2CHL1    C5   82   2.229   4.200   9.819  0.4128 -0.6418  0.3687
    2CHL1    C6   83   2.226   4.068   9.777 -0.4192 -0.2326  0.1427
    2CHL1    H6   84   2.255   3.984   9.841  0.0688 -1.0335 -1.1158
    2CHL1    C7   85   2.190   4.042   9.632 -0.2938 -0.9337  0.1458
    2CHL1   H7A   86   2.245   3.954   9.591 -1.6457 -1.6673 -0.1300
    2CHL1   H7B   87   2.082   4.017   9.627 -0.1345 -2.1016  2.1881
    2CHL1    C8   88   2.212   4.163   9.539 -0.6942  0.6156 -0.2532
    2CHL1    H8   89   2.322   4.174   9.525 -0.5439  0.8253  0.9755
    2CHL1   C14   90   2.146   4.141   9.396  0.2386  0.0085  0.3424
    2CHL1   H14   91   2.036   4.128   9.407 -0.0779  2.5390  0.3174
    2CHL1   C15   92   2.176   4.016   9.308 -0.3241  0.1603 -0.0704
    2CHL1  H15A   93   2.277   3.982   9.341 -1.4555 -0.8004  2.5752
    2CHL1  H15B   94   2.103   3.941   9.346  2.0474 -0.1295  4.2937
    2CHL1   C16   95   2.164   4.054   9.162 -0.0149 -0.3705  0.2223
    2CHL1  H16A   96   2.266   4.062   9.120 -0.3368  2.1628 -0.1482
    2CHL1  H16B   97   2.104   3.976   9.110 -1.9250  0.9548  0.3828
    2CHL1   C17   98   2.111   4.197   9.160  0.1314 -0.1946 -0.3269
    2CHL1   H17   99   2.000   4.193   9.162  0.1360 -0.4623 -0.6144
    2CHL1   C13  100   2.163   4.262   9.297 -0.2620 -0.2719  0.0089
    2CHL1   C18  101   2.312   4.291   9.275  0.1170  0.4049 -0.1569
    2CHL1  H18A  102   2.359   4.344   9.360 -3.6337  2.5371  0.6707
    2CHL1  H18B  103   2.380   4.203   9.262  0.1107  0.0732  1.8860
    2CHL1  H18C  104   2.338   4.354   9.187  2.0147 -0.2600 -0.1007
    2CHL1   C12  105   2.075   4.370   9.364  0.5127 -0.1909 -0.0015
    2CHL1  H12A  106   2.069   4.458   9.297  0.2753  0.9504  1.5080
    2CHL1  H12B  107   1.973   4.335   9.390  1.2402 -1.7730  0.8147
    2CHL1   C11  108   2.140   4.410   9.500  0.4172 -0.1077 -0.2433
    2CHL1  H11A  109   2.239   4.454   9.475  1.0251 -1.5100 -0.3506
    2CHL1  H11B  110   2.084   4.491   9.551  0.3166 -0.8860  0.8849
    2CHL1    C9  111   2.156   4.290   9.596 -0.2161 -0.4615 -0.5559
    2CHL1    H9  112   2.052   4.258   9.616  0.2276 -2.2679 -1.0299
    2CHL1   C10  113   2.217   4.325   9.733  0.3029 -0.6904  0.5284
    2CHL1   C19  114   2.350   4.396   9.726  0.2870  0.4584 -0.0241
    2CHL1  H19A  115   2.362   4.480   9.654  1.9901  1.2953  1.1914
    2CHL1  H19B  116   2.379   4.436   9.826 -1.0294  1.9089 -0.1990
    2CHL1  H19C  117   2.437   4.332   9.699  2.1144  1.0963  3.9372
    2CHL1    C1  118   2.120   4.424   9.802 -0.4174 -0.0440  0.1238
    2CHL1   H1A  119   2.111   4.526   9.759 -1.7785 -0.3185 -0.2711
    2CHL1   H1B  120   2.024   4.372   9.786  0.5724 -1.9218  0.1699
    2CHL1    C2  121   2.136   4.449   9.959 -0.3685 -0.6997  0.3295
    2CHL1   H2A  122   2.045   4.496  10.001 -0.7247 -0.6550 -0.4998
    2CHL1   H2B  123   2.236   4.498   9.971 -0.4297 -0.4595 -0.1246
    2CHL1   C20  124   2.143   4.268   9.028 -0.4592 -0.5221 -0.1293
    2CHL1   H20  125   2.253   4.257   9.013 -0.4977 -0.4083 -0.5036
    2CHL1   C21  126   2.111   4.424   9.034  0.0900  0.1922 -0.1188
    2CHL1  H21A  127   2.130   4.481   8.940  3.6490 -2.5326 -1.1228
    2CHL1  H21B  128   2.171   4.485   9.106 -3.0515  1.8240  1.2270
    2CHL1  H21C  129   2.001   4.429   9.051  0.1720 -0.2796  0.5659
    2CHL1   C22  130   2.091   4.203   8.896  0.5494  0.5060 -0.4226
    2CHL1  H22A  131   2.097   4.093   8.909  1.3371  0.4032 -1.5269
    2CHL1  H22B  132   1.985   4.218   8.865 -0.0539 -1.3106  0.7536
    2CHL1   C23  133   2.169   4.242   8.768  0.7461 -0.6511  0.5301
    2CHL1  H23A  134   2.144   4.347   8.741 -2.1039 -1.6065 -0.6695
    2CHL1  H23B  135   2.277   4.234   8.793  0.6260  0.9829  1.6792
    2CHL1   C24  136   2.148   4.153   8.646 -0.2443  0.1622 -0.4248
    2CHL1  H24A  137   2.165   4.045   8.667 -1.4214 -0.4824 -2.6507
    2CHL1  H24B  138   2.043   4.171   8.614 -0.7801 -1.5771  0.2918
    2CHL1   C25  139   2.232   4.189   8.523 -0.0379  0.3528  0.2855
    2CHL1   H25  140   2.239   4.300   8.521 -2.5622  0.5375  0.3734
    2CHL1   C26  141   2.371   4.129   8.542 -0.3426  0.4925  0.0829
    2CHL1  H26A  142   2.344   4.021   8.542 -0.8713  0.6206 -0.8425
    2CHL1  H26B  143   2.452   4.163   8.473  0.1234 -1.7449 -0.5211
    2CHL1  H26C  144   2.404   4.157   8.644 -0.6677 -1.5800  0.7897
    2CHL1   C27  145   2.159   4.138   8.394 -0.2140  0.6322 -0.3024
    2CHL1  H27A  146   2.060   4.188   8.388 -0.8121 -0.4850  0.0560
    2CHL1  H27B  147   2.205   4.164   8.297 -0.4462 -1.2852 -0.9536
    2CHL1  H27C  148   2.137   4.029   8.397 -1.0656  0.8075 -0.0226
    3CHL1    C3  149   3.190   4.461  10.150 -1.0882 -0.3848 -0.5598
    3CHL1    H3  150   3.285   4.487  10.098 -1.6140 -0.3059 -1.4936
    3CHL1    O3  151   3.202   4.472  10.290 -0.0220 -0.3132  0.1441
    3CHL1   H3'  152   3.136   4.410  10.321 -0.6955  0.7933  0.9197
    3CHL1    C4  153   3.073   4.548  10.111 -0.8765 -0.4443 -0.8895
    3CHL1   H4A  154   2.982   4.509  10.161 -2.3815  0.9629 -2.4720
    3CHL1   H4B  155   3.091   4.652  10.144  0.0116 -0.6002 -0.8769
    3CHL1    C5  156   3.052   4.536   9.964  0.8356  0.0695  0.3639
    3CHL1    C6  157   3.058   4.640   9.879 -0.0131 -0.2760  0.5098
    3CHL1    H6  158   3.086   4.738   9.921 -1.4180  0.6053 -0.5885
    3CHL1    C7  159   3.042   4.634   9.727 -0.8765  0.8675 -0.1865
    3CHL1   H7A  160   2.980   4.719   9.690 -2.5089  0.5636  1.7429
    3CHL1   H7B  161   3.140   4.637   9.675 -0.6015 -2.8388  0.0298
    3CHL1    C8  162   2.968   4.502   9.686 -0.0795 -0.1480 -0.7907
    3CHL1    H8  163   2.861   4.509   9.715 -0.2412 -2.5133 -0.7837
    3CHL1   C14  164   2.968   4.483   9.536  0.2937 -0.0148  0.1055
    3CHL1   H14  165   3.070   4.451   9.505  0.7544 -0.2995  1.8408
    3CHL1   C15  166   2.925   4.599   9.445  0.2670 -0.1312  0.1935
    3CHL1  H15A  167   2.828   4.624   9.493 -0.6072 -2.7026 -0.1970
    3CHL1  H15B  168   3.000   4.681   9.448 -0.8901  0.9594 -0.1352
    3CHL1   C16  169   2.887   4.536   9.312  0.7001 -1.0957  0.0918
    3CHL1  H16A  170   2.780   4.554   9.288  0.6501  2.2124  2.4879
    3CHL1  H16B  171   2.946   4.575   9.226  0.2254  0.9678  0.6583
    3CHL1   C17  172   2.910   4.379   9.332  0.0065  0.2094 -0.1749
    3CHL1   H17  173   3.017   4.356   9.310 -0.4867 -2.1278 -0.2692
    3CHL1   C13  174   2.890   4.361   9.485  0.0970 -0.3929  0.1850
    3CHL1   C18  175   2.741   4.368   9.520 -0.2494 -0.0620  0.1177
    3CHL1  H18A  176   2.690   4.273   9.493  1.0317 -0.1710 -2.1054
    3CHL1  H18B  177   2.737   4.387   9.629 -2.1813  0.5459 -0.0524
    3CHL1  H18C  178   2.690   4.456   9.475  0.4822  0.7832  0.9113
    3CHL1   C12  179   2.956   4.243   9.546  0.1108  0.5304  0.1736
    3CHL1  H12A  180   2.913   4.144   9.520 -0.3539  0.5560  0.8482
    3CHL1  H12B  181   3.058   4.245   9.501 -0.4480  0.6626 -1.1131
    3CHL1   C11  182   2.969   4.242   9.694  0.3333  0.4914  0.2306
    3CHL1  H11A  183   2.869   4.222   9.738  0.0856  0.3814 -0.3891
    3CHL1  H11B  184   3.029   4.158   9.735  1.1778  1.5683  1.2484
    3CHL1    C9  185   3.030   4.379   9.754 -1.3414 -0.7605  0.5467
    3CHL1    H9  186   3.138   4.387   9.733 -1.5746 -2.7449 -1.6326
    3CHL1   C10  187   3.023   4.389   9.910  0.4524  0.1114 -1.1387
    3CHL1   C19  188   2.884   4.349   9.963 -0.5205  0.2445 -0.1087
    3CHL1  H19A  189   2.801   4.381   9.897  0.0465  0.5128 -0.6922
    3CHL1  H19B  190   2.879   4.238   9.959  2.1775  0.1184 -1.3037
    3CHL1  H19C  191   2.863   4.374  10.069 -0.8980  1.9925 -0.5953
    3CHL1    C1  192   3.125   4.300   9.976  0.6703  0.4931  0.0086
    3CHL1   H1A  193   3.106   4.191   9.969 -0.5111  0.7620 -1.2266
    3CHL1   H1B  194   3.214   4.312   9.911 -0.4314 -0.1004 -1.6705
    3CHL1    C2  195   3.155   4.319  10.124  0.0853  0.2545 -0.0403
    3CHL1   H2A  196   3.237   4.254  10.162 -0.7968 -0.3482  0.8757
    3CHL1   H2B  197   3.068   4.289  10.186  0.1690  0.5196  0.2131
    3CHL1   C20  198   2.832   4.288   9.239 -0.2350  0.1486  0.4282
    3CHL1   H20  199   2.759   4.228   9.297 -0.5132  1.4701  1.4793
    3CHL1   C21  200   2.939   4.205   9.168  0.1805 -0.2343 -0.1520
    3CHL1  H21A  201   2.999   4.148   9.242  0.2516  0.3634  0.2540
    3CHL1  H21B  202   2.997   4.270   9.099 -0.8654  0.8237 -0.0499
    3CHL1  H21C  203   2.887   4.130   9.104  0.3004  0.2415 -0.8145
    3CHL1   C22  204   2.743   4.363   9.134  0.1022  0.2722 -0.2187
    3CHL1  H22A  205   2.668   4.430   9.179  0.0952 -2.2835  3.8517
    3CHL1  H22B  206   2.815   4.409   9.063  0.0943 -1.4631 -1.4034
    3CHL1   C23  207   2.654   4.261   9.050 -0.0322  0.9341  0.5925
    3CHL1  H23A  208   2.722   4.195   8.992  0.2364  0.5888  1.2914
    3CHL1  H23B  209   2.599   4.207   9.131  0.6838 -0.1965  0.3392
    3CHL1   C24  210   2.552   4.330   8.964 -0.2430  0.0629 -0.6146
    3CHL1  H24A  211   2.480   4.252   8.930 -1.2425  1.8788 -2.8218
    3CHL1  H24B  212   2.504   4.404   9.031 -0.4298 -0.3783 -0.2629
    3CHL1   C25  213   2.607   4.405   8.843  0.2123  0.3516 -0.3400
    3CHL1   H25  214   2.679   4.483   8.876  1.1044 -0.7983  0.4536
    3CHL1   C26  215   2.676   4.321   8.741 -0.5618  0.1538 -0.0656
    3CHL1  H26A  216   2.618   4.246   8.684 -0.3555  0.9494 -1.3607
    3CHL1  H26B  217   2.719   4.390   8.665 -2.6582  0.2013 -1.2290
    3CHL1  H26C  218   2.753   4.264   8.797 -0.6123  2.3541  2.3474
    3CHL1   C27  219   2.486   4.456   8.765 -0.3536 -0.4419 -0.1948
    3CHL1  H27A  220   2.527   4.514   8.679 -1.2544 -0.9405 -0.9656
    3CHL1  H27B  221   2.432   4.369   8.722  2.7387 -1.3647 -2.4234
    3CHL1  H27C  222   2.431   4.529   8.828 -0.8944 -0.5049 -0.5972
    4CHL1    C3  223   1.885   6.107  10.383 -0.0017 -0.4236 -0.6079
    4CHL1    H3  224   1.875   6.217  10.369 -3.7456 -0.9233 -2.7381
    4CHL1    O3  225   1.917   6.086  10.523  0.3935 -0.1869 -0.2234
    4CHL1   H3'  226   2.012   6.072  10.514  0.2067 -0.1177 -2.7342
    4CHL1    C4  227   1.744   6.044  10.349  0.0008 -0.5187 -0.6483
    4CHL1   H4A  228   1.751   5.936  10.371 -2.9366 -0.3437  1.4645
    4CHL1   H4B  229   1.674   6.094  10.419 -0.7084 -0.3572 -1.4774
    4CHL1    C5  230   1.709   6.066  10.205  0.6469  0.0653  0.1915
    4CHL1    C6  231   1.592   6.118  10.161  0.5487  0.0900  0.8088
    4CHL1    H6  232   1.517   6.153  10.233  0.5562 -0.6069  1.1606
    4CHL1    C7  233   1.558   6.116  10.010  0.3651  0.0640 -0.3735
    4CHL1   H7A  234   1.448   6.104   9.999  0.3883 -2.8478  1.8908
    4CHL1   H7B  235   1.586   6.210   9.958 -0.4659 -0.3842 -1.6555
    4CHL1    C8  236   1.645   6.009   9.930  0.2306 -0.1270 -0.1465
    4CHL1    H8  237   1.610   5.906   9.953 -0.6257  0.7020  2.4585
    4CHL1   C14  238   1.622   6.036   9.785 -0.6867 -0.1400  0.7147
    4CHL1   H14  239   1.669   6.135   9.763 -2.3443  0.3958 -0.5175
    4CHL1   C15  240   1.475   6.052   9.736 -0.2286 -0.1017  0.2667
    4CHL1  H15A  241   1.406   5.972   9.770 -0.0935 -0.6833 -0.7920
    4CHL1  H15B  242   1.424   6.149   9.752 -2.4908 -1.2848  0.4645
    4CHL1   C16  243   1.486   6.039   9.579  0.2510  0.5834  0.2290
    4CHL1  H16A  244   1.413   5.958   9.556  0.4660  0.9452 -1.7900
    4CHL1  H16B  245   1.459   6.130   9.521  1.0368  0.1620 -0.8228
    4CHL1   C17  246   1.631   5.992   9.555  0.2633 -0.5562 -0.0964
    4CHL1   H17  247   1.692   6.079   9.523  1.0150 -1.5492 -1.3939
    4CHL1   C13  248   1.691   5.943   9.687 -0.2122  0.2763  0.4116
    4CHL1   C18  249   1.644   5.800   9.704 -0.6396 -0.0422  0.2184
    4CHL1  H18A  250   1.690   5.737   9.624  0.3051  3.3324 -2.0215
    4CHL1  H18B  251   1.673   5.758   9.803 -0.3585 -3.4809 -1.2111
    4CHL1  H18C  252   1.535   5.796   9.684 -0.4869  1.0283 -0.8832
    4CHL1   C12  253   1.840   5.968   9.707 -0.0827 -0.0518  0.1207
    4CHL1  H12A  254   1.910   5.907   9.646 -0.4838 -1.2677  0.8499
    4CHL1  H12B  255   1.853   6.075   9.681  2.1746 -0.8385 -2.1780
    4CHL1   C11  256   1.877   5.950   9.856 -0.3647 -0.0469  0.2896
    4CHL1  H11A  257   1.864   5.840   9.869 -1.4651  0.2312  1.5340
    4CHL1  H11B  258   1.982   5.982   9.874 -0.2591 -0.5343  0.5379
    4CHL1    C9  259   1.791   6.032   9.963  0.1941  0.0294  0.8078
    4CHL1    H9  260   1.827   6.136   9.950 -2.7360  0.7471 -2.0386
    4CHL1   C10  261   1.820   6.003  10.113  0.4000  0.3977 -0.2610
    4CHL1   C19  262   1.822   5.846  10.120 -0.5787  0.4443  0.7271
    4CHL1  H19A  263   1.789   5.799  10.215 -1.6335 -0.2881  0.0125
    4CHL1  H19B  264   1.749   5.793  10.054  0.0876  0.3290  0.0681
    4CHL1  H19C  265   1.910   5.798  10.072 -1.5112 -0.1290 -0.4518
    4CHL1    C1  266   1.953   6.072  10.152 -0.5475 -0.4517  0.4606
    4CHL1   H1A  267   2.025   6.019  10.085 -0.3977 -0.3048  0.5033
    4CHL1   H1B  268   1.960   6.178  10.117 -1.4798 -0.5530 -0.0403
    4CHL1    C2  269   1.996   6.050  10.299 -0.2880 -0.4135  0.7589
    4CHL1   H2A  270   2.094   6.101  10.308  0.2956 -1.4353  0.3142
    4CHL1   H2B  271   2.016   5.943  10.321 -2.9911 -0.5827  2.7212
    4CHL1   C20  272   1.642   5.899   9.423  0.5886  0.0788 -0.8049
    4CHL1   H20  273   1.577   5.810   9.436 -0.6416  1.2539  1.5948
    4CHL1   C21  274   1.774   5.837   9.388  0.4879 -0.1993  0.6371
    4CHL1  H21A  275   1.841   5.920   9.356 -1.3196  0.6059 -1.1869
    4CHL1  H21B  276   1.765   5.759   9.310 -1.0133  0.1130  0.4784
    4CHL1  H21C  277   1.812   5.764   9.462  0.9671 -0.5606  0.0390
    4CHL1   C22  278   1.577   5.970   9.297 -0.4473  0.0704  0.3377
    4CHL1  H22A  279   1.607   5.903   9.213  0.4869  0.5295  0.3040
    4CHL1  H22B  280   1.467   5.968   9.317 -0.3236 -0.7394  0.9454
    4CHL1   C23  281   1.627   6.106   9.263 -0.6667  0.8081 -0.2529
    4CHL1  H23A  282   1.582   6.176   9.336 -1.7060 -0.1638  0.0520
    4CHL1  H23B  283   1.737   6.105   9.271 -0.6403 -0.3862 -0.6925
    4CHL1   C24  284   1.587   6.161   9.120  0.0086  0.0579  0.7266
    4CHL1  H24A  285   1.477   6.166   9.109 -0.0230 -2.5795 -0.3861
    4CHL1  H24B  286   1.630   6.263   9.110 -0.4823  0.4955  2.9331
    4CHL1   C25  287   1.654   6.081   9.007  0.1628 -0.1540  0.0517
    4CHL1   H25  288   1.613   5.978   9.014  1.6848 -0.9909 -2.4118
    4CHL1   C26  289   1.611   6.142   8.864 -0.1333  0.1760  0.3009
    4CHL1  H26A  290   1.620   6.066   8.784  1.8335 -0.3814  1.0215
    4CHL1  H26B  291   1.507   6.181   8.865  0.7712  2.7135 -0.7206
    4CHL1  H26C  292   1.675   6.229   8.840 -0.0606  0.5565  1.8502
    4CHL1   C27  293   1.806   6.089   9.026 -0.1899  0.1535 -0.0684
    4CHL1  H27A  294   1.871   6.065   8.939  1.3446  1.4236  0.6826
    4CHL1  H27B  295   1.828   6.196   9.048 -1.3363  0.4614 -0.3745
    4CHL1  H27C  296   1.852   6.032   9.110 -0.1730 -0.6059 -0.5936
    5CHL1    C3  297   3.608   4.150  10.038 -0.5432 -0.0659 -0.3386
    5CHL1    H3  298   3.690   4.211   9.993  1.4786 -0.5319  2.6072
    5CHL1    O3  299   3.640   4.129  10.171 -0.0619 -0.0488 -0.2612
    5CHL1   H3'  300   3.574   4.063  10.196 -0.6518  0.9371  0.8597
    5CHL1    C4  301   3.474   4.219  10.009 -0.1719  0.6019  0.3271
    5CHL1   H4A  302   3.395   4.146  10.038  0.8271 -0.0495  1.4021
    5CHL1   H4B  303   3.469   4.314  10.066 -3.2877  0.5959  0.1417
    5CHL1    C5  304   3.460   4.233   9.857  0.1728 -1.0778  0.1017
    5CHL1    C6  305   3.437   4.361   9.808 -0.5065 -0.3302 -0.5151
    5CHL1    H6  306   3.433   4.451   9.871 -0.2389  1.0432 -2.3940
    5CHL1    C7  307   3.425   4.383   9.662 -0.2045  0.8237 -0.3777
    5CHL1   H7A  308   3.335   4.443   9.636  0.9728  2.4788 -0.7378
    5CHL1   H7B  309   3.508   4.434   9.607  0.2075 -0.3293 -0.8417
    5CHL1    C8  310   3.397   4.255   9.582 -0.1513 -0.3882  0.0443
    5CHL1    H8  311   3.292   4.227   9.605  0.3489 -1.5531  0.9657
    5CHL1   C14  312   3.426   4.284   9.434 -0.1875  0.1430  0.1891
    5CHL1   H14  313   3.535   4.304   9.421 -0.1910 -0.9782 -1.7822
    5CHL1   C15  314   3.366   4.407   9.373 -0.3601 -0.0526 -0.6126
    5CHL1  H15A  315   3.270   4.426   9.425 -0.9575 -2.2456 -0.8705
    5CHL1  H15B  316   3.433   4.495   9.387 -0.3485 -0.0548 -0.6572
    5CHL1   C16  317   3.363   4.367   9.223  0.1328  0.8056  0.0812
    5CHL1  H16A  318   3.255   4.367   9.194 -0.2234 -0.6375  1.3250
    5CHL1  H16B  319   3.412   4.432   9.147  0.4089 -0.0576 -0.4887
    5CHL1   C17  320   3.417   4.224   9.201  0.4016  0.2828 -0.3758
    5CHL1   H17  321   3.526   4.232   9.181  0.0038  1.2628 -2.2823
    5CHL1   C13  322   3.407   4.162   9.339  0.6781  1.0081 -0.1180
    5CHL1   C18  323   3.260   4.115   9.354  0.3688 -0.2015  0.2371
    5CHL1  H18A  324   3.243   4.021   9.297  2.3344 -1.1423  1.1584
    5CHL1  H18B  325   3.235   4.089   9.459  0.4317  1.2922  0.6263
    5CHL1  H18C  326   3.184   4.189   9.320  1.3365  1.7416  2.1873
    5CHL1   C12  327   3.508   4.058   9.376 -0.4115  0.4503  1.4254
    5CHL1  H12A  328   3.482   3.973   9.309  1.6787  2.5065 -2.1374
    5CHL1  H12B  329   3.610   4.094   9.354 -0.8373  0.5677 -0.3799
    5CHL1   C11  330   3.498   4.019   9.524  0.4141 -0.0125 -0.5901
    5CHL1  H11A  331   3.409   3.954   9.530 -0.2162  0.9176  0.4446
    5CHL1  H11B  332   3.590   3.959   9.541  1.4641  1.3698 -1.2488
    5CHL1    C9  333   3.488   4.138   9.625  0.7664  0.1710  0.5595
    5CHL1    H9  334   3.587   4.186   9.613  0.4627  0.9502  1.1201
    5CHL1   C10  335   3.479   4.104   9.775  0.0245 -0.4148 -0.0228
    5CHL1   C19  336   3.353   4.010   9.792 -0.6797 -0.3500 -0.9115
    5CHL1  H19A  337   3.371   3.913   9.741  0.7147 -0.1727 -0.7776
    5CHL1  H19B  338   3.340   3.979   9.898  0.0529  1.3008 -0.3230
    5CHL1  H19C  339   3.266   4.066   9.752  0.3200  1.1570 -1.0412
    5CHL1    C1  340   3.610   4.027   9.820 -0.6294  0.2597 -0.7539
    5CHL1   H1A  341   3.617   3.924   9.779  2.7672  1.1419 -2.6212
    5CHL1   H1B  342   3.702   4.077   9.781  1.2293 -2.0574  0.4816
    5CHL1    C2  343   3.620   4.015   9.973 -0.1055 -0.4570  0.4211
    5CHL1   H2A  344   3.722   3.974   9.987 -0.4866 -1.8070 -0.6164
    5CHL1   H2B  345   3.550   3.939  10.015  0.0585 -1.8604 -1.7490
    5CHL1   C20  346   3.356   4.158   9.077 -0.9092 -0.5925 -0.2077
    5CHL1   H20  347   3.246   4.147   9.086 -1.1474  1.5767 -0.2860
    5CHL1   C21  348   3.406   4.005   9.059 -0.2058 -0.1073  0.0426
    5CHL1  H21A  349   3.515   4.014   9.078 -0.3335 -0.2022  0.8358
    5CHL1  H21B  350   3.394   3.965   8.956  1.1596  1.9815 -0.9773
    5CHL1  H21C  351   3.364   3.941   9.139  0.0149  1.9240  1.8285
    5CHL1   C22  352   3.390   4.238   8.951 -0.4910 -0.0038  0.0841
    5CHL1  H22A  353   3.338   4.336   8.942  0.2832  0.3601 -0.5530
    5CHL1  H22B  354   3.499   4.260   8.955 -0.7254  1.0109  1.0735
    5CHL1   C23  355   3.350   4.175   8.816 -1.2731 -0.6254 -0.3737
    5CHL1  H23A  356   3.421   4.095   8.785 -0.9317 -0.6244  0.3947
    5CHL1  H23B  357   3.251   4.132   8.841 -1.2575  0.4713  1.6582
    5CHL1   C24  358   3.332   4.281   8.704 -0.0872  0.2557  0.1729
    5CHL1  H24A  359   3.262   4.243   8.627  2.2141  1.2352 -2.4888
    5CHL1  H24B  360   3.279   4.366   8.751 -1.4119 -1.0495  1.1265
    5CHL1   C25  361   3.459   4.326   8.631  0.1298  0.1579  0.5074
    5CHL1   H25  362   3.538   4.360   8.701 -0.2816 -0.1384  1.1168
    5CHL1   C26  363   3.509   4.204   8.547  0.4794 -0.1516  0.2104
    5CHL1  H26A  364   3.595   4.233   8.482  1.3476 -2.6871  0.1927
    5CHL1  H26B  365   3.543   4.121   8.612  2.1998  1.0148  0.8266
    5CHL1  H26C  366   3.424   4.165   8.487 -0.7048  0.6122  1.3618
    5CHL1   C27  367   3.426   4.448   8.535 -0.2830 -0.0243 -0.1164
    5CHL1  H27A  368   3.369   4.525   8.591  0.6245  1.1774 -0.8030
    5CHL1  H27B  369   3.525   4.493   8.511 -0.1224 -0.4616 -0.2646
    5CHL1  H27C  370   3.368   4.405   8.451 -1.4844 -3.6541  2.4721
    6CHL1    C3  371   0.819   1.593  10.371  0.6307  0.0286 -0.1645
    6CHL1    H3  372   0.796   1.485  10.378 -1.4971  0.4344 -0.4943
    6CHL1    O3  373   0.836   1.651  10.500 -0.3584 -0.1413  0.0812
    6CHL1   H3'  374   0.888   1.731  10.493 -2.1493  0.7785 -3.4226
    6CHL1    C4  375   0.953   1.604  10.291 -0.0256  0.4294  0.1685
    6CHL1   H4A  376   0.982   1.711  10.298 -0.2599  0.6321 -1.7712
    6CHL1   H4B  377   1.035   1.558  10.350 -1.0970 -1.8802 -0.1131
    6CHL1    C5  378   0.941   1.568  10.148  0.4388  0.1466 -0.2033
    6CHL1    C6  379   1.015   1.457  10.107 -0.8710 -0.4229  0.2946
    6CHL1    H6  380   1.092   1.414  10.172 -0.8244  1.3309  1.4302
    6CHL1    C7  381   1.001   1.401   9.970 -0.4951  0.3132 -1.3496
    6CHL1   H7A  382   1.103   1.375   9.934  0.3657  1.4746  0.2325
    6CHL1   H7B  383   0.943   1.306   9.960  0.7420 -0.5367 -0.5830
    6CHL1    C8  384   0.937   1.503   9.870  0.3869 -0.6139 -1.0241
    6CHL1    H8  385   0.998   1.596   9.867  2.5708 -1.8148  2.5497
    6CHL1   C14  386   0.919   1.439   9.734  0.3873 -0.1563 -0.1095
    6CHL1   H14  387   0.861   1.346   9.754  2.1899 -1.3303 -0.2196
    6CHL1   C15  388   1.042   1.371   9.655  0.3644  0.2419 -0.6373
    6CHL1  H15A  389   1.128   1.440   9.658  0.4989  0.1841 -2.4777
    6CHL1  H15B  390   1.077   1.280   9.708  1.0390  1.9001  1.8273
    6CHL1   C16  391   0.987   1.354   9.511 -0.1149  0.5365 -0.2021
    6CHL1  H16A  392   1.065   1.391   9.442  0.5041 -0.7440 -0.2078
    6CHL1  H16B  393   0.972   1.247   9.483  0.0571  0.6652 -0.7845
    6CHL1   C17  394   0.852   1.432   9.504 -0.0311 -0.0545 -0.1203
    6CHL1   H17  395   0.776   1.354   9.525  0.1198 -0.2389 -0.2549
    6CHL1   C13  396   0.845   1.531   9.631  0.1231  0.1052 -0.5122
    6CHL1   C18  397   0.922   1.660   9.601  0.4392  0.4456  0.5110
    6CHL1  H18A  398   1.027   1.631   9.576  0.2985  0.8394 -0.5959
    6CHL1  H18B  399   0.870   1.718   9.521 -1.4252 -2.2043 -0.2273
    6CHL1  H18C  400   0.931   1.725   9.691 -2.4558  0.1203  1.0855
    6CHL1   C12  401   0.701   1.559   9.694  0.2510  0.4816  0.2622
    6CHL1  H12A  402   0.655   1.625   9.619  0.2619 -1.3267 -1.3744
    6CHL1  H12B  403   0.633   1.475   9.718  2.1165 -1.1148  0.1280
    6CHL1   C11  404   0.712   1.623   9.834  0.2513  0.2642 -0.3862
    6CHL1  H11A  405   0.762   1.718   9.805  2.8132 -1.5277 -2.1242
    6CHL1  H11B  406   0.612   1.645   9.876  0.4529  2.3315 -0.9311
    6CHL1    C9  407   0.803   1.545   9.932 -1.0485  0.1898 -0.4410
    6CHL1    H9  408   0.748   1.452   9.956  0.8017 -1.0619 -1.0203
    6CHL1   C10  409   0.823   1.619  10.070 -0.8631 -0.5556 -0.0836
    6CHL1   C19  410   0.863   1.771  10.050 -0.0843 -0.0241  0.1745
    6CHL1  H19A  411   0.949   1.786   9.982  0.9269 -1.4110  1.0971
    6CHL1  H19B  412   0.778   1.831  10.013 -0.3247  0.1316  0.9567
    6CHL1  H19C  413   0.889   1.828  10.142 -0.1578 -0.8437  0.7078
    6CHL1    C1  414   0.694   1.611  10.148 -0.2233 -0.6631 -0.2555
    6CHL1   H1A  415   0.621   1.674  10.092 -2.6360 -2.9072  0.2861
    6CHL1   H1B  416   0.656   1.507  10.139 -1.6796 -0.1419 -0.2927
    6CHL1    C2  417   0.706   1.658  10.295  0.3021  0.6408  1.0045
    6CHL1   H2A  418   0.611   1.641  10.349 -0.6742 -1.8460 -1.3399
    6CHL1   H2B  419   0.730   1.766  10.287 -1.1113  0.9710  1.1185
    6CHL1   C20  420   0.835   1.485   9.364  0.0016  0.0854 -0.2977
    6CHL1   H20  421   0.917   1.559   9.355 -0.4096  0.8003  1.6201
    6CHL1   C21  422   0.699   1.566   9.361 -0.8028 -0.0469 -0.7572
    6CHL1  H21A  423   0.724   1.669   9.395 -0.7215  0.6234 -2.7762
    6CHL1  H21B  424   0.623   1.516   9.425 -0.9568  0.4197 -0.5732
    6CHL1  H21C  425   0.656   1.569   9.259 -0.2666  1.4271 -0.9561
    6CHL1   C22  426   0.834   1.380   9.254 -0.3126  0.6762  0.3444
    6CHL1  H22A  427   0.931   1.324   9.258  0.3255  1.7173 -0.4248
    6CHL1  H22B  428   0.744   1.316   9.262 -0.4378  0.6935 -0.9028
    6CHL1   C23  429   0.828   1.445   9.113  0.1862  0.1637 -0.6293
    6CHL1  H23A  430   0.726   1.487   9.098 -0.4677 -1.0120  0.3819
    6CHL1  H23B  431   0.898   1.528   9.088 -0.7806  1.0317 -0.4955
    6CHL1   C24  432   0.855   1.347   8.999  0.0712 -0.1295  0.3366
    6CHL1  H24A  433   0.928   1.285   9.055 -0.6573 -1.4756 -0.1832
    6CHL1  H24B  434   0.760   1.291   8.982 -0.6837  1.2105  0.0804
    6CHL1   C25  435   0.917   1.399   8.868 -0.3804 -0.5567  0.8039
    6CHL1   H25  436   0.855   1.479   8.824 -0.5570 -1.5396 -0.7876
    6CHL1   C26  437   1.059   1.459   8.887  0.2339 -0.4488 -1.1885
    6CHL1  H26A  438   1.117   1.486   8.796 -0.3034 -0.5970 -1.5816
    6CHL1  H26B  439   1.051   1.551   8.948 -0.5880 -2.6770  2.2005
    6CHL1  H26C  440   1.108   1.387   8.956 -2.0645 -0.5834  0.3453
    6CHL1   C27  441   0.915   1.283   8.766 -0.0386  0.3058  0.4685
    6CHL1  H27A  442   0.986   1.199   8.782  1.5310  1.6003  0.4783
    6CHL1  H27B  443   0.813   1.244   8.749  0.4277 -1.4834  1.6263
    6CHL1  H27C  444   0.947   1.331   8.670  0.7910  0.0996  0.6400
    7CHL1    C3  445   4.161   5.234  10.375 -0.1150 -0.3908 -0.8712
    7CHL1    H3  446   4.055   5.238  10.341 -1.1678 -3.7774  1.7793
    7CHL1    O3  447   4.166   5.230  10.521  0.2962 -0.1293 -0.2079
    7CHL1   H3'  448   4.085   5.276  10.545  1.9047  1.8668  1.5608
    7CHL1    C4  449   4.218   5.093  10.325  0.2312 -0.3694  0.3094
    7CHL1   H4A  450   4.319   5.096  10.371  0.0587 -3.0191  0.9241
    7CHL1   H4B  451   4.167   5.005  10.372  1.2567 -1.0643  0.1323
    7CHL1    C5  452   4.223   5.099  10.172  0.0684 -0.0863  0.1228
    7CHL1    C6  453   4.154   5.015  10.090 -0.6027  0.2484 -0.3279
    7CHL1    H6  454   4.091   4.940  10.141 -0.5764  1.3876  1.4513
    7CHL1    C7  455   4.158   4.996   9.944  0.0812  0.2817  0.7303
    7CHL1   H7A  456   4.185   4.895   9.905  2.4824  0.9561  0.5951
    7CHL1   H7B  457   4.059   5.029   9.906 -0.5096  0.0237  2.0117
    7CHL1    C8  458   4.271   5.087   9.887  0.4741 -0.2743  0.1743
    7CHL1    H8  459   4.369   5.036   9.901 -0.9657 -2.7839  1.5962
    7CHL1   C14  460   4.251   5.089   9.734 -0.7704 -0.2544  0.1788
    7CHL1   H14  461   4.151   5.132   9.712  0.2098  1.8958 -0.3300
    7CHL1   C15  462   4.240   4.948   9.669 -0.0295  0.1310 -0.4317
    7CHL1  H15A  463   4.320   4.882   9.710  0.0540 -0.6609 -1.8516
    7CHL1  H15B  464   4.142   4.898   9.681  0.4883 -0.2616  2.5560
    7CHL1   C16  465   4.263   4.992   9.527 -0.2253 -0.2594  0.0608
    7CHL1  H16A  466   4.360   4.940   9.508  0.6412  0.5859  2.0727
    7CHL1  H16B  467   4.174   4.965   9.466 -0.1595  1.3366 -0.7694
    7CHL1   C17  468   4.291   5.153   9.512  0.4165  0.4011 -1.3283
    7CHL1   H17  469   4.197   5.208   9.496  1.5524  2.0307 -2.5109
    7CHL1   C13  470   4.342   5.190   9.653  0.6608  0.1973  0.1486
    7CHL1   C18  471   4.493   5.149   9.674  0.7940  0.1484  0.6230
    7CHL1  H18A  472   4.507   5.044   9.640 -0.0431  0.3735 -0.4595
    7CHL1  H18B  473   4.564   5.214   9.618  0.3099  0.9047  0.8691
    7CHL1  H18C  474   4.525   5.149   9.780  1.2426 -0.9349  0.4890
    7CHL1   C12  475   4.308   5.327   9.720  0.1429  0.7316 -0.1266
    7CHL1  H12A  476   4.362   5.413   9.676 -0.4099  0.9920 -0.3013
    7CHL1  H12B  477   4.200   5.350   9.707  0.4040  2.3200  0.4663
    7CHL1   C11  478   4.348   5.331   9.868 -0.0829  0.1142  0.2146
    7CHL1  H11A  479   4.457   5.311   9.868 -0.5269 -2.5020 -0.8536
    7CHL1  H11B  480   4.344   5.431   9.916 -0.2135 -0.0825  0.6177
    7CHL1    C9  481   4.269   5.228   9.954 -0.3803 -1.0107 -0.0599
    7CHL1    H9  482   4.161   5.248   9.944 -0.0385  1.1398  0.3238
    7CHL1   C10  483   4.299   5.222  10.104 -0.2652  0.1225 -0.0435
    7CHL1   C19  484   4.452   5.211  10.127 -0.3727 -0.0502 -0.4739
    7CHL1  H19A  485   4.468   5.208  10.236 -1.2808  1.8379 -0.2629
    7CHL1  H19B  486   4.477   5.115  10.077  0.2884 -0.1118 -0.0364
    7CHL1  H19C  487   4.508   5.291  10.074 -0.5983 -0.4568 -1.3413
    7CHL1    C1  488   4.240   5.361  10.161  0.1634  0.0347  0.5510
    7CHL1   H1A  489   4.294   5.456  10.140  1.2097 -0.2261  1.9921
    7CHL1   H1B  490   4.137   5.370  10.120  0.9024  3.1506 -0.8323
    7CHL1    C2  491   4.241   5.351  10.316 -0.2605  0.2549 -0.1520
    7CHL1   H2A  492   4.207   5.445  10.364 -0.3387 -0.1144  0.5121
    7CHL1   H2B  493   4.349   5.348  10.343 -0.8306  1.0938  2.2789
    7CHL1   C20  494   4.381   5.176   9.391  0.0622 -0.1011 -0.2633
    7CHL1   H20  495   4.480   5.127   9.398  0.2160  0.2446 -0.0297
    7CHL1   C21  496   4.398   5.323   9.386 -0.2062 -0.6751 -0.9437
    7CHL1  H21A  497   4.298   5.368   9.403  0.5897  1.9573 -2.9276
    7CHL1  H21B  498   4.428   5.360   9.286  0.0844  2.4990  0.2428
    7CHL1  H21C  499   4.473   5.357   9.461  2.3897 -2.7305 -2.5071
    7CHL1   C22  500   4.319   5.113   9.263 -0.0309 -0.4835 -0.1775
    7CHL1  H22A  501   4.373   5.129   9.167  1.7595 -0.5281  0.8011
    7CHL1  H22B  502   4.321   5.003   9.278  0.9277 -0.5911 -1.0759
    7CHL1   C23  503   4.180   5.164   9.232 -0.2195 -0.7893 -0.3862
    7CHL1  H23A  504   4.110   5.129   9.311  0.9088  0.0987  1.0227
    7CHL1  H23B  505   4.178   5.275   9.232 -2.1287 -0.7575 -3.3743
    7CHL1   C24  506   4.152   5.119   9.086 -0.0124  0.3219 -0.0105
    7CHL1  H24A  507   4.220   5.178   9.021  2.3336  0.7079  2.7325
    7CHL1  H24B  508   4.161   5.009   9.087 -1.1198  0.2117 -0.8959
    7CHL1   C25  509   4.011   5.151   9.047 -0.0993 -0.0790 -0.1587
    7CHL1   H25  510   3.942   5.110   9.123  1.2074 -1.6263  0.2406
    7CHL1   C26  511   3.991   5.300   9.025 -0.2255 -0.4447 -0.4696
    7CHL1  H26A  512   4.069   5.350   8.964  0.3629 -0.5471  0.1997
    7CHL1  H26B  513   3.896   5.312   8.968 -0.2266 -1.3111 -0.6521
    7CHL1  H26C  514   3.992   5.346   9.126  1.7901 -0.3210 -0.5268
    7CHL1   C27  515   3.975   5.072   8.918 -0.3624 -0.5306  0.8626
    7CHL1  H27A  516   4.031   5.110   8.829 -0.1763 -0.8025  0.8645
    7CHL1  H27B  517   3.997   4.964   8.926  0.6589 -0.2930  1.2194
    7CHL1  H27C  518   3.869   5.076   8.884  0.3526 -2.4190 -1.7790
    8CHL1    C3  519   4.088   6.772  10.299 -0.2559  0.4221  0.0204
    8CHL1    H3  520   4.005   6.836  10.264 -0.0004  1.3162  1.0312
    8CHL1    O3  521   4.098   6.779  10.443 -0.3591 -0.1228 -0.1331
    8CHL1   H3'  522   4.167   6.841  10.469 -0.4065  0.5484 -1.5205
    8CHL1    C4  523   4.067   6.629  10.253 -0.1658  0.7458  0.3468
    8CHL1   H4A  524   4.148   6.563  10.290  0.4261  1.6140  0.6253
    8CHL1   H4B  525   3.983   6.584  10.311  0.1218 -0.5627 -0.2516
    8CHL1    C5  526   4.063   6.613  10.108 -0.0614 -0.9924  0.3650
    8CHL1    C6  527   3.955   6.555  10.052  0.2293  0.3099 -0.4407
    8CHL1    H6  528   3.869   6.531  10.115  0.4058  0.4653 -0.1396
    8CHL1    C7  529   3.933   6.531   9.906 -0.7354  0.0638 -0.9089
    8CHL1   H7A  530   3.897   6.430   9.879 -2.4390  0.4667 -0.2076
    8CHL1   H7B  531   3.861   6.601   9.857 -0.7051  0.5321 -0.2835
    8CHL1    C8  532   4.064   6.555   9.817  0.6321  0.2304  0.5251
    8CHL1    H8  533   4.124   6.462   9.826  0.6037  0.3538  2.2634
    8CHL1   C14  534   4.031   6.580   9.671 -0.2344  0.1900  0.5982
    8CHL1   H14  535   3.986   6.682   9.664  0.8915  0.8149  2.1720
    8CHL1   C15  536   3.939   6.483   9.597  0.6181 -0.3455  0.3363
    8CHL1  H15A  537   3.965   6.378   9.622  0.1907 -0.5585 -0.0970
    8CHL1  H15B  538   3.832   6.487   9.628  0.2297 -0.4359 -0.9558
    8CHL1   C16  539   3.954   6.513   9.451 -0.0486  0.0036  0.5452
    8CHL1  H16A  540   3.981   6.429   9.384 -2.7474 -1.2986  1.0346
    8CHL1  H16B  541   3.855   6.547   9.411 -1.7511 -2.1259  2.8154
    8CHL1   C17  542   4.071   6.627   9.447  0.7245  0.4162  0.4650
    8CHL1   H17  543   4.021   6.726   9.456 -0.9643 -0.5053  1.6145
    8CHL1   C13  544   4.153   6.608   9.579 -0.4222 -0.0428 -0.0917
    8CHL1   C18  545   4.241   6.478   9.570 -0.2014  0.4365 -0.2386
    8CHL1  H18A  546   4.184   6.394   9.525 -1.1146  1.8940 -1.8420
    8CHL1  H18B  547   4.319   6.496   9.493 -0.7382  2.1853 -0.3845
    8CHL1  H18C  548   4.283   6.437   9.664 -0.9534 -0.6604 -0.3729
    8CHL1   C12  549   4.231   6.725   9.629  0.3000  0.1386  0.0551
    8CHL1  H12A  550   4.316   6.744   9.559  1.1070  1.4906  1.3632
    8CHL1  H12B  551   4.170   6.818   9.621 -0.6760 -0.5212 -0.1780
    8CHL1   C11  552   4.268   6.713   9.777 -0.4593  0.1766  0.4650
    8CHL1  H11A  553   4.343   6.632   9.787 -0.2492  0.4496  1.1399
    8CHL1  H11B  554   4.325   6.806   9.796 -0.7040  0.4496 -0.1215
    8CHL1    C9  555   4.143   6.685   9.872  0.0108  0.5299 -0.0470
    8CHL1    H9  556   4.078   6.773   9.852 -1.9043 -0.5398  1.3367
    8CHL1   C10  557   4.176   6.675  10.023 -0.7953 -0.6699 -0.4170
    8CHL1   C19  558   4.304   6.584  10.053  0.2587 -0.4916 -0.1691
    8CHL1  H19A  559   4.283   6.476  10.037 -1.1165 -0.7527  3.1550
    8CHL1  H19B  560   4.392   6.605   9.988  0.1156  0.1590 -0.1581
    8CHL1  H19C  561   4.340   6.602  10.156  0.7310 -0.3372 -0.3589
    8CHL1    C1  562   4.198   6.821  10.076 -0.1976 -0.4559  0.1935
    8CHL1   H1A  563   4.274   6.869  10.012 -1.8077  0.6541 -0.9249
    8CHL1   H1B  564   4.109   6.883  10.051 -0.2186 -0.3362  0.5643
    8CHL1    C2  565   4.213   6.821  10.232 -0.2116  0.3963  0.6232
    8CHL1   H2A  566   4.236   6.924  10.266 -0.1285  0.6190 -0.0952
    8CHL1   H2B  567   4.298   6.765  10.277  0.1703  1.1117  0.7838
    8CHL1   C20  568   4.135   6.627   9.308 -0.1922 -0.3534 -0.0711
    8CHL1   H20  569   4.203   6.541   9.293  1.8358  1.1814  0.0866
    8CHL1   C21  570   4.227   6.746   9.296 -0.0439 -0.0432 -0.6677
    8CHL1  H21A  571   4.313   6.733   9.366 -0.0741 -0.1897 -0.6606
    8CHL1  H21B  572   4.176   6.838   9.334 -2.3805 -1.8693  0.7273
    8CHL1  H21C  573   4.263   6.771   9.194 -0.3134 -0.9685 -0.9880
    8CHL1   C22  574   4.040   6.628   9.185 -0.3847  0.2733 -0.4459
    8CHL1  H22A  575   4.116   6.618   9.103  1.4110 -0.4513  1.2597
    8CHL1  H22B  576   3.977   6.536   9.183 -1.5422  1.0605 -0.1421
    8CHL1   C23  577   3.951   6.745   9.167  0.2745  0.4612 -0.8456
    8CHL1  H23A  578   3.870   6.730   9.241  1.0614  2.3504  0.4463
    8CHL1  H23B  579   4.004   6.840   9.191  0.9551 -0.0057 -0.4730
    8CHL1   C24  580   3.893   6.760   9.026 -0.1639 -0.1531  0.1870
    8CHL1  H24A  581   3.840   6.664   9.009  1.2686 -0.7218 -1.2646
    8CHL1  H24B  582   3.819   6.842   9.019 -0.7665 -0.8512 -2.3714
    8CHL1   C25  583   3.996   6.768   8.910 -0.1191 -0.2093  0.7271
    8CHL1   H25  584   4.036   6.665   8.907  0.3735 -0.0075  0.2235
    8CHL1   C26  585   3.912   6.802   8.781 -0.3353 -0.1556  0.4138
    8CHL1  H26A  586   3.851   6.717   8.743 -0.5867 -0.2302  0.9725
    8CHL1  H26B  587   3.845   6.890   8.794 -0.7557 -0.7841  2.8945
    8CHL1  H26C  588   3.981   6.836   8.701 -1.7445  0.2376 -0.6540
    8CHL1   C27  589   4.101   6.872   8.926  0.2387  0.1520 -0.1617
    8CHL1  H27A  590   4.169   6.834   9.006 -0.0396 -2.1883 -1.0054
    8CHL1  H27B  591   4.165   6.866   8.836  0.7011  1.2885  0.0755
    8CHL1  H27C  592   4.054   6.970   8.946 -0.6979 -0.2943 -0.1765
    9CHL1    C3  593   6.707   3.053  10.260  0.4401 -0.1725  0.2559
    9CHL1    H3  594   6.813   3.087  10.266  0.5940 -0.9621  2.3621
    9CHL1    O3  595   6.653   3.068  10.388 -0.0695  0.0526  0.0052
    9CHL1   H3'  596   6.559   3.065  10.366  0.2413 -0.3327 -1.2852
    9CHL1    C4  597   6.625   3.146  10.167 -0.1426  0.1010 -0.8522
    9CHL1   H4A  598   6.517   3.125  10.179 -0.2569  0.1173 -1.8255
    9CHL1   H4B  599   6.638   3.249  10.208 -3.3276 -0.3338  1.4802
    9CHL1    C5  600   6.654   3.135  10.017  0.8412 -0.3243  0.0035
    9CHL1    C6  601   6.665   3.242   9.939 -0.2981  0.4572  0.0534
    9CHL1    H6  602   6.667   3.342   9.986  2.0237  0.0461  0.8490
    9CHL1    C7  603   6.682   3.243   9.788 -0.1640 -0.0845 -0.0675
    9CHL1   H7A  604   6.617   3.317   9.736  0.6559  1.8188  1.5911
    9CHL1   H7B  605   6.790   3.269   9.788 -0.3189  0.5653  0.4275
    9CHL1    C8  606   6.668   3.098   9.722  0.2454 -0.3409 -0.7069
    9CHL1    H8  607   6.558   3.089   9.722 -0.1984  3.0709  4.5799
    9CHL1   C14  608   6.733   3.091   9.589  0.4860  0.0921  0.4019
    9CHL1   H14  609   6.843   3.090   9.599  0.5599  2.0326 -0.0335
    9CHL1   C15  610   6.686   3.198   9.483 -0.5050  0.9055  0.0060
    9CHL1  H15A  611   6.583   3.232   9.506 -0.2849  1.8556 -0.4042
    9CHL1  H15B  612   6.757   3.283   9.489  0.3382  0.1997  0.1360
    9CHL1   C16  613   6.692   3.126   9.346  0.5620 -1.0871  0.4623
    9CHL1  H16A  614   6.590   3.127   9.304  0.6159 -0.7481  0.3384
    9CHL1  H16B  615   6.763   3.193   9.293 -0.8547 -0.4389 -0.6360
    9CHL1   C17  616   6.755   2.989   9.375  0.1041  0.5594 -1.2153
    9CHL1   H17  617   6.865   2.995   9.390 -0.3160 -0.1315  2.5369
    9CHL1   C13  618   6.705   2.961   9.518  0.3248  0.2426  0.2452
    9CHL1   C18  619   6.554   2.924   9.510 -0.1585  0.0688 -1.0364
    9CHL1  H18A  620   6.512   2.909   9.612 -0.3307  0.4933 -1.0454
    9CHL1  H18B  621   6.495   2.999   9.452 -0.2011  1.8061  1.2022
    9CHL1  H18C  622   6.545   2.824   9.462 -0.0244 -0.3851 -0.1330
    9CHL1   C12  623   6.776   2.841   9.595  0.6904  0.4231 -0.8215
    9CHL1  H12A  624   6.749   2.742   9.553  1.0852 -0.4772  0.9910
    9CHL1  H12B  625   6.885   2.861   9.588  0.3318  2.6584 -0.4138
    9CHL1   C11  626   6.721   2.845   9.747 -0.4580  0.0041  0.2193
    9CHL1  H11A  627   6.622   2.794   9.747 -0.1834 -0.5497 -0.7261
    9CHL1  H11B  628   6.768   2.778   9.823 -2.7813 -0.9586  0.8484
    9CHL1    C9  629   6.724   2.993   9.818 -0.5716  0.1881  0.4336
    9CHL1    H9  630   6.834   3.010   9.816 -0.2984 -1.0624  3.1512
    9CHL1   C10  631   6.665   2.994   9.957  0.6090  0.1478  0.0819
    9CHL1   C19  632   6.520   2.931   9.957  0.8346 -0.2413 -0.7762
    9CHL1  H19A  633   6.451   2.983   9.887 -1.8559 -2.8479 -0.1797
    9CHL1  H19B  634   6.530   2.826   9.922 -0.0788  0.2059 -2.4294
    9CHL1  H19C  635   6.470   2.929  10.056 -2.6983  1.2288 -2.4249
    9CHL1    C1  636   6.748   2.904  10.057  0.3756 -0.1171 -0.4576
    9CHL1   H1A  637   6.737   2.795  10.035  0.2591 -0.6392  2.1244
    9CHL1   H1B  638   6.854   2.930  10.036 -0.1399  0.7277 -2.0807
    9CHL1    C2  639   6.712   2.910  10.209 -0.5436 -0.2100  0.3291
    9CHL1   H2A  640   6.780   2.847  10.270  0.5790  1.9101  1.2979
    9CHL1   H2B  641   6.613   2.860  10.225  1.3213 -4.4554 -0.5538
    9CHL1   C20  642   6.737   2.872   9.276 -0.0086  0.4042 -0.1097
    9CHL1   H20  643   6.718   2.779   9.333 -1.8523  0.4686 -0.5866
    9CHL1   C21  644   6.873   2.869   9.209 -0.1488 -0.5891  0.1482
    9CHL1  H21A  645   6.882   2.781   9.140  1.0368 -0.7951  0.5443
    9CHL1  H21B  646   6.964   2.850   9.269  1.8861 -0.7729 -2.8388
    9CHL1  H21C  647   6.898   2.954   9.141  1.9390 -0.5779  0.8883
    9CHL1   C22  648   6.626   2.882   9.176 -0.0257 -0.1013  0.2577
    9CHL1  H22A  649   6.524   2.867   9.217  0.8407 -0.2522  2.4502
    9CHL1  H22B  650   6.621   2.981   9.127  3.1197  0.1212  0.2816
    9CHL1   C23  651   6.637   2.776   9.061 -0.3843 -0.6779 -0.5403
    9CHL1  H23A  652   6.721   2.800   8.993  0.0488 -1.3400 -0.2424
    9CHL1  H23B  653   6.665   2.685   9.118 -0.6437 -0.8718 -0.7216
    9CHL1   C24  654   6.499   2.765   8.979  0.2812 -0.0426  0.0950
    9CHL1  H24A  655   6.426   2.695   9.024 -1.4446  2.2021  0.8816
    9CHL1  H24B  656   6.446   2.858   8.951 -0.3576 -0.4169  0.0615
    9CHL1   C25  657   6.525   2.702   8.836  0.7946  0.7215  0.3748
    9CHL1   H25  658   6.577   2.782   8.778 -0.1244 -0.8942 -2.7558
    9CHL1   C26  659   6.623   2.578   8.843  0.1794  0.4613  0.0516
    9CHL1  H26A  660   6.582   2.507   8.918  0.2736 -0.1150 -0.4448
    9CHL1  H26B  661   6.607   2.524   8.747  0.5967 -0.1351  0.3166
    9CHL1  H26C  662   6.725   2.611   8.873 -0.3433  2.9343 -0.8139
    9CHL1   C27  663   6.393   2.667   8.773 -0.2122  0.4114 -0.4108
    9CHL1  H27A  664   6.355   2.573   8.819  0.9108 -0.3260 -0.9429
    9CHL1  H27B  665   6.328   2.755   8.793  1.2167  1.3022  0.4137
    9CHL1  H27C  666   6.412   2.653   8.664 -1.7023  0.7282 -0.7189
   10CHL1    C3  667   6.626   0.029   9.974 -0.3410 -0.2826  0.0367
   10CHL1    H3  668   6.681  -0.066   9.993  1.6004  0.5593 -1.2058
   10CHL1    O3  669   6.623   0.095  10.103 -0.4322  0.1922 -0.0401
   10CHL1   H3'  670   6.616   0.189  10.087 -0.4319  0.1292 -0.4128
   10CHL1    C4  671   6.722   0.107   9.890  1.1064  0.2429  1.0440
   10CHL1   H4A  672   6.689   0.213   9.888 -0.0455 -0.1315 -2.5191
   10CHL1   H4B  673   6.818   0.110   9.947  0.1495 -1.9050  2.8035
   10CHL1    C5  674   6.727   0.050   9.753 -0.3444  0.7212  0.0443
   10CHL1    C6  675   6.842   0.003   9.701 -0.2947 -0.5206  0.6249
   10CHL1    H6  676   6.935   0.025   9.755 -1.5107 -0.1875  2.6477
   10CHL1    C7  677   6.864  -0.057   9.565 -0.5268  0.4728  0.9686
   10CHL1   H7A  678   6.960  -0.029   9.517 -0.4426 -2.0403 -0.4002
   10CHL1   H7B  679   6.849  -0.166   9.581 -1.0142  0.6429  1.7433
   10CHL1    C8  680   6.743  -0.024   9.478  0.1046 -0.0317 -0.2925
   10CHL1    H8  681   6.743   0.082   9.448  0.2274  0.1000  0.1730
   10CHL1   C14  682   6.742  -0.106   9.351 -0.6127  0.1994 -1.0576
   10CHL1   H14  683   6.739  -0.213   9.379  0.9913  0.3364 -0.3006
   10CHL1   C15  684   6.869  -0.094   9.266 -0.0842  0.2865  0.2156
   10CHL1  H15A  685   6.901   0.012   9.264  0.7391  0.0554  0.8070
   10CHL1  H15B  686   6.946  -0.156   9.316 -0.0245  0.6412  0.5668
   10CHL1   C16  687   6.828  -0.157   9.131 -0.2605  0.1651  0.2429
   10CHL1  H16A  688   6.849  -0.094   9.042 -0.5801 -1.9684 -1.3844
   10CHL1  H16B  689   6.889  -0.249   9.119 -0.5091 -0.0221  0.4165
   10CHL1   C17  690   6.672  -0.171   9.133  0.0023 -0.1152  0.2270
   10CHL1   H17  691   6.661  -0.279   9.160 -4.9801 -0.4768 -2.7499
   10CHL1   C13  692   6.623  -0.085   9.254  0.6465  0.2009 -0.0813
   10CHL1   C18  693   6.618   0.066   9.204  0.0993 -0.1325 -0.1886
   10CHL1  H18A  694   6.536   0.085   9.131 -0.8444 -2.2121  0.2802
   10CHL1  H18B  695   6.602   0.138   9.287  0.1442 -1.9077  1.3909
   10CHL1  H18C  696   6.716   0.089   9.157 -0.3439  2.6485  0.1668
   10CHL1   C12  697   6.497  -0.133   9.329  0.2461 -0.4415 -0.6756
   10CHL1  H12A  698   6.413  -0.120   9.258  2.0115  0.0303 -2.7136
   10CHL1  H12B  699   6.511  -0.242   9.347 -1.3632 -0.8793 -2.0123
   10CHL1   C11  700   6.482  -0.062   9.469 -0.2637  0.2841 -0.5211
   10CHL1  H11A  701   6.447   0.041   9.446  0.5679  0.7491  0.3116
   10CHL1  H11B  702   6.399  -0.119   9.517  0.9936  0.0057  1.3381
   10CHL1    C9  703   6.611  -0.060   9.556  0.3046  0.8440  0.4689
   10CHL1    H9  704   6.623  -0.166   9.590 -1.6846  0.4785  0.0998
   10CHL1   C10  705   6.594   0.033   9.683 -0.0547  0.9851  0.2709
   10CHL1   C19  706   6.543   0.167   9.658 -0.8132  0.0381  0.1091
   10CHL1  H19A  707   6.542   0.233   9.747  0.2487  1.2488 -0.7505
   10CHL1  H19B  708   6.604   0.219   9.581 -0.5224 -1.2604 -0.5463
   10CHL1  H19C  709   6.439   0.173   9.620 -0.8846 -1.4581  0.0466
   10CHL1    C1  710   6.493  -0.034   9.781  0.4690 -0.0149  0.2267
   10CHL1   H1A  711   6.385  -0.032   9.756  0.5906 -1.0364 -0.3786
   10CHL1   H1B  712   6.523  -0.141   9.781 -0.8037 -0.3803 -0.1902
   10CHL1    C2  713   6.491   0.019   9.918 -0.7644  0.1649 -0.3590
   10CHL1   H2A  714   6.422  -0.043   9.979 -1.4679  0.7918 -0.5018
   10CHL1   H2B  715   6.444   0.120   9.912 -1.6703 -0.1281  1.4278
   10CHL1   C20  716   6.614  -0.157   8.990  0.0662  0.2498  0.4127
   10CHL1   H20  717   6.622  -0.053   8.951 -0.3761 -0.0847 -0.5995
   10CHL1   C21  718   6.466  -0.177   9.011  0.4577 -0.0292  0.1489
   10CHL1  H21A  719   6.420  -0.090   9.063  0.3087 -0.2274  0.3542
   10CHL1  H21B  720   6.445  -0.271   9.068 -0.1986 -1.4880 -2.4371
   10CHL1  H21C  721   6.414  -0.195   8.915  0.8405 -1.3930  0.1735
   10CHL1   C22  722   6.689  -0.248   8.889 -0.5755  0.3570  0.1900
   10CHL1  H22A  723   6.791  -0.208   8.871 -0.4810  0.4323  0.8697
   10CHL1  H22B  724   6.696  -0.357   8.910  3.2891  0.2973 -1.0554
   10CHL1   C23  725   6.626  -0.227   8.753  0.3500  0.4369  0.0507
   10CHL1  H23A  726   6.515  -0.229   8.756  0.3339  2.1935  0.8924
   10CHL1  H23B  727   6.658  -0.124   8.727  0.3774  1.1431  2.7600
   10CHL1   C24  728   6.679  -0.332   8.656  0.5000 -0.1671  0.2009
   10CHL1  H24A  729   6.788  -0.314   8.643  0.6605 -2.2031 -1.4842
   10CHL1  H24B  730   6.656  -0.436   8.686  0.2010  0.5082  2.3549
   10CHL1   C25  731   6.620  -0.323   8.512 -0.1477 -0.8185 -0.1756
   10CHL1   H25  732   6.511  -0.344   8.513 -0.4698  0.7744  1.7673
   10CHL1   C26  733   6.623  -0.183   8.449 -0.3483  0.2820  0.3225
   10CHL1  H26A  734   6.557  -0.118   8.510  1.5105  2.2685  0.2639
   10CHL1  H26B  735   6.725  -0.138   8.456  0.2187 -1.0553  0.7682
   10CHL1  H26C  736   6.595  -0.171   8.342  0.9059  1.0166  0.0669
   10CHL1   C27  737   6.682  -0.431   8.418  0.0285 -0.2932  0.4140
   10CHL1  H27A  738   6.789  -0.419   8.391 -0.1898 -0.7157 -0.6792
   10CHL1  H27B  739   6.673  -0.532   8.464  0.0443  0.0837  1.2565
   10CHL1  H27C  740   6.625  -0.438   8.323  1.3771  1.9264 -0.5975
   11CHL1    C3  741   2.005   3.069  10.094  0.3223  0.8108 -0.0979
   11CHL1    H3  742   2.018   3.180  10.089  0.1649  0.8153 -0.3859
   11CHL1    O3  743   1.975   3.031  10.232  0.5823  0.5904 -0.0887
   11CHL1   H3'  744   2.054   2.986  10.262 -0.9846 -2.2499 -0.0477
   11CHL1    C4  745   1.886   3.028  10.008  0.5608 -0.1380 -0.4608
   11CHL1   H4A  746   1.862   2.921  10.022 -0.0475  0.1207  0.5117
   11CHL1   H4B  747   1.795   3.083  10.040 -0.2705 -1.5569 -0.3616
   11CHL1    C5  748   1.917   3.039   9.852 -0.5095 -0.1514  0.0496
   11CHL1    C6  749   1.837   3.110   9.768 -0.4298 -0.5613  0.4834
   11CHL1    H6  750   1.746   3.156   9.810  0.2552  1.1150  0.1713
   11CHL1    C7  751   1.864   3.138   9.623 -0.4690  0.4020  0.4101
   11CHL1   H7A  752   1.778   3.139   9.553 -0.8706 -1.5756  0.8429
   11CHL1   H7B  753   1.924   3.231   9.619 -0.5141  0.3558 -1.7184
   11CHL1    C8  754   1.968   3.030   9.573  0.0687 -0.6420  0.2560
   11CHL1    H8  755   1.912   2.934   9.567 -2.1916  0.6540 -0.0208
   11CHL1   C14  756   2.020   3.069   9.433  0.5747 -0.2453 -0.0837
   11CHL1   H14  757   2.075   3.164   9.448  0.6894 -0.0790 -1.4670
   11CHL1   C15  758   1.918   3.098   9.326  0.8794  0.0939  0.1932
   11CHL1  H15A  759   1.848   3.011   9.323 -0.9649  1.4815  1.4594
   11CHL1  H15B  760   1.859   3.190   9.347  1.1817  0.1168  0.9445
   11CHL1   C16  761   1.998   3.114   9.202 -0.3464 -0.0670 -0.2644
   11CHL1  H16A  762   1.927   3.084   9.122 -1.1863  0.6443  0.2002
   11CHL1  H16B  763   2.018   3.217   9.164  0.2866 -0.5387 -1.2253
   11CHL1   C17  764   2.132   3.032   9.223 -1.0075  0.5046  0.4253
   11CHL1   H17  765   2.217   3.102   9.236 -1.5643  0.8737  2.1625
   11CHL1   C13  766   2.113   2.970   9.371 -0.1475 -0.2338  0.7458
   11CHL1   C18  767   2.042   2.836   9.343 -0.4871 -0.4959  0.2868
   11CHL1  H18A  768   2.117   2.759   9.314  2.5235  2.8524 -1.2570
   11CHL1  H18B  769   1.998   2.798   9.437  0.8237 -1.3177  0.5781
   11CHL1  H18C  770   1.959   2.837   9.269  0.7781  1.5368 -1.1846
   11CHL1   C12  771   2.238   2.962   9.459 -0.0236 -0.3809  0.1302
   11CHL1  H12A  772   2.314   2.893   9.416  0.1967 -0.3702  0.4997
   11CHL1  H12B  773   2.270   3.068   9.451 -0.8839 -0.0482  1.1119
   11CHL1   C11  774   2.211   2.931   9.608 -0.0290  0.6412 -0.6190
   11CHL1  H11A  775   2.171   2.828   9.612 -0.7437  0.8521 -2.0617
   11CHL1  H11B  776   2.304   2.934   9.669  0.4476  1.0976 -1.3684
   11CHL1    C9  777   2.091   3.013   9.667 -0.3379  0.1519  0.5619
   11CHL1    H9  778   2.130   3.117   9.673  1.3189 -0.5814  3.3460
   11CHL1   C10  779   2.048   2.976   9.815  0.5182  1.0822  0.3054
   11CHL1   C19  780   2.020   2.819   9.818  0.1620  1.1727  0.1677
   11CHL1  H19A  781   1.949   2.788   9.739 -2.5062  0.1072  2.9095
   11CHL1  H19B  782   2.109   2.756   9.798 -0.8025 -0.7742  1.8767
   11CHL1  H19C  783   1.984   2.781   9.915  2.4920 -0.3145  0.4843
   11CHL1    C1  784   2.163   3.015   9.902  0.4457 -0.4376 -0.4020
   11CHL1   H1A  785   2.257   2.960   9.881  1.4988  0.6667  1.3641
   11CHL1   H1B  786   2.187   3.121   9.879  0.0356 -0.1766  0.3660
   11CHL1    C2  787   2.129   2.997  10.053 -0.1562 -0.9340  0.2226
   11CHL1   H2A  788   2.216   3.043  10.104  0.0711 -0.7614 -0.3237
   11CHL1   H2B  789   2.141   2.891  10.084 -1.0568 -0.4145  2.4286
   11CHL1   C20  790   2.190   2.939   9.105  0.4461 -0.5525 -0.3188
   11CHL1   H20  791   2.122   2.858   9.071 -0.7070  0.2306  0.0658
   11CHL1   C21  792   2.319   2.877   9.146  0.6100 -0.2026  0.7846
   11CHL1  H21A  793   2.373   2.857   9.051 -1.1282 -0.0882 -0.2598
   11CHL1  H21B  794   2.299   2.785   9.204  1.2610  0.2937  1.8164
   11CHL1  H21C  795   2.388   2.943   9.204 -0.1461 -0.8476  2.4501
   11CHL1   C22  796   2.207   3.027   8.984  0.1786  0.2717  0.7546
   11CHL1  H22A  797   2.118   3.093   8.980 -0.1284 -0.1158  1.2866
   11CHL1  H22B  798   2.292   3.099   8.994  1.1590 -0.2704 -2.7278
   11CHL1   C23  799   2.211   2.942   8.854 -0.5264  1.0350  0.0094
   11CHL1  H23A  800   2.271   2.853   8.883  1.4231  2.3146 -0.0169
   11CHL1  H23B  801   2.108   2.917   8.821 -0.0375  0.2759 -0.9497
   11CHL1   C24  802   2.270   3.008   8.726  0.0962  0.3418  0.1069
   11CHL1  H24A  803   2.208   3.093   8.690  0.4731  0.7743  0.4582
   11CHL1  H24B  804   2.364   3.056   8.761 -0.5150  1.5943  0.0832
   11CHL1   C25  805   2.293   2.908   8.610  0.1786 -0.7654  0.4088
   11CHL1   H25  806   2.353   2.822   8.647  0.1829 -0.7126  0.5226
   11CHL1   C26  807   2.162   2.869   8.546 -0.3042 -0.4340 -0.2415
   11CHL1  H26A  808   2.163   2.784   8.474  1.8994 -0.7232  0.0949
   11CHL1  H26B  809   2.082   2.837   8.616  1.0994 -1.4656  0.9158
   11CHL1  H26C  810   2.117   2.959   8.497 -1.3285 -0.9196 -0.2087
   11CHL1   C27  811   2.382   2.977   8.504  0.0836  0.3000 -0.3983
   11CHL1  H27A  812   2.325   3.057   8.454  1.7114  0.8530 -1.3871
   11CHL1  H27B  813   2.461   3.029   8.563  1.2391 -1.3509 -0.4503
   11CHL1  H27C  814   2.426   2.908   8.429  2.1304  0.1855  0.8764
   12CHL1    C3  815   5.167   5.848  10.206 -0.0750 -0.6151  0.6849
   12CHL1    H3  816   5.167   5.958  10.220  0.1406 -0.4992 -0.2108
   12CHL1    O3  817   5.176   5.780  10.330  0.6785 -0.4039  0.2598
   12CHL1   H3'  818   5.127   5.830  10.396  0.6411 -3.1097  2.3344
   12CHL1    C4  819   5.031   5.808  10.137  0.0782 -0.0260  0.4703
   12CHL1   H4A  820   5.024   5.697  10.139  2.5707 -0.2154  0.8143
   12CHL1   H4B  821   4.941   5.836  10.195  0.6352 -0.8475  1.7643
   12CHL1    C5  822   5.015   5.861   9.999 -0.4417  0.0062  0.3267
   12CHL1    C6  823   4.902   5.925   9.968 -0.1724  0.6390  0.4040
   12CHL1    H6  824   4.833   5.964  10.045  1.2611  1.1442  1.4453
   12CHL1    C7  825   4.867   5.984   9.834 -0.3799  0.2523 -0.1870
   12CHL1   H7A  826   4.763   5.955   9.807  0.4337 -2.1533 -0.8819
   12CHL1   H7B  827   4.879   6.094   9.836  0.5892  0.1381  0.9392
   12CHL1    C8  828   4.967   5.936   9.720  0.0083  0.0517 -0.2615
   12CHL1    H8  829   4.945   5.833   9.685 -0.2303 -0.7654  2.2468
   12CHL1   C14  830   4.969   6.028   9.600  0.2156  0.5187 -0.1332
   12CHL1   H14  831   4.999   6.129   9.634  2.4514  0.0087 -0.5103
   12CHL1   C15  832   4.835   6.053   9.532  0.4601  0.2928 -0.6091
   12CHL1  H15A  833   4.775   5.960   9.529  0.7966  0.0633 -0.2465
   12CHL1  H15B  834   4.787   6.139   9.584  0.6627 -0.7634  1.3588
   12CHL1   C16  835   4.885   6.097   9.391 -0.4722  0.2837 -0.1122
   12CHL1  H16A  836   4.843   6.019   9.325 -0.4725  0.7701 -0.6886
   12CHL1  H16B  837   4.850   6.201   9.374  1.2265  0.7064 -1.0780
   12CHL1   C17  838   5.042   6.087   9.384 -0.0727  0.4689 -0.8192
   12CHL1   H17  839   5.077   6.185   9.422 -0.9404  0.5259 -0.1682
   12CHL1   C13  840   5.075   5.982   9.493 -0.1455 -0.5021  0.4326
   12CHL1   C18  841   5.056   5.841   9.442  0.3818  0.7248  0.3016
   12CHL1  H18A  842   5.137   5.800   9.377  1.7208  1.1446  1.6598
   12CHL1  H18B  843   5.041   5.774   9.530  3.2190  0.1273  0.3849
   12CHL1  H18C  844   4.966   5.835   9.378 -0.8584 -0.5505  2.1239
   12CHL1   C12  845   5.209   6.001   9.556 -0.1482 -0.0117 -1.0292
   12CHL1  H12A  846   5.298   5.980   9.493 -0.6004  1.1579 -2.0689
   12CHL1  H12B  847   5.221   6.107   9.585  0.0556 -0.0788 -0.8611
   12CHL1   C11  848   5.223   5.909   9.672  0.3000  0.2292 -0.4681
   12CHL1  H11A  849   5.220   5.803   9.636 -1.9447 -0.0384  0.4015
   12CHL1  H11B  850   5.318   5.933   9.725  1.6155 -0.8264 -2.2919
   12CHL1    C9  851   5.113   5.932   9.784  0.1508 -0.4464 -0.8107
   12CHL1    H9  852   5.123   6.040   9.809  1.9535 -0.9615  0.7443
   12CHL1   C10  853   5.138   5.844   9.910  0.2981 -0.1862  0.2398
   12CHL1   C19  854   5.141   5.697   9.869 -0.2715  0.2339  0.0648
   12CHL1  H19A  855   5.228   5.695   9.800 -2.0059  1.6655 -2.2490
   12CHL1  H19B  856   5.157   5.622   9.950  2.8240  1.2697  0.4964
   12CHL1  H19C  857   5.049   5.669   9.814  0.8958 -2.4314 -0.6148
   12CHL1    C1  858   5.272   5.885   9.982  0.7086 -0.4411 -0.0089
   12CHL1   H1A  859   5.353   5.855   9.913  1.9480  2.1788  0.2357
   12CHL1   H1B  860   5.270   5.997   9.982  0.1763 -0.4163  2.0487
   12CHL1    C2  861   5.288   5.812  10.114  0.3798 -0.7291 -0.3895
   12CHL1   H2A  862   5.372   5.852  10.175 -0.0383  0.1847 -0.4080
   12CHL1   H2B  863   5.297   5.705  10.085  2.3446 -0.1263 -2.1983
   12CHL1   C20  864   5.084   6.058   9.234  0.3291  0.1491  0.0597
   12CHL1   H20  865   5.043   5.959   9.203 -0.4666  0.4687  0.1011
   12CHL1   C21  866   5.236   6.057   9.226 -0.5666 -0.1269  0.3755
   12CHL1  H21A  867   5.277   5.955   9.237  1.2676  0.5469 -0.1308
   12CHL1  H21B  868   5.275   6.130   9.300 -1.8511  0.9225  0.0344
   12CHL1  H21C  869   5.272   6.094   9.128  1.8572 -0.6834  1.0376
   12CHL1   C22  870   5.022   6.162   9.130  0.3370  0.6519  0.1335
   12CHL1  H22A  871   4.918   6.180   9.166 -0.1869 -3.7037  1.0727
   12CHL1  H22B  872   5.086   6.252   9.139  1.0678  0.2937 -1.4194
   12CHL1   C23  873   5.022   6.119   8.982 -0.4955 -0.2475 -0.0408
   12CHL1  H23A  874   5.127   6.099   8.951  0.7861  1.5031  2.9286
   12CHL1  H23B  875   4.959   6.030   8.965 -2.2912  1.1205 -0.6918
   12CHL1   C24  876   4.960   6.232   8.897  0.0855  0.0802  0.8432
   12CHL1  H24A  877   4.855   6.245   8.932 -0.6996 -1.3141 -0.9052
   12CHL1  H24B  878   5.024   6.322   8.909 -0.3547  0.6917 -1.2277
   12CHL1   C25  879   4.966   6.204   8.741 -0.2430  0.1104  0.3100
   12CHL1   H25  880   5.071   6.175   8.721 -0.9632 -1.4857 -1.2960
   12CHL1   C26  881   4.883   6.081   8.686 -0.1765 -0.2024  0.7983
   12CHL1  H26A  882   4.940   6.043   8.598  2.1265  2.2239  1.1465
   12CHL1  H26B  883   4.868   5.997   8.757  0.3280 -0.4304  0.6372
   12CHL1  H26C  884   4.782   6.105   8.647 -1.5023 -4.3918  1.4379
   12CHL1   C27  885   4.922   6.325   8.651 -0.1778 -0.2329  0.5442
   12CHL1  H27A  886   4.813   6.341   8.667  0.0305  1.8000  0.0263
   12CHL1  H27B  887   4.972   6.414   8.694 -2.2721  0.4895  1.5713
   12CHL1  H27C  888   4.944   6.301   8.545  3.0698  4.1176  0.1057
   13CHL1    C3  889   3.258   1.037   9.950  0.2202  0.1200 -0.4613
   13CHL1    H3  890   3.300   0.956  10.014  1.4131  0.9182 -0.2260
   13CHL1    O3  891   3.167   1.104  10.038  0.1587 -0.6712 -0.0856
   13CHL1   H3'  892   3.089   1.050  10.022  0.5746 -1.3039  0.0229
   13CHL1    C4  893   3.380   1.122   9.916 -0.2367 -0.3422  0.3689
   13CHL1   H4A  894   3.353   1.229   9.906 -1.0063 -0.5410  0.2568
   13CHL1   H4B  895   3.441   1.131  10.009 -0.5666 -0.3887  0.5954
   13CHL1    C5  896   3.463   1.069   9.805 -0.1885  0.5371  0.2089
   13CHL1    C6  897   3.594   1.042   9.816 -0.8879  0.1240 -0.7225
   13CHL1    H6  898   3.649   1.067   9.908  1.9449 -2.6972 -1.5717
   13CHL1    C7  899   3.680   1.012   9.693 -0.2920 -0.1276 -0.3353
   13CHL1   H7A  900   3.760   1.089   9.684 -0.2627  0.1252  1.7738
   13CHL1   H7B  901   3.726   0.913   9.709  1.8971  0.8146 -0.6285
   13CHL1    C8  902   3.603   1.019   9.553 -0.1523 -0.4006 -0.0828
   13CHL1    H8  903   3.613   1.127   9.532  0.3033 -0.2384  0.9539
   13CHL1   C14  904   3.685   0.940   9.446 -0.4086 -0.6614 -0.1300
   13CHL1   H14  905   3.662   0.831   9.451  0.8512 -0.9954 -1.3251
   13CHL1   C15  906   3.836   0.973   9.437  0.0633 -0.5317  0.1642
   13CHL1  H15A  907   3.857   1.077   9.468  1.0499 -0.1583 -1.6741
   13CHL1  H15B  908   3.879   0.906   9.514  1.0237  0.2474  0.3131
   13CHL1   C16  909   3.872   0.927   9.289 -0.3723  0.4755 -0.1129
   13CHL1  H16A  910   3.908   1.024   9.250 -0.3164  1.3637  2.0740
   13CHL1  H16B  911   3.954   0.853   9.288 -1.2932 -0.5592  0.3714
   13CHL1   C17  912   3.742   0.893   9.215 -0.9151  0.3173 -0.2606
   13CHL1   H17  913   3.733   0.784   9.237 -1.7800  0.2518 -0.9154
   13CHL1   C13  914   3.629   0.962   9.298 -0.1452  0.1376 -1.0667
   13CHL1   C18  915   3.647   1.108   9.249  0.3357 -0.0030 -0.0185
   13CHL1  H18A  916   3.590   1.134   9.158  0.5625  1.5508  0.2688
   13CHL1  H18B  917   3.603   1.178   9.323 -0.8363 -0.3405 -0.3931
   13CHL1  H18C  918   3.750   1.150   9.245 -0.0311  0.9147  0.1482
   13CHL1   C12  919   3.483   0.902   9.303  0.8456  0.1352  0.2582
   13CHL1  H12A  920   3.446   0.920   9.200 -0.7028 -0.6522  0.6555
   13CHL1  H12B  921   3.493   0.792   9.320 -1.7009 -0.2930 -0.6660
   13CHL1   C11  922   3.397   0.957   9.411  0.1711 -0.4611  0.0049
   13CHL1  H11A  923   3.370   1.060   9.382 -0.3508 -0.5658  0.1260
   13CHL1  H11B  924   3.301   0.903   9.425  0.6798 -1.2396  0.5732
   13CHL1    C9  925   3.462   0.962   9.557  0.0318  0.2823 -0.5700
   13CHL1    H9  926   3.479   0.856   9.583  0.7503  0.4028 -0.5395
   13CHL1   C10  927   3.381   1.036   9.669  0.0785 -0.0739 -0.4877
   13CHL1   C19  928   3.334   1.170   9.608  0.6738 -0.1005  0.7485
   13CHL1  H19A  929   3.410   1.214   9.540  0.6123 -0.6108  0.3559
   13CHL1  H19B  930   3.232   1.162   9.567  0.1439  0.5800  1.9078
   13CHL1  H19C  931   3.317   1.253   9.680  2.1860 -0.7710  1.9123
   13CHL1    C1  932   3.257   0.946   9.710 -0.4232  0.7097 -0.5328
   13CHL1   H1A  933   3.202   0.929   9.615 -1.2713 -1.0940  0.2807
   13CHL1   H1B  934   3.305   0.852   9.744 -2.1508  0.2927  0.7501
   13CHL1    C2  935   3.169   0.999   9.828  0.2260  0.3323  0.0539
   13CHL1   H2A  936   3.101   0.915   9.855 -1.4096  1.9804  1.2103
   13CHL1   H2B  937   3.106   1.083   9.792 -1.0712 -0.0663  1.3356
   13CHL1   C20  938   3.749   0.902   9.062 -0.2991 -0.3334 -0.9640
   13CHL1   H20  939   3.743   1.009   9.032 -0.8037 -0.2666 -0.6253
   13CHL1   C21  940   3.632   0.818   9.010 -0.2519  0.2882 -0.3323
   13CHL1  H21A  941   3.671   0.714   9.017  0.3058  0.5787  0.9659
   13CHL1  H21B  942   3.610   0.850   8.905 -1.5546 -3.0955 -1.1554
   13CHL1  H21C  943   3.534   0.827   9.061 -0.3689  1.8391 -0.7896
   13CHL1   C22  944   3.877   0.839   9.002 -0.1214  0.4335 -0.4983
   13CHL1  H22A  945   3.958   0.893   9.055  0.2868 -0.1267 -0.5466
   13CHL1  H22B  946   3.883   0.730   9.025 -1.9892  0.6319  1.0526
   13CHL1   C23  947   3.894   0.844   8.850 -0.1689 -0.0157 -0.3881
   13CHL1  H23A  948   3.979   0.780   8.817  0.8288  1.3699 -0.5583
   13CHL1  H23B  949   3.799   0.808   8.805  1.3875 -1.5415 -2.5085
   13CHL1   C24  950   3.922   0.984   8.793  0.1116  0.3288  0.2545
   13CHL1  H24A  951   3.885   0.994   8.689 -2.1169  1.3664  1.1006
   13CHL1  H24B  952   3.853   1.058   8.840  0.0551 -0.6341  1.7121
   13CHL1   C25  953   4.067   1.016   8.792 -0.4862 -0.3390 -0.0613
   13CHL1   H25  954   4.117   0.991   8.888  0.4569  0.0289 -0.4499
   13CHL1   C26  955   4.139   0.922   8.684 -0.3846 -0.3739 -0.4554
   13CHL1  H26A  956   4.079   0.924   8.591  0.0458 -0.5445 -0.7362
   13CHL1  H26B  957   4.242   0.953   8.657 -0.1903 -1.5274 -1.0589
   13CHL1  H26C  958   4.146   0.817   8.719  2.5900  0.2091  0.8126
   13CHL1   C27  959   4.087   1.159   8.745  0.1754 -0.5762  0.1594
   13CHL1  H27A  960   4.197   1.170   8.733  0.0400 -1.9762 -2.6686
   13CHL1  H27B  961   4.055   1.174   8.640 -1.7776 -0.5906  0.7422
   13CHL1  H27C  962   4.043   1.231   8.817  2.6617  0.9230  0.2377
   14CHL1    C3  963   3.820   4.468  10.295  0.2522  0.5041 -0.1827
   14CHL1    H3  964   3.763   4.376  10.272 -1.0795  1.2851 -0.0486
   14CHL1    O3  965   3.859   4.473  10.429  0.8457 -0.2400  0.6404
   14CHL1   H3'  966   3.905   4.557  10.436 -0.6900  0.7359 -0.5755
   14CHL1    C4  967   3.944   4.451  10.199  0.2768  0.4601 -0.6599
   14CHL1   H4A  968   4.017   4.533  10.219 -1.1116  1.5325  0.1547
   14CHL1   H4B  969   4.002   4.359  10.223 -2.4876 -0.7792  1.7543
   14CHL1    C5  970   3.907   4.445  10.054 -0.6615 -0.8503  0.4739
   14CHL1    C6  971   3.935   4.344   9.971  0.5360  0.0079  0.6869
   14CHL1    H6  972   3.997   4.256   9.993 -0.5670 -0.8374  0.4151
   14CHL1    C7  973   3.908   4.350   9.824 -0.5600  0.1723 -0.4243
   14CHL1   H7A  974   4.003   4.311   9.782  2.3522  1.6135  4.4791
   14CHL1   H7B  975   3.814   4.297   9.797 -0.4742 -0.4124  0.4109
   14CHL1    C8  976   3.891   4.491   9.772  0.2951  0.0788  0.2293
   14CHL1    H8  977   3.986   4.548   9.779 -0.1322  1.1332 -2.1706
   14CHL1   C14  978   3.828   4.499   9.635 -0.0033  0.7324 -0.0605
   14CHL1   H14  979   3.725   4.462   9.650  0.6066 -1.3909 -0.9552
   14CHL1   C15  980   3.883   4.399   9.529 -0.2947 -0.2202 -0.4750
   14CHL1  H15A  981   3.990   4.372   9.538  0.1990  0.8805 -2.5498
   14CHL1  H15B  982   3.830   4.303   9.544  0.0531 -0.3899 -0.3257
   14CHL1   C16  983   3.845   4.469   9.393  0.2946  1.2504 -0.1366
   14CHL1  H16A  984   3.936   4.490   9.332  2.2588 -3.0684  1.1075
   14CHL1  H16B  985   3.779   4.408   9.328  0.9189 -2.1570  2.2906
   14CHL1   C17  986   3.774   4.602   9.429  0.4122 -0.0980 -0.5865
   14CHL1   H17  987   3.665   4.581   9.435  0.5883 -0.3487  2.8644
   14CHL1   C13  988   3.818   4.636   9.573 -0.1309 -0.2157 -0.1253
   14CHL1   C18  989   3.955   4.706   9.569 -0.0618 -0.3299 -0.1892
   14CHL1  H18A  990   3.943   4.808   9.528  1.1042  0.5586  1.6251
   14CHL1  H18B  991   4.005   4.709   9.668 -0.0702  1.7224 -0.2217
   14CHL1  H18C  992   4.024   4.646   9.506  0.2821  1.0236 -1.1117
   14CHL1   C12  993   3.719   4.714   9.655  0.2507  0.0959 -0.0669
   14CHL1  H12A  994   3.700   4.816   9.615  0.2052 -0.1077 -0.5771
   14CHL1  H12B  995   3.622   4.661   9.651  0.2771  0.0533 -0.1411
   14CHL1   C11  996   3.765   4.719   9.804  0.1980 -0.3715  0.9707
   14CHL1  H11A  997   3.851   4.787   9.820  2.4953 -2.4335 -2.1524
   14CHL1  H11B  998   3.684   4.758   9.869  1.2564 -0.0405  2.0995
   14CHL1    C9  999   3.802   4.578   9.860  0.9119 -0.8289  0.3535
   14CHL1    H9 1000   3.705   4.524   9.857  0.9240 -0.8969  1.0619
   14CHL1   C10 1001   3.839   4.578  10.009 -0.2200  0.0301  0.0825
   14CHL1   C19 1002   3.943   4.700  10.028  0.0480  0.4922 -0.8013
   14CHL1  H19A 1003   4.005   4.702  10.120  1.3452 -3.0148 -1.5373
   14CHL1  H19B 1004   4.014   4.705   9.943  0.9511 -0.0856 -0.0928
   14CHL1  H19C 1005   3.876   4.788  10.035 -0.3594 -0.0027  2.2215
   14CHL1    C1 1006   3.715   4.607  10.097  0.5796  0.4515 -0.4481
   14CHL1   H1A 1007   3.666   4.703  10.071 -1.9007 -1.3475 -2.7757
   14CHL1   H1B 1008   3.636   4.529  10.082  0.4545 -0.0229  2.3387
   14CHL1    C2 1009   3.735   4.591  10.247 -0.0484  0.1711 -0.4987
   14CHL1   H2A 1010   3.638   4.581  10.300  1.6245  0.0684  2.6406
   14CHL1   H2B 1011   3.790   4.683  10.277  2.9343 -1.4326 -0.9062
   14CHL1   C20 1012   3.790   4.709   9.316 -0.1045 -0.0601 -0.7026
   14CHL1   H20 1013   3.896   4.736   9.299  0.1318  1.1817  2.4192
   14CHL1   C21 1014   3.715   4.839   9.351  0.2228 -0.8648  0.1475
   14CHL1  H21A 1015   3.613   4.824   9.392  0.4886 -0.6382  0.8875
   14CHL1  H21B 1016   3.705   4.907   9.264 -1.0742 -2.4217 -0.9623
   14CHL1  H21C 1017   3.769   4.900   9.426 -1.2741 -0.3342  0.8097
   14CHL1   C22 1018   3.739   4.658   9.174  0.2645  0.3051  0.2039
   14CHL1  H22A 1019   3.799   4.567   9.152 -0.2139  0.2321 -0.8537
   14CHL1  H22B 1020   3.632   4.628   9.172  0.2785  0.3001 -0.9198
   14CHL1   C23 1021   3.752   4.757   9.059  0.0298  0.0613  0.3344
   14CHL1  H23A 1022   3.687   4.847   9.068  0.7173  0.6469 -0.5266
   14CHL1  H23B 1023   3.853   4.802   9.066 -1.0639  2.5202  0.9533
   14CHL1   C24 1024   3.707   4.684   8.929 -0.4781 -0.3107 -0.6623
   14CHL1  H24A 1025   3.720   4.574   8.939  0.0908 -0.2962 -1.1785
   14CHL1  H24B 1026   3.598   4.703   8.925 -0.3324  0.9179  0.7521
   14CHL1   C25 1027   3.774   4.733   8.799 -0.1543 -0.1206 -0.4638
   14CHL1   H25 1028   3.778   4.844   8.802 -1.0931 -0.1233  1.4205
   14CHL1   C26 1029   3.923   4.691   8.801  0.0225 -0.2994  1.0301
   14CHL1  H26A 1030   3.934   4.583   8.780 -1.5939 -0.3367  0.2508
   14CHL1  H26B 1031   3.961   4.748   8.713  2.4984 -2.0719  0.9159
   14CHL1  H26C 1032   3.973   4.713   8.897  2.2800 -0.7164 -0.0293
   14CHL1   C27 1033   3.696   4.699   8.664  0.2562 -0.1910  0.0183
   14CHL1  H27A 1034   3.606   4.765   8.659 -0.8440 -1.6046  0.9271
   14CHL1  H27B 1035   3.759   4.716   8.574 -1.5949 -0.6069 -1.3899
   14CHL1  H27C 1036   3.658   4.595   8.659 -1.0311  0.1821  1.5282
   15CHL1    C3 1037   4.000   2.772  10.048 -0.4806 -0.4343  0.1748
   15CHL1    H3 1038   4.097   2.718  10.038 -0.6746 -1.4862  3.2313
   15CHL1    O3 1039   3.976   2.783  10.190  0.4228 -0.0720  0.6597
   15CHL1   H3' 1040   3.983   2.696  10.230 -1.8801 -0.5876 -0.0096
   15CHL1    C4 1041   3.996   2.907   9.984  0.5233  0.4686  0.0629
   15CHL1   H4A 1042   3.894   2.949   9.994 -0.0075 -1.0286  1.3240
   15CHL1   H4B 1043   4.068   2.966  10.045 -0.1790  0.7498  0.6232
   15CHL1    C5 1044   4.030   2.876   9.842  0.2473 -0.3384  0.1448
   15CHL1    C6 1045   4.144   2.918   9.783 -0.3490  1.2180 -0.2553
   15CHL1    H6 1046   4.219   2.974   9.840  0.5156  0.2856 -0.4457
   15CHL1    C7 1047   4.168   2.910   9.635  0.8962  0.7730  0.2272
   15CHL1   H7A 1048   4.221   3.004   9.611  0.4278  1.1803  0.7952
   15CHL1   H7B 1049   4.249   2.836   9.614 -0.3319 -0.3524 -0.5959
   15CHL1    C8 1050   4.032   2.891   9.566  0.0152  0.7698 -0.7138
   15CHL1    H8 1051   3.978   2.987   9.573  0.8754  1.2544 -0.6447
   15CHL1   C14 1052   4.059   2.858   9.423  0.5463 -0.0113  0.2429
   15CHL1   H14 1053   4.096   2.754   9.421  0.0055 -0.2006  0.0642
   15CHL1   C15 1054   4.163   2.940   9.351 -0.0270  0.2374  0.0953
   15CHL1  H15A 1055   4.152   3.050   9.362  1.5666  0.4728 -0.4411
   15CHL1  H15B 1056   4.266   2.914   9.386 -1.3305 -1.2840  3.0096
   15CHL1   C16 1057   4.150   2.903   9.205  0.2760 -0.3005 -0.2319
   15CHL1  H16A 1058   4.132   2.992   9.141 -0.4451 -1.9689 -2.4311
   15CHL1  H16B 1059   4.244   2.847   9.189 -0.2058 -1.4573  0.9036
   15CHL1   C17 1060   4.028   2.806   9.197  0.5285  0.0515  0.4868
   15CHL1   H17 1061   4.065   2.702   9.211  1.5585  0.2125 -0.8807
   15CHL1   C13 1062   3.942   2.833   9.323  0.0540  0.3613 -0.6187
   15CHL1   C18 1063   3.856   2.967   9.306 -0.6288 -0.0951  0.2647
   15CHL1  H18A 1064   3.904   3.025   9.225  0.1168 -0.0357  0.7504
   15CHL1  H18B 1065   3.748   2.944   9.290 -0.5495 -0.3120  0.0448
   15CHL1  H18C 1066   3.869   3.025   9.399  1.2526  1.0372 -0.6923
   15CHL1   C12 1067   3.860   2.717   9.389  0.3642  0.0491  0.1355
   15CHL1  H12A 1068   3.770   2.676   9.338  0.5689 -2.7357  1.9025
   15CHL1  H12B 1069   3.927   2.628   9.387  1.0979  0.5827  0.5627
   15CHL1   C11 1070   3.820   2.746   9.533 -0.2471  1.0144  0.2189
   15CHL1  H11A 1071   3.750   2.832   9.530  1.7561  2.6195 -3.5224
   15CHL1  H11B 1072   3.772   2.661   9.587  2.1515 -0.0734  0.7054
   15CHL1    C9 1073   3.945   2.782   9.623  0.8928  0.9136 -0.2429
   15CHL1    H9 1074   4.011   2.694   9.615 -1.7255 -0.9770 -1.8067
   15CHL1   C10 1075   3.912   2.802   9.767  0.5713 -0.1993 -0.5347
   15CHL1   C19 1076   3.768   2.866   9.776  0.3546  0.1115 -0.3364
   15CHL1  H19A 1077   3.738   2.866   9.883 -1.9799  0.8009 -0.9588
   15CHL1  H19B 1078   3.779   2.966   9.729  2.8274 -0.2009 -0.4975
   15CHL1  H19C 1079   3.685   2.813   9.727  0.2616  1.3071 -1.5053
   15CHL1    C1 1080   3.907   2.667   9.844  0.5208  0.0285  0.6960
   15CHL1   H1A 1081   3.819   2.606   9.817  0.7780 -0.3515  0.7095
   15CHL1   H1B 1082   3.995   2.604   9.819 -0.4298 -1.1795  0.3804
   15CHL1    C2 1083   3.895   2.672   9.996  0.0904 -0.0516  0.3805
   15CHL1   H2A 1084   3.897   2.574  10.049 -1.1959 -0.2611  0.0558
   15CHL1   H2B 1085   3.802   2.726  10.024  0.2633 -0.5460  1.9686
   15CHL1   C20 1086   3.959   2.820   9.061  0.2594 -0.0812 -0.1585
   15CHL1   H20 1087   3.934   2.927   9.047  0.1828  0.1844  1.8429
   15CHL1   C21 1088   3.831   2.740   9.060 -0.1013  0.3610 -0.3261
   15CHL1  H21A 1089   3.747   2.782   9.119 -0.8862 -1.2899 -0.2474
   15CHL1  H21B 1090   3.855   2.645   9.113  1.3030  1.3812  0.8797
   15CHL1  H21C 1091   3.790   2.714   8.960 -0.1006 -2.2306  0.3159
   15CHL1   C22 1092   4.043   2.771   8.937 -0.3140  0.0350  0.1135
   15CHL1  H22A 1093   4.142   2.816   8.961 -0.3543 -0.1434  0.6323
   15CHL1  H22B 1094   4.046   2.660   8.935 -2.1898 -0.0218 -3.3999
   15CHL1   C23 1095   3.994   2.824   8.801 -0.2393  0.1210  0.3064
   15CHL1  H23A 1096   3.900   2.772   8.775 -1.1875  1.3459  1.2607
   15CHL1  H23B 1097   3.977   2.933   8.793 -1.3487 -0.0443  0.3786
   15CHL1   C24 1098   4.098   2.785   8.694  0.7585  0.1561 -0.4533
   15CHL1  H24A 1099   4.189   2.814   8.751 -0.6122  1.2293  1.2455
   15CHL1  H24B 1100   4.092   2.676   8.671  1.3909  0.2590 -1.1093
   15CHL1   C25 1101   4.089   2.867   8.565 -0.4738 -0.0506  0.0654
   15CHL1   H25 1102   4.083   2.975   8.589 -2.3818 -0.2025  0.3684
   15CHL1   C26 1103   4.216   2.838   8.483  0.2202  0.3979 -0.3567
   15CHL1  H26A 1104   4.183   2.754   8.419 -1.4271  0.6065  0.1929
   15CHL1  H26B 1105   4.253   2.921   8.419  2.0325 -0.0366  0.0967
   15CHL1  H26C 1106   4.301   2.806   8.547 -0.4865 -2.5415 -0.8350
   15CHL1   C27 1107   3.960   2.841   8.495 -0.7028  0.4021  0.2743
   15CHL1  H27A 1108   3.959   2.893   8.397 -0.2263 -0.4839 -0.1957
   15CHL1  H27B 1109   3.940   2.732   8.492 -0.1911  0.3185 -0.0421
   15CHL1  H27C 1110   3.875   2.880   8.556 -0.0635  1.5022  0.4858
   16CHL1    C3 1111   4.607   3.474  10.183  0.2737  0.0347 -0.5636
   16CHL1    H3 1112   4.536   3.416  10.120 -1.4498 -0.6951  1.9900
   16CHL1    O3 1113   4.615   3.426  10.314 -0.0467 -0.2273  0.4643
   16CHL1   H3' 1114   4.606   3.330  10.308 -0.3278 -0.1184 -1.0952
   16CHL1    C4 1115   4.735   3.488  10.104 -1.0733  0.1502 -0.0041
   16CHL1   H4A 1116   4.799   3.564  10.154 -3.1198  1.3403  0.8558
   16CHL1   H4B 1117   4.783   3.387  10.109 -1.2104  0.0933  0.1955
   16CHL1    C5 1118   4.700   3.541   9.970 -0.7234 -0.6598 -0.1585
   16CHL1    C6 1119   4.738   3.474   9.857 -0.7524  0.5682 -0.3294
   16CHL1    H6 1120   4.785   3.375   9.858 -1.5717  0.1747  0.1637
   16CHL1    C7 1121   4.726   3.525   9.719  0.4535  0.0959 -0.2856
   16CHL1   H7A 1122   4.820   3.501   9.664  0.0219  1.5650 -1.7013
   16CHL1   H7B 1123   4.650   3.464   9.665 -0.8284  0.4477  1.0911
   16CHL1    C8 1124   4.681   3.675   9.707  0.4794  0.6584  0.2263
   16CHL1    H8 1125   4.767   3.741   9.731 -0.4736  1.9300  0.1837
   16CHL1   C14 1126   4.622   3.700   9.568  0.6606  1.1972 -0.1387
   16CHL1   H14 1127   4.541   3.625   9.559  2.8992 -1.0450 -2.3361
   16CHL1   C15 1128   4.716   3.673   9.439  0.6879  0.2573  0.3650
   16CHL1  H15A 1129   4.809   3.732   9.454  0.8113  0.0736  0.3201
   16CHL1  H15B 1130   4.734   3.565   9.424 -0.3030 -0.1239  1.7389
   16CHL1   C16 1131   4.632   3.723   9.324  0.3745  0.0103  0.1461
   16CHL1  H16A 1132   4.699   3.767   9.247  1.5625  0.4846  1.4353
   16CHL1  H16B 1133   4.574   3.642   9.275  1.3727 -0.4649 -0.2543
   16CHL1   C17 1134   4.530   3.824   9.393  0.6457 -0.0609  0.2818
   16CHL1   H17 1135   4.431   3.774   9.402  0.4239 -0.0417 -1.7631
   16CHL1   C13 1136   4.572   3.842   9.543 -0.3081 -0.6319  0.7165
   16CHL1   C18 1137   4.678   3.955   9.559  0.6407  0.0949 -0.3339
   16CHL1  H18A 1138   4.724   3.950   9.661 -0.0740  1.2718  0.0512
   16CHL1  H18B 1139   4.759   3.956   9.484  0.8523  0.5883 -0.1037
   16CHL1  H18C 1140   4.635   4.057   9.570  2.0706  0.5985  0.7931
   16CHL1   C12 1141   4.455   3.867   9.640 -0.4771  0.0404 -0.6136
   16CHL1  H12A 1142   4.415   3.970   9.632  1.0117  0.6559 -0.3121
   16CHL1  H12B 1143   4.379   3.787   9.626 -0.9084 -0.0620  2.1077
   16CHL1   C11 1144   4.501   3.848   9.786 -0.7158  0.0376 -0.0932
   16CHL1  H11A 1145   4.569   3.929   9.818  1.1414 -1.9268  1.0807
   16CHL1  H11B 1146   4.416   3.857   9.857  1.4155 -0.8524  2.6549
   16CHL1    C9 1147   4.576   3.705   9.813  0.2482  0.2764 -0.4122
   16CHL1    H9 1148   4.489   3.637   9.804  2.1916 -2.1165 -1.5040
   16CHL1   C10 1149   4.628   3.681   9.959  0.6854  0.3070 -0.3254
   16CHL1   C19 1150   4.731   3.789   9.989 -0.7818  0.0221 -0.0095
   16CHL1  H19A 1151   4.686   3.890   9.981 -1.7199 -0.2766  1.3653
   16CHL1  H19B 1152   4.759   3.787  10.097  3.9825 -0.3836 -1.1065
   16CHL1  H19C 1153   4.826   3.774   9.932 -0.2909  0.9024  0.5569
   16CHL1    C1 1154   4.513   3.685  10.061  1.2630  0.5815 -0.3894
   16CHL1   H1A 1155   4.479   3.788  10.082  0.2227  0.4182 -1.2610
   16CHL1   H1B 1156   4.425   3.637  10.015  2.4911 -0.3396 -1.8294
   16CHL1    C2 1157   4.545   3.617  10.201  1.0315  0.2866 -0.3447
   16CHL1   H2A 1158   4.461   3.620  10.274  0.7174  0.1557 -0.6941
   16CHL1   H2B 1159   4.614   3.690  10.249  0.9807  1.7581 -2.4463
   16CHL1   C20 1160   4.513   3.955   9.322 -0.4063  0.7551 -0.8163
   16CHL1   H20 1161   4.615   3.999   9.322  0.5285 -1.1986  2.7040
   16CHL1   C21 1162   4.415   4.049   9.391 -1.0691  0.2152 -0.3250
   16CHL1  H21A 1163   4.314   4.004   9.396 -0.1579 -1.8008  0.5617
   16CHL1  H21B 1164   4.410   4.142   9.329 -0.4673  0.0342 -0.6523
   16CHL1  H21C 1165   4.451   4.095   9.486 -1.2184  2.4786 -1.3248
   16CHL1   C22 1166   4.464   3.924   9.181  0.8240 -0.8875  0.3633
   16CHL1  H22A 1167   4.512   3.835   9.134 -0.5798 -0.8191 -1.2155
   16CHL1  H22B 1168   4.357   3.898   9.193  0.2645  0.8206 -0.7015
   16CHL1   C23 1169   4.467   4.051   9.087 -0.1475  0.4577 -0.2241
   16CHL1  H23A 1170   4.414   4.144   9.117  1.3289  2.3979 -3.4316
   16CHL1  H23B 1171   4.568   4.096   9.090 -0.3140  0.8392 -0.3093
   16CHL1   C24 1172   4.432   4.012   8.941 -0.3738 -0.7343  0.4222
   16CHL1  H24A 1173   4.523   3.964   8.900  0.0589  0.1491  0.3401
   16CHL1  H24B 1174   4.348   3.939   8.940 -0.3064 -0.8059  0.0928
   16CHL1   C25 1175   4.397   4.129   8.851 -0.7084 -0.0301  0.1693
   16CHL1   H25 1176   4.468   4.211   8.877 -0.6399  0.1038 -0.4498
   16CHL1   C26 1177   4.397   4.088   8.701  0.2618 -0.0169  0.0397
   16CHL1  H26A 1178   4.493   4.046   8.664  0.0679  2.1567 -3.1462
   16CHL1  H26B 1179   4.315   4.014   8.686  0.8698 -0.5234 -0.7782
   16CHL1  H26C 1180   4.369   4.178   8.643  0.9699  0.1362 -0.0581
   16CHL1   C27 1181   4.257   4.185   8.877 -0.3108 -0.0412 -0.1984
   16CHL1  H27A 1182   4.239   4.270   8.807 -1.5949 -0.6370 -0.5897
   16CHL1  H27B 1183   4.176   4.111   8.863 -1.2850  1.0528 -0.4634
   16CHL1  H27C 1184   4.247   4.239   8.973 -0.5866  0.9362 -0.7629
   17CHL1    C3 1185   0.178   0.884  10.456  0.0948  1.0159 -0.0347
   17CHL1    H3 1186   0.285   0.913  10.452  0.6272 -0.8789 -0.1217
   17CHL1    O3 1187   0.152   0.860  10.598  0.3977 -0.0777  0.4000
   17CHL1   H3' 1188   0.100   0.936  10.623  1.4185  0.9788 -0.5766
   17CHL1    C4 1189   0.090   0.995  10.408  0.2072 -0.2804  0.0754
   17CHL1   H4A 1190  -0.015   0.967  10.431 -0.4333  0.4044 -1.9077
   17CHL1   H4B 1191   0.108   1.093  10.457  0.0356  0.5809 -1.5625
   17CHL1    C5 1192   0.090   1.016  10.259 -0.4845  0.4334  0.1642
   17CHL1    C6 1193   0.133   1.131  10.215 -0.5782 -0.6125  0.5939
   17CHL1    H6 1194   0.150   1.210  10.289 -2.5835  1.4392 -1.0815
   17CHL1    C7 1195   0.136   1.158  10.065  0.5328  0.0797  0.7475
   17CHL1   H7A 1196   0.092   1.255  10.031 -0.9719 -0.9025 -0.1532
   17CHL1   H7B 1197   0.244   1.161  10.040  0.3686 -1.6207 -0.2491
   17CHL1    C8 1198   0.069   1.044   9.973 -0.5365 -0.4168 -0.3837
   17CHL1    H8 1199  -0.039   1.051   9.995 -0.8981 -3.1473 -1.1395
   17CHL1   C14 1200   0.105   1.061   9.828  0.7531  0.4833  0.8328
   17CHL1   H14 1201   0.214   1.045   9.825  0.7546  0.6886 -0.9805
   17CHL1   C15 1202   0.069   1.189   9.763  0.6447 -0.6670 -0.4587
   17CHL1  H15A 1203  -0.036   1.215   9.788  0.4285 -1.2129 -0.7941
   17CHL1  H15B 1204   0.150   1.259   9.792 -0.6846  0.0592  1.6366
   17CHL1   C16 1205   0.080   1.156   9.619  0.4993 -0.1312 -0.1956
   17CHL1  H16A 1206  -0.003   1.212   9.571  0.3420  0.2528  0.5090
   17CHL1  H16B 1207   0.179   1.192   9.584 -0.4343  0.7923 -1.9688
   17CHL1   C17 1208   0.081   1.002   9.599  0.5039  0.2057 -0.2946
   17CHL1   H17 1209   0.191   0.983   9.590  0.5684 -0.1904  1.0967
   17CHL1   C13 1210   0.046   0.947   9.739  0.0521  0.6877  0.1326
   17CHL1   C18 1211  -0.109   0.942   9.760  0.0358 -0.9272  0.0801
   17CHL1  H18A 1212  -0.165   1.036   9.742  2.5028  0.4423 -0.7366
   17CHL1  H18B 1213  -0.141   0.863   9.689  0.2269 -0.9831  0.0577
   17CHL1  H18C 1214  -0.132   0.894   9.857  1.2196 -0.5564  0.5540
   17CHL1   C12 1215   0.121   0.821   9.783 -0.2653  0.1706 -0.5483
   17CHL1  H12A 1216   0.078   0.733   9.731  0.3979 -0.3108 -0.2895
   17CHL1  H12B 1217   0.231   0.831   9.769  0.0252 -2.6099 -0.4393
   17CHL1   C11 1218   0.104   0.790   9.933  0.6547  0.5560  1.1272
   17CHL1  H11A 1219   0.006   0.741   9.951  0.9002 -0.6725 -0.7484
   17CHL1  H11B 1220   0.175   0.706   9.949 -2.4372 -1.7718  3.0158
   17CHL1    C9 1221   0.119   0.912  10.027  0.0654  0.6768  0.2147
   17CHL1    H9 1222   0.228   0.929  10.025  0.1586  0.5373  2.5992
   17CHL1   C10 1223   0.078   0.890  10.173  0.2914 -0.1387 -0.3271
   17CHL1   C19 1224  -0.071   0.847  10.176  0.4041 -0.7611  0.5937
   17CHL1  H19A 1225  -0.127   0.924  10.118 -0.0703 -0.8340  0.9514
   17CHL1  H19B 1226  -0.104   0.749  10.135  0.0858 -0.0542 -0.8999
   17CHL1  H19C 1227  -0.117   0.854  10.277 -3.8774 -0.4011 -1.2433
   17CHL1    C1 1228   0.159   0.769  10.233 -0.3267 -0.1023 -0.0126
   17CHL1   H1A 1229   0.114   0.682  10.180  0.3317  0.1770 -1.0466
   17CHL1   H1B 1230   0.267   0.762  10.207 -0.8561 -2.6596 -1.6202
   17CHL1    C2 1231   0.149   0.752  10.381  0.6067  0.0797 -0.6044
   17CHL1   H2A 1232   0.225   0.680  10.418 -1.0856 -2.5863 -2.1313
   17CHL1   H2B 1233   0.049   0.715  10.413  0.4758 -1.2224 -2.4195
   17CHL1   C20 1234   0.013   0.940   9.473  0.2493 -0.3006  0.4973
   17CHL1   H20 1235  -0.093   0.919   9.498  0.5699 -0.4882  1.7470
   17CHL1   C21 1236   0.097   0.810   9.433  0.0845  0.7087  0.0533
   17CHL1  H21A 1237   0.196   0.839   9.393  0.0322 -1.1171 -1.4338
   17CHL1  H21B 1238   0.038   0.766   9.350  0.4088 -0.9368  0.6949
   17CHL1  H21C 1239   0.098   0.747   9.524 -2.0542  0.0263 -0.3541
   17CHL1   C22 1240   0.018   1.026   9.343  0.5943  0.3601  0.5017
   17CHL1  H22A 1241  -0.027   1.124   9.370 -0.1001 -0.1916  1.3588
   17CHL1  H22B 1242   0.126   1.040   9.319  0.4305 -0.3001 -0.6879
   17CHL1   C23 1243  -0.076   0.981   9.230  0.0162 -0.4881  0.0939
   17CHL1  H23A 1244  -0.032   0.886   9.193  1.8619  0.5487 -0.4481
   17CHL1  H23B 1245  -0.178   0.965   9.270  0.2622 -1.5205  0.3203
   17CHL1   C24 1246  -0.078   1.085   9.119 -0.3849 -0.2888  0.6788
   17CHL1  H24A 1247  -0.125   1.178   9.157  0.9157  0.6188  0.1065
   17CHL1  H24B 1248   0.028   1.102   9.088 -0.1346 -2.1708  0.4660
   17CHL1   C25 1249  -0.139   1.030   8.988  0.1592  0.2409  0.5114
   17CHL1   H25 1250  -0.092   0.931   8.971 -0.6135  0.3565 -2.5851
   17CHL1   C26 1251  -0.290   1.010   8.995  0.6828 -0.3347  0.3928
   17CHL1  H26A 1252  -0.334   0.975   8.899  1.1154 -2.4447  0.9510
   17CHL1  H26B 1253  -0.307   0.939   9.078  0.4764 -0.3615  0.3276
   17CHL1  H26C 1254  -0.350   1.100   9.020  0.4200  0.2011 -1.9709
   17CHL1   C27 1255  -0.093   1.115   8.863 -0.4163 -0.2128 -0.1347
   17CHL1  H27A 1256  -0.132   1.066   8.771  1.7166 -0.2772 -1.0165
   17CHL1  H27B 1257  -0.146   1.212   8.876 -2.4713 -0.9790 -2.4599
   17CHL1  H27C 1258   0.017   1.118   8.876 -0.5000 -3.1634  1.7200
   18CHL1    C3 1259   6.037   6.380  10.085  0.7154  0.0456 -0.7752
   18CHL1    H3 1260   5.929   6.356  10.088  1.0722 -1.3878  1.1600
   18CHL1    O3 1261   6.084   6.364  10.215  0.2933  0.5305  0.4515
   18CHL1   H3' 1262   6.174   6.398  10.210  0.6520  0.1823  3.5865
   18CHL1    C4 1263   6.119   6.272  10.006  0.1333 -0.1439 -0.5931
   18CHL1   H4A 1264   6.224   6.297  10.030  0.0849  0.5177 -1.0561
   18CHL1   H4B 1265   6.102   6.175  10.057 -0.2117  0.4251  0.3834
   18CHL1    C5 1266   6.088   6.273   9.859  0.5017 -0.6332 -0.0557
   18CHL1    C6 1267   6.030   6.165   9.797  0.7206 -0.7376 -0.4617
   18CHL1    H6 1268   6.013   6.073   9.854 -1.3338 -1.6062 -2.4405
   18CHL1    C7 1269   6.003   6.158   9.646 -0.1916 -0.6317 -0.6272
   18CHL1   H7A 1270   6.050   6.064   9.611  1.3396  0.1154 -0.6256
   18CHL1   H7B 1271   5.896   6.161   9.616  0.4614 -2.6519 -3.4313
   18CHL1    C8 1272   6.064   6.273   9.570 -0.5214  0.5062 -0.4547
   18CHL1    H8 1273   6.174   6.254   9.568 -0.6567 -0.7498  2.5393
   18CHL1   C14 1274   5.998   6.291   9.438  0.6650 -0.1869  0.0575
   18CHL1   H14 1275   5.893   6.324   9.452  0.6064  1.8676 -4.4117
   18CHL1   C15 1276   5.988   6.162   9.355 -0.0016 -0.2065 -0.3765
   18CHL1  H15A 1277   6.078   6.096   9.351 -0.6826 -1.2072  0.4238
   18CHL1  H15B 1278   5.898   6.105   9.388 -0.2702  1.7061  2.3456
   18CHL1   C16 1279   5.970   6.209   9.211  0.3022  0.5157  0.7892
   18CHL1  H16A 1280   6.034   6.161   9.134 -0.3299  0.2590  0.4165
   18CHL1  H16B 1281   5.861   6.204   9.188  0.2297  3.3630  0.3203
   18CHL1   C17 1282   5.989   6.366   9.211 -0.6256 -0.2826  0.5094
   18CHL1   H17 1283   5.891   6.411   9.235 -1.2508 -0.8581 -0.9218
   18CHL1   C13 1284   6.069   6.391   9.343 -0.4832 -0.1935 -0.3243
   18CHL1   C18 1285   6.216   6.349   9.311 -0.0595  0.0778 -0.3976
   18CHL1  H18A 1286   6.226   6.244   9.275 -1.1035 -0.1631 -0.0098
   18CHL1  H18B 1287   6.280   6.415   9.248  2.2056 -0.4028  1.3568
   18CHL1  H18C 1288   6.274   6.357   9.405 -0.0919 -0.5854 -0.3159
   18CHL1   C12 1289   6.060   6.531   9.415 -1.3867 -0.3460  1.0566
   18CHL1  H12A 1290   6.129   6.599   9.360 -0.6977 -1.5567  0.4072
   18CHL1  H12B 1291   5.955   6.566   9.419 -1.2624  0.0095  1.2944
   18CHL1   C11 1292   6.122   6.525   9.560  0.1781  0.2831  0.0497
   18CHL1  H11A 1293   6.231   6.509   9.557  0.2210  0.5686  0.0987
   18CHL1  H11B 1294   6.104   6.626   9.602  0.9574  0.5381 -0.2329
   18CHL1    C9 1295   6.057   6.410   9.647  0.0939  0.3067  0.1616
   18CHL1    H9 1296   5.949   6.436   9.653  0.5666  2.3479  0.3440
   18CHL1   C10 1297   6.110   6.407   9.791 -0.2114  0.4997  0.7288
   18CHL1   C19 1298   6.259   6.429   9.788 -0.5126 -0.4714  0.2317
   18CHL1  H19A 1299   6.280   6.535   9.764 -2.2559  0.1133  1.2079
   18CHL1  H19B 1300   6.303   6.415   9.889 -0.7201 -1.9839  0.1285
   18CHL1  H19C 1301   6.312   6.348   9.734  0.3941 -0.3689  0.9708
   18CHL1    C1 1302   6.037   6.514   9.879 -0.2886  0.4193  0.2676
   18CHL1   H1A 1303   6.054   6.615   9.836  2.2254 -0.4828 -0.9378
   18CHL1   H1B 1304   5.928   6.496   9.864 -0.2997  1.9973 -1.7102
   18CHL1    C2 1305   6.068   6.517  10.025  0.1569 -0.5368  0.1478
   18CHL1   H2A 1306   5.994   6.585  10.073 -1.9711 -2.8928  0.3169
   18CHL1   H2B 1307   6.175   6.545  10.027 -0.6123  2.7863 -1.4033
   18CHL1   C20 1308   6.036   6.425   9.076  0.1680 -0.1635 -0.1856
   18CHL1   H20 1309   6.142   6.401   9.051  0.2512  0.0486 -0.0404
   18CHL1   C21 1310   6.022   6.573   9.077 -0.1398  0.0832  0.5348
   18CHL1  H21A 1311   6.046   6.624   8.981 -0.6337  1.6491  1.2188
   18CHL1  H21B 1312   6.092   6.618   9.151 -3.0307  2.9350  1.6401
   18CHL1  H21C 1313   5.922   6.597   9.118 -0.2816  0.4065  0.0137
   18CHL1   C22 1314   5.939   6.372   8.957  0.2067 -0.0892  0.0639
   18CHL1  H22A 1315   5.978   6.415   8.863  0.4917  0.6507  0.5189
   18CHL1  H22B 1316   5.952   6.262   8.956 -2.8338 -0.4938 -2.1890
   18CHL1   C23 1317   5.784   6.390   8.970 -0.0879  0.0003 -0.1103
   18CHL1  H23A 1318   5.759   6.360   9.074  2.4197  1.5947  0.9945
   18CHL1  H23B 1319   5.765   6.498   8.954 -3.0384 -0.7891 -2.5544
   18CHL1   C24 1320   5.703   6.304   8.876  0.5632  0.1055  0.7914
   18CHL1  H24A 1321   5.735   6.329   8.773 -1.1702  0.7114  0.3782
   18CHL1  H24B 1322   5.717   6.197   8.903 -2.3173  0.0269  2.2119
   18CHL1   C25 1323   5.550   6.344   8.884 -0.0328 -0.2659  0.4242
   18CHL1   H25 1324   5.556   6.451   8.855  1.3036 -0.5131 -0.2611
   18CHL1   C26 1325   5.460   6.258   8.784 -0.0080  0.0819  0.6195
   18CHL1  H26A 1326   5.501   6.251   8.681  0.2107  0.9107  0.6471
   18CHL1  H26B 1327   5.455   6.155   8.825 -0.1254  0.5653  1.8392
   18CHL1  H26C 1328   5.356   6.297   8.788  0.5404  1.6169  0.3564
   18CHL1   C27 1329   5.495   6.339   9.024  0.4784  0.2644  0.0857
   18CHL1  H27A 1330   5.543   6.416   9.088 -0.4063 -0.6104  1.8304
   18CHL1  H27B 1331   5.388   6.368   9.019  0.7230  1.8783  3.1347
   18CHL1  H27C 1332   5.504   6.233   9.056  0.6399 -0.1983 -1.4516
   19CHL1    C3 1333   3.348   2.714  10.197  0.4031  0.4988  0.1883
   19CHL1    H3 1334   3.312   2.819  10.181  0.6298  0.7090  1.0665
   19CHL1    O3 1335   3.380   2.696  10.338  0.0447  0.6800 -0.0897
   19CHL1   H3' 1336   3.471   2.721  10.352 -0.3335  0.8218  2.2025
   19CHL1    C4 1337   3.243   2.617  10.147  0.1335  0.8644  0.4531
   19CHL1   H4A 1338   3.273   2.513  10.170  1.0435  0.6685 -1.5706
   19CHL1   H4B 1339   3.145   2.624  10.199 -0.2382 -0.5903 -0.0219
   19CHL1    C5 1340   3.230   2.631   9.998 -0.0140  0.3789 -0.3717
   19CHL1    C6 1341   3.109   2.649   9.931 -0.5810 -0.4976 -0.5101
   19CHL1    H6 1342   3.015   2.645   9.989 -0.6472 -1.0646 -0.6511
   19CHL1    C7 1343   3.084   2.660   9.781 -0.2477  0.6424 -0.3416
   19CHL1   H7A 1344   2.987   2.611   9.756  0.2604 -1.1838  1.0694
   19CHL1   H7B 1345   3.083   2.767   9.752  1.9896  1.0177  0.8494
   19CHL1    C8 1346   3.202   2.588   9.709  0.3545 -0.1713  0.3576
   19CHL1    H8 1347   3.188   2.479   9.720  0.9904 -0.3973 -0.9732
   19CHL1   C14 1348   3.193   2.621   9.557 -0.7678  0.0450 -0.9004
   19CHL1   H14 1349   3.215   2.729   9.553  0.2685 -0.0268  1.8974
   19CHL1   C15 1350   3.062   2.605   9.487  0.2747  0.2138 -0.0978
   19CHL1  H15A 1351   2.998   2.524   9.529  0.5486 -0.3849 -0.8247
   19CHL1  H15B 1352   3.000   2.697   9.491  1.7860  1.3131 -1.5258
   19CHL1   C16 1353   3.097   2.575   9.343 -0.7678  0.0747  0.4118
   19CHL1  H16A 1354   3.068   2.474   9.306 -1.5434 -0.3935  2.2629
   19CHL1  H16B 1355   3.044   2.651   9.282  0.9773  2.3099  1.5973
   19CHL1   C17 1356   3.250   2.589   9.336 -0.1249 -0.7816  0.1776
   19CHL1   H17 1357   3.261   2.697   9.315 -1.5120 -0.9775 -1.6842
   19CHL1   C13 1358   3.294   2.550   9.475  0.3272 -0.6125  0.1629
   19CHL1   C18 1359   3.285   2.390   9.500 -0.8646 -0.8111 -0.0342
   19CHL1  H18A 1360   3.333   2.367   9.598  1.9779 -0.5267 -1.2979
   19CHL1  H18B 1361   3.179   2.366   9.479 -1.0373 -1.0778  1.1050
   19CHL1  H18C 1362   3.354   2.339   9.429  0.1525 -0.4907  0.7113
   19CHL1   C12 1363   3.429   2.608   9.525  0.9423 -0.3841  0.3168
   19CHL1  H12A 1364   3.502   2.562   9.455  2.5523  0.8825  1.1220
   19CHL1  H12B 1365   3.427   2.718   9.510 -0.6157 -0.4974 -0.4062
   19CHL1   C11 1366   3.464   2.580   9.667  0.0765 -0.9850 -0.6412
   19CHL1  H11A 1367   3.476   2.470   9.663  1.5028 -0.7880 -2.2806
   19CHL1  H11B 1368   3.558   2.624   9.705  0.1883 -0.0169 -2.0208
   19CHL1    C9 1369   3.340   2.626   9.760  0.8233 -0.2291  0.3931
   19CHL1    H9 1370   3.336   2.736   9.744 -0.0221 -0.0566  1.7414
   19CHL1   C10 1371   3.354   2.608   9.915 -0.3689  0.4300  0.2655
   19CHL1   C19 1372   3.385   2.456   9.929 -0.4563  0.5598 -0.0492
   19CHL1  H19A 1373   3.313   2.404   9.863 -0.3382 -0.3118  0.4944
   19CHL1  H19B 1374   3.491   2.440   9.897  0.3516  2.9340  1.3673
   19CHL1  H19C 1375   3.395   2.404  10.027 -0.1427  0.7459  0.0203
   19CHL1    C1 1376   3.463   2.708   9.969  0.6576  1.2534  0.8959
   19CHL1   H1A 1377   3.555   2.679   9.914  1.5896  2.5720  1.7354
   19CHL1   H1B 1378   3.422   2.809   9.947 -2.1624  0.3776  1.9763
   19CHL1    C2 1379   3.488   2.699  10.119 -0.4923 -0.5520 -0.7796
   19CHL1   H2A 1380   3.552   2.781  10.157 -2.2590  0.1202  0.8581
   19CHL1   H2B 1381   3.523   2.598  10.150  0.5743  0.4361  1.3045
   19CHL1   C20 1382   3.328   2.528   9.215 -0.3190  0.5634 -0.8747
   19CHL1   H20 1383   3.375   2.430   9.236 -0.3326  0.3470 -1.8603
   19CHL1   C21 1384   3.435   2.623   9.169  1.1449 -0.3823  0.8763
   19CHL1  H21A 1385   3.392   2.707   9.110  0.9261 -0.5450  0.8037
   19CHL1  H21B 1386   3.516   2.576   9.110  0.9048 -0.7168  0.8136
   19CHL1  H21C 1387   3.487   2.677   9.251  0.1923 -1.8182  2.4746
   19CHL1   C22 1388   3.235   2.509   9.093 -0.0004 -0.3306 -0.4778
   19CHL1  H22A 1389   3.163   2.428   9.119 -1.5225  1.0130 -0.4532
   19CHL1  H22B 1390   3.187   2.607   9.074 -0.8080 -0.8549 -1.1867
   19CHL1   C23 1391   3.304   2.472   8.963  0.3654 -0.6413 -0.6455
   19CHL1  H23A 1392   3.393   2.534   8.940  0.8079 -1.3748 -0.9464
   19CHL1  H23B 1393   3.329   2.365   8.980  0.1491 -0.7706 -1.1379
   19CHL1   C24 1394   3.202   2.473   8.841  0.8208  0.1276  0.0910
   19CHL1  H24A 1395   3.241   2.420   8.752  3.8617  0.2948  1.2444
   19CHL1  H24B 1396   3.109   2.426   8.879 -0.1409  0.6508 -1.5952
   19CHL1   C25 1397   3.157   2.610   8.787 -0.2924 -0.1750 -0.3925
   19CHL1   H25 1398   3.075   2.642   8.855  0.6096 -1.9654  1.6261
   19CHL1   C26 1399   3.267   2.713   8.789 -0.1890  0.2628  0.3309
   19CHL1  H26A 1400   3.228   2.816   8.776  1.4680  0.8698  0.0444
   19CHL1  H26B 1401   3.318   2.718   8.888  0.5324  0.4578 -0.0501
   19CHL1  H26C 1402   3.346   2.693   8.714  0.8244 -0.3930  1.5606
   19CHL1   C27 1403   3.107   2.608   8.642  0.5135  0.0867  0.3790
   19CHL1  H27A 1404   3.108   2.712   8.603  0.4238  0.5370  1.5530
   19CHL1  H27B 1405   3.183   2.562   8.575 -0.4531 -1.0009  0.0034
   19CHL1  H27C 1406   3.015   2.547   8.629  0.0803  0.8798 -0.3455
   20CHL1    C3 1407   5.606   3.626  10.379 -0.1071 -0.5439  0.1347
   20CHL1    H3 1408   5.506   3.669  10.353  0.4476  1.9993  1.9652
   20CHL1    O3 1409   5.633   3.647  10.519  1.0451  0.3018  0.2368
   20CHL1   H3' 1410   5.727   3.625  10.513  1.0908  0.5379  0.0913
   20CHL1    C4 1411   5.613   3.481  10.333 -0.1917 -0.0494  0.6648
   20CHL1   H4A 1412   5.717   3.443  10.343 -1.0498 -3.6650 -2.8343
   20CHL1   H4B 1413   5.542   3.426  10.398  1.1062 -0.6335  1.6121
   20CHL1    C5 1414   5.581   3.469  10.184 -0.6239 -0.0502 -0.0741
   20CHL1    C6 1415   5.477   3.389  10.140  0.1730 -0.3250 -0.1505
   20CHL1    H6 1416   5.428   3.326  10.216  0.5410 -0.2984  0.1104
   20CHL1    C7 1417   5.436   3.371   9.999 -0.5204  0.1419  0.0112
   20CHL1   H7A 1418   5.431   3.263   9.976  3.4681 -0.1768  0.2293
   20CHL1   H7B 1419   5.342   3.424   9.971 -0.0843  0.9169 -0.0199
   20CHL1    C8 1420   5.547   3.429   9.904  0.4005  0.1305  0.0141
   20CHL1    H8 1421   5.632   3.357   9.905  1.1552  0.9845  1.9882
   20CHL1   C14 1422   5.486   3.437   9.762 -0.1125  0.8437  0.0134
   20CHL1   H14 1423   5.396   3.501   9.770 -0.5194  0.2246  0.4174
   20CHL1   C15 1424   5.439   3.312   9.690 -0.5417 -0.3699  0.1377
   20CHL1  H15A 1425   5.498   3.226   9.729 -0.3044 -0.1176  0.3350
   20CHL1  H15B 1426   5.331   3.291   9.703 -1.3855  3.7062  0.1859
   20CHL1   C16 1427   5.468   3.331   9.545 -0.4191 -0.2122  0.0515
   20CHL1  H16A 1428   5.534   3.250   9.508 -0.2778 -0.7765  1.5456
   20CHL1  H16B 1429   5.377   3.319   9.483  1.8910 -1.3748 -3.2789
   20CHL1   C17 1430   5.531   3.468   9.531 -0.2042  0.1824  0.1533
   20CHL1   H17 1431   5.442   3.534   9.520  0.0629  0.9133  2.1345
   20CHL1   C13 1432   5.589   3.501   9.669  0.3631 -0.2150 -0.3933
   20CHL1   C18 1433   5.727   3.429   9.667 -0.2757  0.3199  0.2458
   20CHL1  H18A 1434   5.726   3.327   9.625  1.0770  0.8473 -1.1221
   20CHL1  H18B 1435   5.801   3.491   9.611  0.3200 -0.1509  0.5083
   20CHL1  H18C 1436   5.763   3.430   9.773  2.2028  0.2195 -0.5693
   20CHL1   C12 1437   5.595   3.649   9.712  0.0122 -0.8221 -0.3724
   20CHL1  H12A 1438   5.647   3.703   9.630 -0.8455  0.3556 -0.1529
   20CHL1  H12B 1439   5.494   3.695   9.723  0.6294  0.1445  1.5250
   20CHL1   C11 1440   5.665   3.661   9.846 -0.1458 -0.3345 -0.9135
   20CHL1  H11A 1441   5.774   3.641   9.844  0.3513  1.9234  1.4150
   20CHL1  H11B 1442   5.659   3.768   9.875  1.0273 -0.4290 -0.3264
   20CHL1    C9 1443   5.595   3.567   9.949 -0.2251 -0.5345 -0.9103
   20CHL1    H9 1444   5.500   3.619   9.975  2.0889  2.4179  1.9748
   20CHL1   C10 1445   5.665   3.558  10.089 -0.3428  0.0131  0.2380
   20CHL1   C19 1446   5.804   3.499  10.074  0.5773 -0.1211 -0.1217
   20CHL1  H19A 1447   5.862   3.578  10.023  0.2843  0.7078  0.7957
   20CHL1  H19B 1448   5.862   3.482  10.167  0.5503 -3.2146 -0.6210
   20CHL1  H19C 1449   5.795   3.406  10.014  2.0248 -0.8170  0.7162
   20CHL1    C1 1450   5.677   3.697  10.147  0.2901  0.7031  0.1724
   20CHL1   H1A 1451   5.759   3.759  10.107 -1.2733  2.2491 -0.6570
   20CHL1   H1B 1452   5.579   3.746  10.129  1.3330  2.0212 -2.0437
   20CHL1    C2 1453   5.710   3.708  10.294 -0.5562 -0.1739 -0.2551
   20CHL1   H2A 1454   5.710   3.813  10.331 -0.2540  0.2315 -1.4043
   20CHL1   H2B 1455   5.810   3.662  10.310  0.5705  1.1618 -3.0177
   20CHL1   C20 1456   5.610   3.465   9.396 -1.0696 -0.1364 -0.1927
   20CHL1   H20 1457   5.697   3.397   9.410 -1.5907 -1.0989 -1.5473
   20CHL1   C21 1458   5.658   3.611   9.387 -0.5840  0.0165  0.2067
   20CHL1  H21A 1459   5.702   3.627   9.287 -2.5036 -1.8005 -0.9603
   20CHL1  H21B 1460   5.743   3.636   9.454  0.4174  0.8844 -1.3822
   20CHL1  H21C 1461   5.576   3.680   9.416  0.3766  1.3246 -0.1370
   20CHL1   C22 1462   5.531   3.416   9.270  0.3162  0.6736 -0.2071
   20CHL1  H22A 1463   5.479   3.318   9.278  2.1666 -0.3864 -0.8997
   20CHL1  H22B 1464   5.457   3.497   9.251  0.1896  0.5008 -0.4503
   20CHL1   C23 1465   5.626   3.405   9.140  0.3373 -0.0330  0.8024
   20CHL1  H23A 1466   5.671   3.502   9.109 -1.7399  0.3055 -1.2507
   20CHL1  H23B 1467   5.696   3.326   9.174 -2.2040 -2.2652  1.0172
   20CHL1   C24 1468   5.538   3.349   9.023 -0.5634  0.5624 -0.3126
   20CHL1  H24A 1469   5.469   3.276   9.072  0.4480 -0.1948  0.0152
   20CHL1  H24B 1470   5.473   3.423   8.972  1.7034  1.9098 -1.3306
   20CHL1   C25 1471   5.621   3.278   8.918 -0.2975  0.3903  0.4406
   20CHL1   H25 1472   5.717   3.332   8.903  0.3638 -0.7199  0.6412
   20CHL1   C26 1473   5.661   3.133   8.956  0.2360 -0.4189  0.0835
   20CHL1  H26A 1474   5.699   3.079   8.866 -1.7202  0.1075 -1.0946
   20CHL1  H26B 1475   5.733   3.129   9.041 -0.1116 -0.0485  0.3965
   20CHL1  H26C 1476   5.571   3.071   8.972 -0.4830 -0.3278 -3.2476
   20CHL1   C27 1477   5.563   3.291   8.778 -0.0695  0.0818  0.3890
   20CHL1  H27A 1478   5.632   3.255   8.699 -0.8799 -2.5490  0.8493
   20CHL1  H27B 1479   5.469   3.235   8.764  0.5611 -0.8005 -0.3654
   20CHL1  H27C 1480   5.562   3.398   8.746 -1.7512 -0.0342  0.0503
   21CHL1    C3 1481   5.142   6.282  10.343 -0.3677  0.1112  0.6799
   21CHL1    H3 1482   5.234   6.250  10.290 -1.0123 -2.4301  1.0334
   21CHL1    O3 1483   5.135   6.220  10.469  0.5062 -0.1995 -0.5587
   21CHL1   H3' 1484   5.140   6.287  10.538 -1.4786 -0.2997 -0.2815
   21CHL1    C4 1485   5.135   6.429  10.353  0.2315 -0.2226 -0.6277
   21CHL1   H4A 1486   5.041   6.441  10.410 -0.5605 -0.8398 -1.7785
   21CHL1   H4B 1487   5.219   6.467  10.415 -1.4539  1.1873  0.8139
   21CHL1    C5 1488   5.122   6.498  10.218 -0.0908 -0.3064  0.3828
   21CHL1    C6 1489   5.201   6.602  10.185 -0.1506 -0.2099  0.1393
   21CHL1    H6 1490   5.249   6.648  10.272 -0.0736 -0.4105  0.2049
   21CHL1    C7 1491   5.223   6.659  10.047  0.3621  0.5223 -1.6228
   21CHL1   H7A 1492   5.200   6.767  10.059 -0.5600  0.1275  0.3528
   21CHL1   H7B 1493   5.326   6.641  10.010  0.7034  0.4212 -0.6378
   21CHL1    C8 1494   5.127   6.616   9.937 -0.4808  0.1799 -0.8407
   21CHL1    H8 1495   5.031   6.671   9.940 -0.1904  0.8304 -2.6292
   21CHL1   C14 1496   5.197   6.635   9.805 -0.0283 -0.4084  0.0573
   21CHL1   H14 1497   5.289   6.573   9.809  0.3120  0.0171 -0.9344
   21CHL1   C15 1498   5.252   6.780   9.770  0.3960 -0.0328  0.1497
   21CHL1  H15A 1499   5.175   6.855   9.796  2.1107  1.6282  0.5853
   21CHL1  H15B 1500   5.342   6.808   9.829 -1.9932  0.7165  3.5840
   21CHL1   C16 1501   5.277   6.777   9.618 -0.5155  0.3590  0.0715
   21CHL1  H16A 1502   5.239   6.875   9.579 -1.3990  0.2049  0.5197
   21CHL1  H16B 1503   5.386   6.772   9.601 -0.7843 -2.5936 -0.9924
   21CHL1   C17 1504   5.216   6.646   9.568  0.4809 -0.2279  0.7882
   21CHL1   H17 1505   5.297   6.570   9.572 -0.3785 -1.1959  0.0421
   21CHL1   C13 1506   5.116   6.598   9.682  0.1216  0.3644  0.3118
   21CHL1   C18 1507   4.984   6.676   9.665 -0.4663  0.0086 -0.3493
   21CHL1  H18A 1508   4.926   6.655   9.572 -1.1641  0.4799 -0.0217
   21CHL1  H18B 1509   4.915   6.654   9.749  0.0529  2.3063  0.7271
   21CHL1  H18C 1510   5.010   6.784   9.679 -2.4579  0.6309 -1.3283
   21CHL1   C12 1511   5.093   6.439   9.699  0.3078  0.0904  0.0442
   21CHL1  H12A 1512   5.033   6.394   9.618  2.3271  1.1475 -2.1068
   21CHL1  H12B 1513   5.191   6.386   9.697  0.5360  0.5169 -0.5518
   21CHL1   C11 1514   5.021   6.408   9.837  0.1797 -0.4036 -0.7461
   21CHL1  H11A 1515   4.917   6.447   9.834 -0.1432 -1.2790 -1.1070
   21CHL1  H11B 1516   5.018   6.298   9.852 -1.6261 -0.2281  0.3928
   21CHL1    C9 1517   5.099   6.467   9.958  0.5449  0.3426  0.1999
   21CHL1    H9 1518   5.199   6.419   9.955  1.1079  1.5992 -1.3015
   21CHL1   C10 1519   5.037   6.431  10.100 -0.1044  0.2744  0.3191
   21CHL1   C19 1520   4.890   6.491  10.113  0.0242  0.2427 -0.5903
   21CHL1  H19A 1521   4.824   6.471  10.025  0.2342  0.4347 -0.7900
   21CHL1  H19B 1522   4.829   6.469  10.203 -0.3245  0.5903 -0.7365
   21CHL1  H19C 1523   4.894   6.602  10.113  2.1921  0.1874 -1.8298
   21CHL1    C1 1524   5.037   6.274  10.117  0.7300  0.3440 -0.8261
   21CHL1   H1A 1525   4.953   6.228  10.061  0.7949 -1.4726  0.5021
   21CHL1   H1B 1526   5.135   6.231  10.087  1.5501  1.7982 -0.2953
   21CHL1    C2 1527   5.022   6.230  10.260  0.6985 -0.0240  0.1629
   21CHL1   H2A 1528   5.011   6.120  10.258 -2.4210  0.2585 -2.4363
   21CHL1   H2B 1529   4.933   6.272  10.312  0.2277  0.2822 -0.8759
   21CHL1   C20 1530   5.171   6.658   9.418 -0.0587  0.2154 -0.2464
   21CHL1   H20 1531   5.088   6.731   9.417  0.5551  0.9305  0.2333
   21CHL1   C21 1532   5.111   6.524   9.374  0.3092 -0.1920 -0.0544
   21CHL1  H21A 1533   5.028   6.483   9.435  0.8518  0.7668  1.3548
   21CHL1  H21B 1534   5.189   6.445   9.371  0.0142 -0.4551 -0.8144
   21CHL1  H21C 1535   5.053   6.539   9.281 -1.7076  1.3278  1.3965
   21CHL1   C22 1536   5.291   6.699   9.330 -0.9585  0.2194  0.9047
   21CHL1  H22A 1537   5.329   6.803   9.343 -1.5496  0.5955 -0.3538
   21CHL1  H22B 1538   5.375   6.632   9.358 -0.3771 -0.4054 -2.1705
   21CHL1   C23 1539   5.279   6.684   9.176 -0.2798  0.3778 -0.4153
   21CHL1  H23A 1540   5.364   6.745   9.137  0.2840  0.0919  0.3545
   21CHL1  H23B 1541   5.294   6.580   9.140  1.3049  0.6946 -0.7419
   21CHL1   C24 1542   5.152   6.752   9.110  0.3171 -0.5043 -0.1294
   21CHL1  H24A 1543   5.063   6.688   9.123 -0.4774  0.8658  1.2926
   21CHL1  H24B 1544   5.136   6.851   9.158  2.0850 -0.2845  0.0503
   21CHL1   C25 1545   5.176   6.764   8.955 -0.8022 -0.2416  0.2112
   21CHL1   H25 1546   5.273   6.814   8.931 -1.8385  2.7975  2.0683
   21CHL1   C26 1547   5.185   6.625   8.885 -0.5601  0.2589  0.2072
   21CHL1  H26A 1548   5.274   6.567   8.919  1.3413  1.9953 -1.6669
   21CHL1  H26B 1549   5.097   6.557   8.886 -0.2874 -0.1082  1.5886
   21CHL1  H26C 1550   5.220   6.639   8.781  0.4089 -0.1131  0.4682
   21CHL1   C27 1551   5.070   6.854   8.880  0.3038 -0.1103  0.2502
   21CHL1  H27A 1552   4.967   6.820   8.904 -0.2777 -0.7885 -2.9636
   21CHL1  H27B 1553   5.074   6.952   8.932 -1.8783  0.4370 -0.5783
   21CHL1  H27C 1554   5.088   6.848   8.771 -1.9753 -0.5006 -0.1313
   22CHL1    C3 1555   4.835   0.688  10.002  1.1785 -0.5371  0.0409
   22CHL1    H3 1556   4.897   0.596   9.998 -0.8961 -1.8644 -2.4737
   22CHL1    O3 1557   4.810   0.706  10.144 -0.4259 -0.5933  0.5094
   22CHL1   H3' 1558   4.782   0.798  10.155  2.9577  0.5529 -0.0340
   22CHL1    C4 1559   4.904   0.812   9.938  0.4983 -0.3085 -0.0197
   22CHL1   H4A 1560   4.849   0.905   9.966  1.3983  0.0542  0.5447
   22CHL1   H4B 1561   5.004   0.822   9.986 -0.3269 -1.7968  2.1103
   22CHL1    C5 1562   4.909   0.796   9.787 -0.2380 -0.0715  0.8952
   22CHL1    C6 1563   5.022   0.805   9.723 -0.7251  0.0869  0.9107
   22CHL1    H6 1564   5.115   0.810   9.782  0.5419 -2.1961 -0.8145
   22CHL1    C7 1565   5.038   0.793   9.567  0.2584 -0.4871  0.0280
   22CHL1   H7A 1566   5.120   0.860   9.534  0.4913  0.1554  1.8641
   22CHL1   H7B 1567   5.075   0.691   9.546  0.3925 -0.1933 -1.1904
   22CHL1    C8 1568   4.904   0.811   9.496 -0.3466 -0.1080  0.8520
   22CHL1    H8 1569   4.872   0.918   9.498 -3.3476 -0.9107 -0.7061
   22CHL1   C14 1570   4.914   0.755   9.354  0.0538  0.3227  0.5688
   22CHL1   H14 1571   4.943   0.649   9.371  2.6856  0.5450 -2.2022
   22CHL1   C15 1572   5.023   0.810   9.265 -0.4776  0.0393  0.5069
   22CHL1  H15A 1573   5.018   0.920   9.282  0.3775  0.3512 -1.1387
   22CHL1  H15B 1574   5.126   0.773   9.284  1.3466  4.0721 -1.0365
   22CHL1   C16 1575   4.983   0.772   9.122 -0.4893 -0.0982 -0.2997
   22CHL1  H16A 1576   4.988   0.864   9.060  1.6187  0.0411  0.0501
   22CHL1  H16B 1577   5.045   0.694   9.073 -1.7240 -1.2940 -0.0039
   22CHL1   C17 1578   4.831   0.716   9.132  0.2444 -0.0434  0.9264
   22CHL1   H17 1579   4.826   0.606   9.146 -0.3085 -0.0330  0.8364
   22CHL1   C13 1580   4.783   0.769   9.269 -0.0017  0.3383  0.0354
   22CHL1   C18 1581   4.741   0.918   9.255  0.4971  0.4339  0.0796
   22CHL1  H18A 1582   4.814   0.971   9.189  0.5239 -0.6536 -0.7853
   22CHL1  H18B 1583   4.650   0.920   9.192  0.2674  2.3827  0.4512
   22CHL1  H18C 1584   4.726   0.975   9.349  0.3863  0.3907  0.0871
   22CHL1   C12 1585   4.672   0.692   9.344 -0.8645  0.2699  0.0673
   22CHL1  H12A 1586   4.568   0.690   9.305 -0.2173 -2.0612 -1.6999
   22CHL1  H12B 1587   4.708   0.586   9.342 -2.5137 -0.2881 -0.4187
   22CHL1   C11 1588   4.660   0.735   9.486 -0.6148  0.5777 -0.0655
   22CHL1  H11A 1589   4.606   0.832   9.493 -1.6114  0.0762 -0.7508
   22CHL1  H11B 1590   4.593   0.660   9.533  0.0137 -0.0746 -0.2145
   22CHL1    C9 1591   4.795   0.736   9.571  0.5139 -0.1330 -0.5621
   22CHL1    H9 1592   4.819   0.627   9.568  0.1757 -0.2469  0.7707
   22CHL1   C10 1593   4.778   0.772   9.723  0.5337 -0.2473 -0.0061
   22CHL1   C19 1594   4.692   0.911   9.730 -0.2439 -0.1027 -0.3235
   22CHL1  H19A 1595   4.697   0.954   9.833  0.4150 -2.0557  0.4881
   22CHL1  H19B 1596   4.719   0.974   9.643 -0.2383 -2.2909 -1.9481
   22CHL1  H19C 1597   4.585   0.886   9.712 -0.7752  1.1670  0.9746
   22CHL1    C1 1598   4.707   0.640   9.790  0.2795  0.0126  0.0758
   22CHL1   H1A 1599   4.612   0.605   9.745  0.1896 -1.7221  1.5664
   22CHL1   H1B 1600   4.773   0.553   9.766  0.8318  0.7325 -1.0697
   22CHL1    C2 1601   4.703   0.648   9.940  0.4352 -0.0549 -0.3264
   22CHL1   H2A 1602   4.676   0.550   9.984  1.2554  1.0315  2.7114
   22CHL1   H2B 1603   4.634   0.731   9.968  1.0896  0.2595  0.3834
   22CHL1   C20 1604   4.753   0.744   9.007  0.0961  0.7115 -0.0326
   22CHL1   H20 1605   4.736   0.853   8.990 -1.7695  0.4331 -0.1143
   22CHL1   C21 1606   4.620   0.663   9.006  0.1664 -0.0755 -0.9312
   22CHL1  H21A 1607   4.548   0.708   9.078  1.7137  1.4825 -0.3303
   22CHL1  H21B 1608   4.638   0.555   9.025 -1.2169  0.1452  1.8815
   22CHL1  H21C 1609   4.571   0.666   8.907  2.2274 -1.1804 -2.0175
   22CHL1   C22 1610   4.823   0.712   8.870  0.3593 -0.3765 -1.2217
   22CHL1  H22A 1611   4.758   0.740   8.784  1.6162  1.9874 -1.4597
   22CHL1  H22B 1612   4.916   0.773   8.861 -0.0262  0.3699 -0.1605
   22CHL1   C23 1613   4.863   0.566   8.851 -0.5489  0.5562  0.2331
   22CHL1  H23A 1614   4.947   0.526   8.912 -1.6150  0.4269  1.6570
   22CHL1  H23B 1615   4.777   0.500   8.878 -0.3485 -0.1020 -0.7124
   22CHL1   C24 1616   4.936   0.535   8.716 -0.2750  0.1963 -0.8953
   22CHL1  H24A 1617   4.881   0.575   8.628  0.4201 -3.4162 -3.0601
   22CHL1  H24B 1618   5.038   0.577   8.714  0.0891 -0.5113  1.6108
   22CHL1   C25 1619   4.957   0.391   8.676  0.1872  0.5061 -0.4322
   22CHL1   H25 1620   5.042   0.351   8.735 -0.5421 -0.2385  0.1325
   22CHL1   C26 1621   4.838   0.299   8.706  0.2491  0.7039 -1.2633
   22CHL1  H26A 1622   4.841   0.205   8.645 -1.0561  1.4634 -2.5411
   22CHL1  H26B 1623   4.825   0.271   8.812  0.7113 -0.9840 -1.6235
   22CHL1  H26C 1624   4.750   0.357   8.670 -0.5687  0.5283  0.4394
   22CHL1   C27 1625   4.978   0.372   8.524 -0.1712 -0.1568  0.0774
   22CHL1  H27A 1626   5.010   0.268   8.503  3.5683  0.9255  0.0051
   22CHL1  H27B 1627   4.888   0.400   8.465  0.0952  1.7596  0.5379
   22CHL1  H27C 1628   5.065   0.436   8.497 -2.7390  2.2315 -2.9387
   23CHL1    C3 1629   0.954   2.660  10.187  0.2282 -0.1104 -0.2282
   23CHL1    H3 1630   0.866   2.675  10.121  0.7188  0.9486 -0.6480
   23CHL1    O3 1631   0.935   2.707  10.315  0.0879  0.1644  0.0047
   23CHL1   H3' 1632   1.012   2.688  10.368  1.4494  0.4551 -1.8461
   23CHL1    C4 1633   0.981   2.506  10.200 -0.1019 -0.0186 -0.0162
   23CHL1   H4A 1634   1.064   2.499  10.274  0.8533 -1.5566 -1.1787
   23CHL1   H4B 1635   0.891   2.457  10.244 -0.2055  0.8640  0.7600
   23CHL1    C5 1636   1.025   2.442  10.069  0.1861 -0.3405 -0.7060
   23CHL1    C6 1637   0.963   2.333  10.017 -0.8650  0.3360 -0.1462
   23CHL1    H6 1638   0.878   2.290  10.073 -1.4424 -1.6156 -2.4288
   23CHL1    C7 1639   0.996   2.276   9.883  0.4208  0.2369 -0.1346
   23CHL1   H7A 1640   0.998   2.166   9.895 -0.0508  0.2450 -0.0072
   23CHL1   H7B 1641   0.902   2.298   9.827  1.7880  0.9581 -2.2271
   23CHL1    C8 1642   1.120   2.336   9.806 -0.3514 -0.4749  0.1283
   23CHL1    H8 1643   1.210   2.290   9.853  0.4997 -1.8860 -2.7813
   23CHL1   C14 1644   1.106   2.308   9.652 -0.2826 -0.5803 -0.8072
   23CHL1   H14 1645   1.019   2.370   9.623 -0.6824 -1.4915 -1.5980
   23CHL1   C15 1646   1.069   2.161   9.607  1.0029 -0.2398  0.1971
   23CHL1  H15A 1647   1.128   2.091   9.670 -2.2065 -1.5455  1.8604
   23CHL1  H15B 1648   0.959   2.146   9.609  1.0563 -0.5474  1.0442
   23CHL1   C16 1649   1.120   2.162   9.462 -0.1712  0.3008 -0.1724
   23CHL1  H16A 1650   1.193   2.079   9.447  0.2361  0.8427 -1.2892
   23CHL1  H16B 1651   1.032   2.150   9.396 -0.4828 -1.0741  0.4657
   23CHL1   C17 1652   1.195   2.293   9.426  0.8550 -0.0110 -0.1875
   23CHL1   H17 1653   1.109   2.355   9.391  0.5823  0.6188  1.5583
   23CHL1   C13 1654   1.235   2.353   9.565 -1.0818 -0.1042  0.7958
   23CHL1   C18 1655   1.359   2.274   9.616 -0.3427  0.1937 -0.7735
   23CHL1  H18A 1656   1.453   2.282   9.557  0.6244 -1.2066  0.5454
   23CHL1  H18B 1657   1.399   2.322   9.708 -0.8753 -0.2101 -0.3277
   23CHL1  H18C 1658   1.331   2.168   9.635  0.5789  0.1334  0.3347
   23CHL1   C12 1659   1.257   2.503   9.592  1.2182  0.4124 -0.3401
   23CHL1  H12A 1660   1.361   2.522   9.560  0.7858  0.8744 -1.5114
   23CHL1  H12B 1661   1.180   2.556   9.531  0.2082 -1.7042 -0.9473
   23CHL1   C11 1662   1.258   2.536   9.747  0.2205 -0.9914 -0.4380
   23CHL1  H11A 1663   1.355   2.506   9.790 -0.3041 -1.8599  0.1550
   23CHL1  H11B 1664   1.258   2.647   9.752  2.4162 -0.9647 -0.5610
   23CHL1    C9 1665   1.139   2.482   9.834 -0.3183  0.3246  0.1422
   23CHL1    H9 1666   1.054   2.529   9.779  0.0003  1.3890  0.5545
   23CHL1   C10 1667   1.127   2.527   9.979  0.1288 -0.1535  0.0288
   23CHL1   C19 1668   1.269   2.495  10.046  0.6422 -0.1219  0.0130
   23CHL1  H19A 1669   1.285   2.523  10.152 -0.6151  0.4717  0.0600
   23CHL1  H19B 1670   1.286   2.385  10.050  1.4658  0.0696  3.9870
   23CHL1  H19C 1671   1.354   2.542   9.993  0.0477 -0.6821 -1.4585
   23CHL1    C1 1672   1.094   2.681   9.985 -0.0529 -0.4219 -0.0798
   23CHL1   H1A 1673   1.173   2.740   9.933 -0.4689 -1.9518 -2.5292
   23CHL1   H1B 1674   1.005   2.704   9.922  0.2630  1.1364  0.0220
   23CHL1    C2 1675   1.070   2.730  10.130 -0.0877 -0.3646 -0.1461
   23CHL1   H2A 1676   1.062   2.841  10.125  0.6939 -0.3612 -1.6369
   23CHL1   H2B 1677   1.158   2.703  10.193  1.6184  1.1916 -1.8067
   23CHL1   C20 1678   1.308   2.283   9.313 -0.3163 -1.0235  0.0972
   23CHL1   H20 1679   1.397   2.231   9.354 -0.1342 -2.3668 -1.9205
   23CHL1   C21 1680   1.336   2.429   9.272  0.1654  0.0601 -0.0738
   23CHL1  H21A 1681   1.237   2.473   9.247 -0.2740  0.6074  2.5423
   23CHL1  H21B 1682   1.401   2.449   9.184  1.1066  0.1010  0.6202
   23CHL1  H21C 1683   1.385   2.479   9.358 -0.1511 -0.1756  0.2430
   23CHL1   C22 1684   1.267   2.200   9.185  0.7475  0.1164 -0.4133
   23CHL1  H22A 1685   1.212   2.107   9.211  2.7980 -0.6232  1.4759
   23CHL1  H22B 1686   1.198   2.266   9.127  1.1401  3.6275  2.8765
   23CHL1   C23 1687   1.375   2.172   9.081 -0.2350  0.4339  0.2693
   23CHL1  H23A 1688   1.432   2.263   9.054 -2.6804  1.5759 -1.1466
   23CHL1  H23B 1689   1.450   2.107   9.132  1.1788 -0.2804 -2.6274
   23CHL1   C24 1690   1.338   2.099   8.949  0.5548  0.3565 -0.6549
   23CHL1  H24A 1691   1.432   2.052   8.912 -1.0842 -2.5261 -1.3916
   23CHL1  H24B 1692   1.279   2.007   8.971  0.8126 -0.1191 -1.8652
   23CHL1   C25 1693   1.281   2.189   8.842  0.7225  0.4010  0.0798
   23CHL1   H25 1694   1.179   2.217   8.875 -0.7191 -0.9866 -2.9875
   23CHL1   C26 1695   1.354   2.314   8.814  0.4873 -0.6182  0.2680
   23CHL1  H26A 1696   1.345   2.384   8.899  1.5571 -0.2360  0.0737
   23CHL1  H26B 1697   1.463   2.299   8.801  0.1613 -2.2129 -0.8223
   23CHL1  H26C 1698   1.311   2.350   8.718  0.3961  1.6618  1.1349
   23CHL1   C27 1699   1.254   2.114   8.711  0.1215  0.5153 -0.7643
   23CHL1  H27A 1700   1.182   2.168   8.646  1.0788  2.0030 -0.6215
   23CHL1  H27B 1701   1.350   2.105   8.655  0.2481  0.7744 -0.5899
   23CHL1  H27C 1702   1.218   2.010   8.722 -0.7624  0.9632  0.6733
   24CHL1    C3 1703   3.101   3.005  10.131  0.5477 -0.4146  0.1675
   24CHL1    H3 1704   3.112   2.895  10.120 -1.5200 -0.7153  0.9860
   24CHL1    O3 1705   3.077   3.017  10.271  0.2155  0.3439 -0.2007
   24CHL1   H3' 1706   3.080   3.112  10.282 -0.7529  0.3113  0.4694
   24CHL1    C4 1707   3.228   3.085  10.079  0.3062  0.1046  0.3439
   24CHL1   H4A 1708   3.207   3.191  10.107  0.0167  0.8371 -2.4596
   24CHL1   H4B 1709   3.316   3.062  10.142  1.0286  0.7230 -0.4217
   24CHL1    C5 1710   3.254   3.091   9.934 -0.6393  1.2916  0.4665
   24CHL1    C6 1711   3.386   3.070   9.890  0.3025  0.3118 -0.2682
   24CHL1    H6 1712   3.476   3.062   9.953 -0.5304 -0.5561  0.8364
   24CHL1    C7 1713   3.413   3.065   9.743  0.2690  0.0786  0.2223
   24CHL1   H7A 1714   3.506   3.122   9.721  1.2091 -1.2991  0.5782
   24CHL1   H7B 1715   3.426   2.956   9.728  1.3458  0.4599 -1.6431
   24CHL1    C8 1716   3.308   3.123   9.647 -0.1239 -0.0127  0.2355
   24CHL1    H8 1717   3.312   3.233   9.665  1.1627 -0.3064  1.8935
   24CHL1   C14 1718   3.331   3.075   9.502  1.0709  0.6774 -0.1302
   24CHL1   H14 1719   3.319   2.965   9.502  3.6822  0.3511 -0.7596
   24CHL1   C15 1720   3.474   3.088   9.447 -0.7917  0.1933 -0.6653
   24CHL1  H15A 1721   3.520   3.188   9.465  0.4091 -0.5892  0.6655
   24CHL1  H15B 1722   3.544   3.016   9.494 -0.5345 -0.7655 -2.4441
   24CHL1   C16 1723   3.454   3.074   9.298 -0.2618 -0.4458  0.1012
   24CHL1  H16A 1724   3.512   3.155   9.251  0.3718  0.1431  1.8526
   24CHL1  H16B 1725   3.509   2.983   9.266  0.9979  0.0799  0.7327
   24CHL1   C17 1726   3.298   3.064   9.276  0.6122 -0.1651 -0.1961
   24CHL1   H17 1727   3.269   2.958   9.293 -0.9270  0.4453  1.1248
   24CHL1   C13 1728   3.234   3.135   9.403  1.1343 -0.7498 -0.1375
   24CHL1   C18 1729   3.249   3.292   9.386  0.0530  0.5083 -0.7111
   24CHL1  H18A 1730   3.351   3.311   9.347 -0.5062  0.7229 -2.1208
   24CHL1  H18B 1731   3.180   3.326   9.305 -0.7930  0.1403 -0.1457
   24CHL1  H18C 1732   3.221   3.340   9.482 -1.2414 -1.7201  0.0606
   24CHL1   C12 1733   3.088   3.098   9.443  0.4920  0.7919 -0.2238
   24CHL1  H12A 1734   3.020   3.146   9.370  1.8927  2.5460 -0.4012
   24CHL1  H12B 1735   3.075   2.990   9.419 -2.1433  0.8588  0.6908
   24CHL1   C11 1736   3.060   3.135   9.590  0.4143 -0.4180 -0.8896
   24CHL1  H11A 1737   3.058   3.247   9.590 -0.6119 -0.4131  1.1628
   24CHL1  H11B 1738   2.963   3.103   9.631 -0.1500 -0.3452 -2.1488
   24CHL1    C9 1739   3.168   3.082   9.696  0.0517  0.2490  0.3611
   24CHL1    H9 1740   3.158   2.972   9.685  0.5178  0.0105  2.2229
   24CHL1   C10 1741   3.132   3.115   9.843 -0.0505  0.4207 -0.8368
   24CHL1   C19 1742   3.102   3.268   9.856  0.4102 -0.2117 -0.4913
   24CHL1  H19A 1743   3.002   3.283   9.811  0.6555  1.2494 -0.5456
   24CHL1  H19B 1744   3.104   3.302   9.962 -1.5491  1.2292 -0.9023
   24CHL1  H19C 1745   3.168   3.342   9.805  1.1297 -0.6146 -0.1616
   24CHL1    C1 1746   3.007   3.040   9.894  0.1937 -0.6229  0.0667
   24CHL1   H1A 1747   2.918   3.081   9.842 -1.7296 -3.8331  0.6525
   24CHL1   H1B 1748   3.010   2.930   9.876  3.4724 -0.6977  0.8419
   24CHL1    C2 1749   2.976   3.040  10.050 -0.2917 -0.3757 -0.0037
   24CHL1   H2A 1750   2.895   2.966  10.070 -0.0471 -0.7148 -0.2668
   24CHL1   H2B 1751   2.947   3.145  10.074 -0.7309 -0.7189  1.0047
   24CHL1   C20 1752   3.248   3.094   9.135 -0.6451  0.2251 -0.4958
   24CHL1   H20 1753   3.240   3.205   9.130  2.5588  0.6308  1.8614
   24CHL1   C21 1754   3.105   3.035   9.106  0.1947  0.3591  0.1044
   24CHL1  H21A 1755   3.069   3.065   9.005 -0.2580  0.1152  0.1962
   24CHL1  H21B 1756   3.039   3.092   9.175  1.3203 -0.4184  1.8438
   24CHL1  H21C 1757   3.099   2.925   9.115 -1.6243  0.4511  0.2320
   24CHL1   C22 1758   3.341   3.043   9.023 -0.2448  0.5109  0.5831
   24CHL1  H22A 1759   3.433   3.093   9.058 -0.1679  0.4031  0.5366
   24CHL1  H22B 1760   3.355   2.933   9.028 -1.1511  0.2895 -1.2488
   24CHL1   C23 1761   3.320   3.098   8.885 -0.0068 -0.2953 -0.3213
   24CHL1  H23A 1762   3.223   3.066   8.841 -1.3958  1.7307  1.2037
   24CHL1  H23B 1763   3.306   3.208   8.883 -0.4149 -0.3164  1.2843
   24CHL1   C24 1764   3.429   3.065   8.785  0.0403  0.2987 -0.1837
   24CHL1  H24A 1765   3.527   3.118   8.788  0.0176  0.5431 -2.6919
   24CHL1  H24B 1766   3.450   2.956   8.788  2.3278  0.7295  0.3606
   24CHL1   C25 1767   3.380   3.094   8.632 -1.1144 -0.3805 -0.0685
   24CHL1   H25 1768   3.295   3.026   8.609 -1.9790  0.3902  0.7689
   24CHL1   C26 1769   3.350   3.242   8.608  0.5371 -0.3168  0.1418
   24CHL1  H26A 1770   3.426   3.308   8.655  0.1017 -0.6275  1.2875
   24CHL1  H26B 1771   3.355   3.259   8.498  2.8485 -0.9314  0.1293
   24CHL1  H26C 1772   3.251   3.276   8.646  1.4481 -1.3337  3.5446
   24CHL1   C27 1773   3.494   3.050   8.530 -0.0294 -0.3208 -0.8707
   24CHL1  H27A 1774   3.596   3.085   8.557  0.3272  0.1881 -2.7588
   24CHL1  H27B 1775   3.497   2.939   8.525 -0.1622 -0.2668 -2.8779
   24CHL1  H27C 1776   3.474   3.104   8.434 -1.8699 -0.1879 -0.4347
   25CHL1    C3 1777   4.618   4.065  10.538  0.0593 -0.8232 -0.3418
   25CHL1    H3 1778   4.687   4.152  10.541  0.9652 -1.5463  0.1841
   25CHL1    O3 1779   4.628   4.005  10.661 -0.1677  0.0003 -0.1400
   25CHL1   H3' 1780   4.713   3.962  10.670 -0.5385 -0.7059  0.0403
   25CHL1    C4 1781   4.473   4.125  10.532  0.2330 -0.0403  0.4107
   25CHL1   H4A 1782   4.392   4.050  10.521 -1.4624  2.0079 -1.4542
   25CHL1   H4B 1783   4.450   4.173  10.629 -4.3168 -1.7564  0.2949
   25CHL1    C5 1784   4.453   4.201  10.407  0.2665  0.0338 -0.3873
   25CHL1    C6 1785   4.413   4.331  10.412 -0.1674  0.3905 -0.0866
   25CHL1    H6 1786   4.392   4.391  10.501  1.8071  0.1697  0.5508
   25CHL1    C7 1787   4.394   4.420  10.284  0.0376  0.7095  0.6444
   25CHL1   H7A 1788   4.306   4.487  10.286 -0.4679  0.0668  0.3421
   25CHL1   H7B 1789   4.481   4.489  10.284  0.4771  0.2681 -3.1265
   25CHL1    C8 1790   4.385   4.337  10.151  0.9466  0.2602 -0.0174
   25CHL1    H8 1791   4.282   4.296  10.149  2.0123 -2.5306  0.7899
   25CHL1   C14 1792   4.403   4.432  10.026  0.5583  0.3862 -1.3788
   25CHL1   H14 1793   4.494   4.494  10.039  1.0702 -0.8572  1.4015
   25CHL1   C15 1794   4.292   4.546  10.000 -0.1820  0.2050  0.4169
   25CHL1  H15A 1795   4.194   4.503  10.030  0.9231 -2.5269  0.2498
   25CHL1  H15B 1796   4.308   4.629  10.072 -0.6410  0.9360 -0.3206
   25CHL1   C16 1797   4.309   4.581   9.857  0.7329 -0.2340 -0.9420
   25CHL1  H16A 1798   4.208   4.571   9.812  1.0118 -1.1047 -1.3855
   25CHL1  H16B 1799   4.356   4.682   9.849  2.3361 -1.0446 -2.0450
   25CHL1   C17 1800   4.407   4.479   9.787  0.4060  0.1809 -0.2046
   25CHL1   H17 1801   4.508   4.526   9.787  0.0011  1.0534  0.7909
   25CHL1   C13 1802   4.411   4.359   9.888 -1.0558  0.2815 -0.3130
   25CHL1   C18 1803   4.285   4.270   9.867 -0.0661 -0.0180 -0.0778
   25CHL1  H18A 1804   4.296   4.216   9.771 -0.9443 -0.7611  0.2349
   25CHL1  H18B 1805   4.262   4.192   9.942 -4.9201 -0.1632 -1.5060
   25CHL1  H18C 1806   4.199   4.337   9.843  1.6217  1.5787 -1.8784
   25CHL1   C12 1807   4.539   4.269   9.907 -0.0382 -0.7378 -0.0940
   25CHL1  H12A 1808   4.550   4.214   9.811 -0.4000 -1.8031  0.4633
   25CHL1  H12B 1809   4.629   4.330   9.926 -0.4176 -0.6467  1.4915
   25CHL1   C11 1810   4.526   4.166  10.021 -0.2294 -0.8758  0.4306
   25CHL1  H11A 1811   4.444   4.096   9.993 -0.0960 -0.4700 -1.0252
   25CHL1  H11B 1812   4.621   4.110  10.025  0.2645 -0.2227 -1.7001
   25CHL1    C9 1813   4.498   4.231  10.154  0.0607  0.3843 -0.3069
   25CHL1    H9 1814   4.588   4.293  10.176  0.1076  0.7433 -1.4605
   25CHL1   C10 1815   4.490   4.134  10.272  0.3335 -0.2165 -0.2869
   25CHL1   C19 1816   4.373   4.039  10.229 -0.2552 -0.0922  0.0898
   25CHL1  H19A 1817   4.359   3.972  10.316  2.3922  1.4635  1.7895
   25CHL1  H19B 1818   4.281   4.098  10.206  0.8739  0.9355 -1.9249
   25CHL1  H19C 1819   4.404   3.965  10.153 -0.4646 -0.1253  0.0364
   25CHL1    C1 1820   4.626   4.053  10.282 -0.0167 -0.3488 -0.1653
   25CHL1   H1A 1821   4.628   3.981  10.197 -1.1886 -0.9634  0.3147
   25CHL1   H1B 1822   4.699   4.134  10.262 -1.1458  0.9260  0.7203
   25CHL1    C2 1823   4.650   3.970  10.418 -0.0859 -0.4050 -0.3027
   25CHL1   H2A 1824   4.758   3.942  10.412  0.6669  1.8238  1.9561
   25CHL1   H2B 1825   4.577   3.888  10.431 -0.5262 -0.1480 -1.1421
   25CHL1   C20 1826   4.390   4.449   9.639  0.3571  0.0917  0.8575
   25CHL1   H20 1827   4.300   4.384   9.631 -0.3428  0.8795  2.0997
   25CHL1   C21 1828   4.505   4.367   9.581 -0.5023  0.2191  0.0271
   25CHL1  H21A 1829   4.599   4.421   9.605 -0.2658 -0.2807  0.2222
   25CHL1  H21B 1830   4.495   4.340   9.474  0.5994  0.2236 -0.0770
   25CHL1  H21C 1831   4.498   4.273   9.640 -2.8385 -0.0923 -0.6672
   25CHL1   C22 1832   4.363   4.568   9.558 -0.5388  0.2490  0.2293
   25CHL1  H22A 1833   4.281   4.632   9.599  0.0758 -0.3662  2.4701
   25CHL1  H22B 1834   4.458   4.625   9.559  0.6354 -1.6728 -0.2270
   25CHL1   C23 1835   4.319   4.549   9.415  0.4068 -0.1043  0.1649
   25CHL1  H23A 1836   4.398   4.495   9.359  1.7583 -0.3133  2.2345
   25CHL1  H23B 1837   4.227   4.488   9.402  1.6688 -2.7522  2.8702
   25CHL1   C24 1838   4.305   4.684   9.340 -0.2201 -0.1133 -0.2687
   25CHL1  H24A 1839   4.200   4.715   9.356  0.4025  1.3217  1.1841
   25CHL1  H24B 1840   4.379   4.762   9.367 -2.2507  0.9475  2.5663
   25CHL1   C25 1841   4.318   4.668   9.184 -0.0526  0.0957  0.2544
   25CHL1   H25 1842   4.301   4.759   9.123 -0.7453 -0.4718 -0.4076
   25CHL1   C26 1843   4.457   4.619   9.125 -0.1252 -0.2698 -0.7774
   25CHL1  H26A 1844   4.507   4.543   9.189 -0.4276 -0.7153 -1.0668
   25CHL1  H26B 1845   4.443   4.573   9.025  2.4325 -3.6697  0.3087
   25CHL1  H26C 1846   4.528   4.705   9.117 -0.0808 -0.3877 -1.7409
   25CHL1   C27 1847   4.207   4.578   9.131  0.7166  0.1518 -0.2448
   25CHL1  H27A 1848   4.113   4.628   9.162  0.3077  0.7668 -2.4129
   25CHL1  H27B 1849   4.200   4.562   9.021 -1.0008  1.8882 -0.4129
   25CHL1  H27C 1850   4.207   4.473   9.168 -0.1439  0.5429  0.8773
   26CHL1    C3 1851   5.514   0.753  10.164 -0.6601  0.9799 -0.3187
   26CHL1    H3 1852   5.457   0.663  10.193 -0.3301  0.0977 -2.3076
   26CHL1    O3 1853   5.541   0.827  10.279  0.1811 -0.4669  0.5702
   26CHL1   H3' 1854   5.584   0.907  10.247 -2.4123  0.7775  0.0111
   26CHL1    C4 1855   5.645   0.716  10.107  0.1953  0.3684  0.5547
   26CHL1   H4A 1856   5.702   0.810  10.093  2.6572 -1.2830 -0.8666
   26CHL1   H4B 1857   5.701   0.647  10.174 -0.7698 -2.5359 -1.5080
   26CHL1    C5 1858   5.613   0.646   9.977  0.9031 -0.2818 -0.2060
   26CHL1    C6 1859   5.637   0.516   9.948  0.5272  0.9595  0.0239
   26CHL1    H6 1860   5.683   0.456  10.028 -1.4166 -0.2894  0.2507
   26CHL1    C7 1861   5.634   0.460   9.808 -0.1557 -0.1347 -0.4540
   26CHL1   H7A 1862   5.734   0.413   9.796  1.1817  2.4683 -0.0164
   26CHL1   H7B 1863   5.558   0.379   9.806 -0.3429  0.0177  0.3646
   26CHL1    C8 1864   5.617   0.565   9.695 -0.4094  0.0726  0.6560
   26CHL1    H8 1865   5.716   0.611   9.678  0.2960 -1.5191  0.3971
   26CHL1   C14 1866   5.570   0.500   9.573  0.5403 -0.0335  0.1599
   26CHL1   H14 1867   5.470   0.464   9.606  1.4790 -0.5264  2.5718
   26CHL1   C15 1868   5.657   0.380   9.525 -0.1370 -0.4618  0.2047
   26CHL1  H15A 1869   5.760   0.417   9.509 -0.1575  0.1975  1.5462
   26CHL1  H15B 1870   5.666   0.292   9.592 -1.0135  0.3613  1.4267
   26CHL1   C16 1871   5.611   0.349   9.385  0.1121 -0.3454  0.1916
   26CHL1  H16A 1872   5.684   0.343   9.301 -1.4397 -3.2941 -1.0379
   26CHL1  H16B 1873   5.551   0.256   9.387  0.0691 -0.3285 -0.2153
   26CHL1   C17 1874   5.503   0.462   9.355 -0.2753  0.1366  0.4370
   26CHL1   H17 1875   5.412   0.428   9.408  0.0827 -0.0443  0.9418
   26CHL1   C13 1876   5.530   0.584   9.450 -0.0919 -0.1322  0.2654
   26CHL1   C18 1877   5.654   0.654   9.402 -0.0285 -0.1184 -0.3471
   26CHL1  H18A 1878   5.703   0.707   9.486  1.9731 -3.1037  0.4615
   26CHL1  H18B 1879   5.731   0.587   9.358 -0.8870  0.4541 -2.8484
   26CHL1  H18C 1880   5.618   0.722   9.321  1.9708  0.0843 -1.0867
   26CHL1   C12 1881   5.418   0.675   9.500  0.3352 -0.1455  0.9332
   26CHL1  H12A 1882   5.387   0.744   9.419 -1.7884 -1.4117  0.5955
   26CHL1  H12B 1883   5.328   0.618   9.533  0.7700 -1.6163 -0.3500
   26CHL1   C11 1884   5.460   0.766   9.617 -0.2625  0.3642 -0.2925
   26CHL1  H11A 1885   5.537   0.838   9.581  0.6406 -0.7217 -0.5665
   26CHL1  H11B 1886   5.373   0.823   9.654 -0.2271 -1.1810  2.2743
   26CHL1    C9 1887   5.514   0.673   9.737  0.2091 -0.1561 -0.0378
   26CHL1    H9 1888   5.419   0.618   9.750  0.7885 -1.2350 -0.3497
   26CHL1   C10 1889   5.549   0.747   9.873 -0.2239 -0.1288 -0.0294
   26CHL1   C19 1890   5.643   0.868   9.844  0.4760  0.1594 -1.3374
   26CHL1  H19A 1891   5.586   0.942   9.784 -2.0960 -0.2466  0.5145
   26CHL1  H19B 1892   5.696   0.922   9.925  0.5212  1.2562 -2.0939
   26CHL1  H19C 1893   5.722   0.823   9.780  0.1128 -1.3427 -0.7655
   26CHL1    C1 1894   5.413   0.799   9.938 -0.2007 -0.1156  0.7702
   26CHL1   H1A 1895   5.372   0.879   9.872 -0.9869 -0.6915  0.5598
   26CHL1   H1B 1896   5.339   0.717   9.945 -0.3307 -0.0436  0.2681
   26CHL1    C2 1897   5.425   0.849  10.082 -0.3798 -0.3006 -0.5768
   26CHL1   H2A 1898   5.322   0.843  10.124 -1.5344  4.0733 -2.5134
   26CHL1   H2B 1899   5.458   0.953  10.104  1.1869 -0.4337 -2.2365
   26CHL1   C20 1900   5.466   0.490   9.201  0.8246 -0.1921 -0.7408
   26CHL1   H20 1901   5.564   0.523   9.160  2.6406 -2.1475  1.8358
   26CHL1   C21 1902   5.362   0.598   9.193 -0.4230 -0.0242  0.0893
   26CHL1  H21A 1903   5.306   0.581   9.099  1.2582  1.3321 -1.2036
   26CHL1  H21B 1904   5.418   0.694   9.184 -0.6946 -0.1571 -3.7586
   26CHL1  H21C 1905   5.282   0.614   9.268  0.8506  0.4466  1.3782
   26CHL1   C22 1906   5.412   0.359   9.135  0.7179 -0.6563 -0.3253
   26CHL1  H22A 1907   5.507   0.301   9.140  0.7335 -0.6152 -0.1425
   26CHL1  H22B 1908   5.329   0.318   9.196  1.1596  2.0067  2.1534
   26CHL1   C23 1909   5.373   0.361   8.980  0.6862  0.3273 -0.1939
   26CHL1  H23A 1910   5.338   0.257   8.963 -2.4522  1.1352  0.9693
   26CHL1  H23B 1911   5.277   0.416   8.965  0.5381 -0.6760 -3.1051
   26CHL1   C24 1912   5.486   0.388   8.884  0.5367 -0.7003  0.1151
   26CHL1  H24A 1913   5.531   0.489   8.896  0.0116 -0.3352 -0.9873
   26CHL1  H24B 1914   5.564   0.310   8.895  0.9042 -0.3003  0.3898
   26CHL1   C25 1915   5.442   0.389   8.737 -0.6383  0.2464  0.6194
   26CHL1   H25 1916   5.365   0.469   8.729 -0.0781  1.3008  4.4464
   26CHL1   C26 1917   5.557   0.428   8.643 -0.4547  0.6995  0.0716
   26CHL1  H26A 1918   5.515   0.449   8.542 -1.2080  3.7085  0.9559
   26CHL1  H26B 1919   5.583   0.534   8.663 -3.5446  1.9212 -1.9764
   26CHL1  H26C 1920   5.644   0.360   8.656 -1.7043 -0.5177  2.3338
   26CHL1   C27 1921   5.389   0.249   8.691  0.5364  0.0390  0.3313
   26CHL1  H27A 1922   5.303   0.216   8.753  1.3187 -0.6820  1.0584
   26CHL1  H27B 1923   5.353   0.249   8.586 -0.6459  0.8557  0.7234
   26CHL1  H27C 1924   5.472   0.176   8.701  0.9445 -0.0715 -3.2749
   27CHL1    C3 1925   4.917   4.414  10.474 -0.0628 -0.1684 -0.5735
   27CHL1    H3 1926   4.883   4.308  10.481  0.9604 -0.4830 -0.3105
   27CHL1    O3 1927   4.910   4.466  10.603 -0.1863  0.4822  0.0956
   27CHL1   H3' 1928   4.947   4.553  10.589  2.1097  0.0536  3.0287
   27CHL1    C4 1929   5.057   4.429  10.425 -0.3148  0.2221 -0.4950
   27CHL1   H4A 1930   5.089   4.535  10.435 -0.0714  0.0717  0.3543
   27CHL1   H4B 1931   5.117   4.367  10.495 -1.5087 -0.3755 -0.0062
   27CHL1    C5 1932   5.081   4.395  10.282  0.3998 -0.4108 -0.1115
   27CHL1    C6 1933   5.173   4.301  10.247  0.4598  1.0573 -0.3305
   27CHL1    H6 1934   5.238   4.259  10.325 -0.0708  0.9812  0.0722
   27CHL1    C7 1935   5.192   4.259  10.104  0.2570  0.2186  0.4780
   27CHL1   H7A 1936   5.303   4.259  10.091 -0.1191  1.9799 -3.3704
   27CHL1   H7B 1937   5.138   4.164  10.085 -1.8659  1.3783  0.6604
   27CHL1    C8 1938   5.131   4.356   9.998  0.1838  0.6384 -0.6020
   27CHL1    H8 1939   5.200   4.442   9.986  0.0212  0.5518 -2.2450
   27CHL1   C14 1940   5.127   4.281   9.865 -0.3930  0.2393  0.3889
   27CHL1   H14 1941   5.070   4.188   9.886 -0.2430  0.4454  1.8048
   27CHL1   C15 1942   5.266   4.246   9.801  0.2396  0.5426 -0.3907
   27CHL1  H15A 1943   5.331   4.333   9.825 -2.7181  2.1570  2.2325
   27CHL1  H15B 1944   5.322   4.155   9.832 -1.1819 -0.9014 -2.0228
   27CHL1   C16 1945   5.230   4.229   9.654  0.2351  0.1022  0.5733
   27CHL1  H16A 1946   5.294   4.300   9.597 -1.1311 -0.0095 -1.1498
   27CHL1  H16B 1947   5.253   4.122   9.632  3.7242  0.7671  0.7977
   27CHL1   C17 1948   5.083   4.258   9.642 -0.3205 -0.4245 -0.1439
   27CHL1   H17 1949   5.019   4.172   9.671 -0.6760 -0.6943 -1.6734
   27CHL1   C13 1950   5.050   4.360   9.750 -0.1155  0.2467  0.3747
   27CHL1   C18 1951   5.119   4.499   9.710  0.2329  0.4453  0.1927
   27CHL1  H18A 1952   5.073   4.527   9.612 -1.7502 -2.0574  0.3525
   27CHL1  H18B 1953   5.112   4.583   9.782 -0.3344 -0.5812  1.3553
   27CHL1  H18C 1954   5.226   4.488   9.682  1.0531  0.9149  3.0404
   27CHL1   C12 1955   4.898   4.380   9.796  0.5211  0.3653  0.5688
   27CHL1  H12A 1956   4.838   4.447   9.732 -2.2944 -0.8523  1.8437
   27CHL1  H12B 1957   4.843   4.286   9.817 -1.6776  1.5591  0.2445
   27CHL1   C11 1958   4.899   4.457   9.935  0.7886 -0.1076 -0.1896
   27CHL1  H11A 1959   4.929   4.562   9.917  0.2949  0.3061  1.3047
   27CHL1  H11B 1960   4.794   4.464   9.971  0.7111  1.3835 -0.6914
   27CHL1    C9 1961   4.986   4.391  10.040 -0.1670  1.1937 -0.5237
   27CHL1    H9 1962   4.942   4.291  10.063  0.1631  1.3025  0.6275
   27CHL1   C10 1963   4.983   4.461  10.183  0.3350  0.3731 -0.5566
   27CHL1   C19 1964   5.032   4.606  10.164 -0.4897  0.2830  0.2167
   27CHL1  H19A 1965   4.959   4.658  10.099 -1.0862 -0.8195 -0.0210
   27CHL1  H19B 1966   5.041   4.666  10.257 -1.6291 -1.1736  1.2990
   27CHL1  H19C 1967   5.133   4.610  10.118 -0.7528 -0.3590 -0.4177
   27CHL1    C1 1968   4.835   4.455  10.244  0.2587  0.2873  0.4789
   27CHL1   H1A 1969   4.767   4.523  10.188  1.2422 -0.2644 -1.4645
   27CHL1   H1B 1970   4.797   4.351  10.235 -0.6237  0.7918 -2.3027
   27CHL1    C2 1971   4.824   4.493  10.385 -0.6098  0.2815 -0.1981
   27CHL1   H2A 1972   4.717   4.478  10.410 -0.7043  0.0193 -0.7400
   27CHL1   H2B 1973   4.850   4.601  10.388 -0.2749  0.3241 -3.1605
   27CHL1   C20 1974   5.041   4.288   9.493  0.3063 -0.1071 -0.0459
   27CHL1   H20 1975   5.042   4.398   9.477 -0.7893  0.2366  2.1023
   27CHL1   C21 1976   4.896   4.248   9.473 -0.3827 -0.6608  0.2629
   27CHL1  H21A 1977   4.878   4.138   9.470  0.0021 -0.6922 -1.6025
   27CHL1  H21B 1978   4.870   4.296   9.377  2.3280  2.1336  0.8614
   27CHL1  H21C 1979   4.827   4.301   9.542  0.4180 -0.6095  1.0500
   27CHL1   C22 1980   5.124   4.225   9.383 -0.3320  0.0576  0.4463
   27CHL1  H22A 1981   5.229   4.259   9.385  0.5113 -2.5159  1.7333
   27CHL1  H22B 1982   5.131   4.118   9.411  0.9462 -0.1723 -0.6882
   27CHL1   C23 1983   5.068   4.237   9.243  0.5176 -0.6797  0.1107
   27CHL1  H23A 1984   4.988   4.161   9.229 -0.7807  0.8334 -0.8271
   27CHL1  H23B 1985   5.029   4.341   9.235  2.6840 -0.1006 -3.7277
   27CHL1   C24 1986   5.173   4.215   9.133  0.6625  0.0947  0.2067
   27CHL1  H24A 1987   5.244   4.300   9.142  0.8352 -0.0145 -0.1365
   27CHL1  H24B 1988   5.227   4.119   9.140  0.5321 -0.2170 -2.4722
   27CHL1   C25 1989   5.130   4.224   8.986 -0.6194  0.2366  0.5759
   27CHL1   H25 1990   5.054   4.149   8.957 -0.9954  0.1565  1.7458
   27CHL1   C26 1991   5.063   4.361   8.964 -0.0337  0.6372  0.0263
   27CHL1  H26A 1992   4.960   4.365   9.006 -0.2395  1.7242 -0.5759
   27CHL1  H26B 1993   5.137   4.437   8.996 -1.5633  2.8390 -1.5696
   27CHL1  H26C 1994   5.056   4.367   8.853 -0.9478 -0.3581  0.0171
   27CHL1   C27 1995   5.255   4.210   8.898  0.9495  0.0455  0.2366
   27CHL1  H27A 1996   5.321   4.299   8.905  0.0086  0.6883  1.0580
   27CHL1  H27B 1997   5.307   4.112   8.906  1.7622  0.2169 -2.4717
   27CHL1  H27C 1998   5.218   4.205   8.794 -2.1349 -0.9942  1.3365
   28CHL1    C3 1999   4.348   2.518  10.005 -0.0667  0.1438  0.2746
   28CHL1    H3 2000   4.245   2.559   9.995  0.8937  2.2097 -1.6227
   28CHL1    O3 2001   4.368   2.506  10.144 -0.3055 -0.0461 -0.1447
   28CHL1   H3' 2002   4.463   2.501  10.144 -0.1620  2.1559  0.0559
   28CHL1    C4 2003   4.355   2.376   9.933  0.4075  0.3231 -0.8637
   28CHL1   H4A 2004   4.453   2.333   9.962 -0.4916 -1.9347 -1.0810
   28CHL1   H4B 2005   4.284   2.313   9.991  0.4732 -0.0013 -1.1361
   28CHL1    C5 2006   4.327   2.392   9.784 -0.5382  0.0663  0.5074
   28CHL1    C6 2007   4.232   2.320   9.719 -0.5279  0.2637  0.0369
   28CHL1    H6 2008   4.168   2.248   9.771 -1.0909 -1.2277 -2.6326
   28CHL1    C7 2009   4.208   2.338   9.573 -0.1118 -0.0565 -0.4120
   28CHL1   H7A 2010   4.172   2.244   9.525  2.3372 -0.6354 -1.1457
   28CHL1   H7B 2011   4.117   2.401   9.563 -1.3533 -1.1407  3.0248
   28CHL1    C8 2012   4.318   2.404   9.499 -0.1658 -0.7050  0.6681
   28CHL1    H8 2013   4.399   2.328   9.495  1.6366  1.2129 -0.3788
   28CHL1   C14 2014   4.288   2.437   9.356  0.1027  0.1235 -0.0746
   28CHL1   H14 2015   4.200   2.505   9.361  0.2396  0.1035  3.0952
   28CHL1   C15 2016   4.247   2.316   9.271  0.0349  0.3571  0.0424
   28CHL1  H15A 2017   4.309   2.225   9.276 -1.8382 -0.8976  0.9318
   28CHL1  H15B 2018   4.139   2.292   9.279 -0.3994  1.4118 -2.1745
   28CHL1   C16 2019   4.268   2.365   9.126 -0.2727 -0.5886  0.2416
   28CHL1  H16A 2020   4.326   2.285   9.075  1.2286  1.2402 -1.0148
   28CHL1  H16B 2021   4.182   2.370   9.057  0.4976 -2.0572 -0.8375
   28CHL1   C17 2022   4.340   2.499   9.135 -0.2129 -0.4854  0.2942
   28CHL1   H17 2023   4.267   2.582   9.130 -1.2688 -1.2050  2.7051
   28CHL1   C13 2024   4.401   2.504   9.281  0.6165  0.0152  0.4128
   28CHL1   C18 2025   4.524   2.410   9.272 -0.0036 -0.0246  0.0471
   28CHL1  H18A 2026   4.603   2.456   9.209 -0.0476 -0.5825 -0.4175
   28CHL1  H18B 2027   4.573   2.395   9.371  4.8445 -3.1003 -2.5815
   28CHL1  H18C 2028   4.502   2.317   9.216 -0.7384 -0.0268  0.3438
   28CHL1   C12 2029   4.441   2.637   9.344 -0.1739  0.1058 -0.5374
   28CHL1  H12A 2030   4.526   2.688   9.293  0.0412  1.4854  1.1518
   28CHL1  H12B 2031   4.345   2.694   9.338  0.2653  1.0100  0.7740
   28CHL1   C11 2032   4.457   2.625   9.493  0.8792  0.0974  0.3633
   28CHL1  H11A 2033   4.561   2.589   9.508  0.4539 -1.1962  0.2541
   28CHL1  H11B 2034   4.444   2.728   9.532  1.2810 -0.6539  2.5338
   28CHL1    C9 2035   4.362   2.530   9.570 -0.3294 -0.2869 -0.3264
   28CHL1    H9 2036   4.264   2.583   9.569  0.2201  0.7852  0.7979
   28CHL1   C10 2037   4.408   2.501   9.717 -0.3180 -0.7037 -0.6273
   28CHL1   C19 2038   4.560   2.446   9.716 -0.1348  0.3237  0.0834
   28CHL1  H19A 2039   4.633   2.503   9.655  1.8156  1.5988  3.4795
   28CHL1  H19B 2040   4.595   2.452   9.821  0.8888  0.9740 -0.2879
   28CHL1  H19C 2041   4.564   2.339   9.688 -0.0064  0.4383 -0.3551
   28CHL1    C1 2042   4.406   2.635   9.804 -0.0143  0.2941 -0.2577
   28CHL1   H1A 2043   4.479   2.707   9.763 -0.4228  1.4817  1.0765
   28CHL1   H1B 2044   4.307   2.683   9.791  0.0243  0.4999  0.1953
   28CHL1    C2 2045   4.439   2.621   9.954  0.7299  0.2050 -0.1238
   28CHL1   H2A 2046   4.424   2.720  10.003  0.4015 -0.0384  0.2741
   28CHL1   H2B 2047   4.545   2.593   9.970  0.7509 -0.3677 -1.2761
   28CHL1   C20 2048   4.431   2.528   9.014 -0.0398 -0.1246  0.7853
   28CHL1   H20 2049   4.520   2.461   9.015  1.5387  1.9220  0.5247
   28CHL1   C21 2050   4.496   2.675   9.022 -0.3803 -0.1636 -0.2770
   28CHL1  H21A 2051   4.536   2.703   8.923  0.9109 -1.7939 -0.2423
   28CHL1  H21B 2052   4.579   2.663   9.094  0.4468 -1.3735 -1.4027
   28CHL1  H21C 2053   4.418   2.748   9.052  0.7828  1.8356 -2.0048
   28CHL1   C22 2054   4.355   2.501   8.879  0.0297  0.5487  0.3595
   28CHL1  H22A 2055   4.305   2.402   8.878 -0.0579  0.5737  1.4690
   28CHL1  H22B 2056   4.284   2.584   8.864 -2.0632 -0.3438  4.6129
   28CHL1   C23 2057   4.435   2.510   8.750 -0.2321 -0.1946  0.1417
   28CHL1  H23A 2058   4.356   2.523   8.673 -1.0313  1.0766  1.1382
   28CHL1  H23B 2059   4.494   2.604   8.750 -1.7294  0.7800 -0.4132
   28CHL1   C24 2060   4.523   2.389   8.728  0.3277  0.4236  0.1996
   28CHL1  H24A 2061   4.599   2.394   8.809  0.6323  0.0205 -0.0572
   28CHL1  H24B 2062   4.476   2.288   8.722  2.3793 -0.7646  2.9002
   28CHL1   C25 2063   4.606   2.401   8.603 -0.0127 -1.1269 -0.3217
   28CHL1   H25 2064   4.669   2.492   8.603  0.0771 -1.1614 -2.7386
   28CHL1   C26 2065   4.708   2.287   8.599  0.8665  1.0563  0.5579
   28CHL1  H26A 2066   4.776   2.293   8.511  1.1999 -0.3076  0.7112
   28CHL1  H26B 2067   4.766   2.293   8.693 -0.6991 -2.3625  1.8413
   28CHL1  H26C 2068   4.663   2.185   8.599  4.0102 -0.4057 -2.4794
   28CHL1   C27 2069   4.530   2.401   8.467  0.3975 -0.3377 -0.7037
   28CHL1  H27A 2070   4.476   2.306   8.447  1.2971 -0.6833 -1.5084
   28CHL1  H27B 2071   4.464   2.490   8.457 -0.7987 -1.0696  0.4705
   28CHL1  H27C 2072   4.607   2.411   8.388  0.1623 -0.4681 -0.9470
   29CHL1    C3 2073   5.232   0.809   6.730  0.2191 -0.2786 -0.2557
   29CHL1    H3 2074   5.132   0.786   6.772  0.8612 -0.0249  1.4555
   29CHL1    O3 2075   5.221   0.852   6.591  0.4212  0.3189  0.3861
   29CHL1   H3' 2076   5.306   0.884   6.562  0.7714 -1.2317 -0.3654
   29CHL1    C4 2077   5.307   0.924   6.810  0.2524 -0.6073  0.5777
   29CHL1   H4A 2078   5.398   0.955   6.753  1.5258 -1.4158  2.1528
   29CHL1   H4B 2079   5.237   1.010   6.815  0.2653 -0.5557 -0.0456
   29CHL1    C5 2080   5.345   0.887   6.952 -0.3558 -0.1373  0.8067
   29CHL1    C6 2081   5.301   0.955   7.057  0.4126  0.0902 -0.9009
   29CHL1    H6 2082   5.234   1.041   7.045  0.7444  0.6391  0.9731
   29CHL1    C7 2083   5.333   0.920   7.196 -0.1387  0.5729 -1.3177
   29CHL1   H7A 2084   5.385   1.004   7.246  0.2278  0.7099 -1.9152
   29CHL1   H7B 2085   5.248   0.881   7.255 -0.1458  1.2381 -0.8903
   29CHL1    C8 2086   5.453   0.807   7.208  0.0345  0.6778 -0.6487
   29CHL1    H8 2087   5.550   0.855   7.185 -0.4131  2.1799  0.5357
   29CHL1   C14 2088   5.462   0.751   7.351  0.8635 -0.1215  0.4531
   29CHL1   H14 2089   5.364   0.699   7.366 -0.0662  1.3319 -0.4809
   29CHL1   C15 2090   5.474   0.848   7.474  0.2702 -0.2520  0.2361
   29CHL1  H15A 2091   5.556   0.921   7.461  0.1712 -0.0926  0.5171
   29CHL1  H15B 2092   5.379   0.905   7.480  0.2109 -0.1627 -1.2043
   29CHL1   C16 2093   5.507   0.759   7.589 -0.2928  0.3474  0.4734
   29CHL1  H16A 2094   5.593   0.784   7.654  0.6621  0.8582 -0.9750
   29CHL1  H16B 2095   5.418   0.763   7.656 -0.6318 -0.9739  0.1183
   29CHL1   C17 2096   5.522   0.616   7.527 -0.0867 -0.1807  0.1392
   29CHL1   H17 2097   5.422   0.568   7.525 -0.6151  0.9384 -1.0630
   29CHL1   C13 2098   5.547   0.632   7.379 -0.0680  0.3606  0.0195
   29CHL1   C18 2099   5.695   0.685   7.357 -0.5373  0.0588 -0.0001
   29CHL1  H18A 2100   5.714   0.749   7.445 -0.8394 -0.7729  0.6728
   29CHL1  H18B 2101   5.764   0.598   7.365  2.1557  2.2443  1.3775
   29CHL1  H18C 2102   5.701   0.734   7.257 -0.8536  0.0096 -0.0453
   29CHL1   C12 2103   5.519   0.517   7.283  0.2758  0.2556 -0.1690
   29CHL1  H12A 2104   5.583   0.427   7.292  1.1238  0.8262 -0.4404
   29CHL1  H12B 2105   5.413   0.492   7.307  0.4284 -1.0755 -0.8481
   29CHL1   C11 2106   5.523   0.566   7.132  0.5649  0.1502 -0.3209
   29CHL1  H11A 2107   5.628   0.581   7.100  0.2922  0.3689 -1.1457
   29CHL1  H11B 2108   5.484   0.483   7.068 -2.1011  1.2463 -0.1953
   29CHL1    C9 2109   5.433   0.692   7.105 -0.3276  0.2937  0.5110
   29CHL1    H9 2110   5.334   0.650   7.133  0.3186 -0.9522  1.0134
   29CHL1   C10 2111   5.430   0.754   6.959 -0.3257  0.4116 -0.5621
   29CHL1   C19 2112   5.574   0.782   6.905 -0.0169  0.8967  0.1210
   29CHL1  H19A 2113   5.627   0.843   6.982 -1.5903  0.4441  1.5746
   29CHL1  H19B 2114   5.630   0.686   6.896 -1.1630  0.0813  1.5933
   29CHL1  H19C 2115   5.576   0.829   6.805  0.6449  0.4384 -0.0889
   29CHL1    C1 2116   5.356   0.647   6.873 -0.7143 -0.1846  0.1412
   29CHL1   H1A 2117   5.415   0.553   6.865  0.5500  0.6123  0.0420
   29CHL1   H1B 2118   5.264   0.614   6.926 -1.5043  0.3727 -0.8726
   29CHL1    C2 2119   5.326   0.694   6.734 -0.2378  0.5076  0.7196
   29CHL1   H2A 2120   5.277   0.614   6.674  1.1722  0.8958 -0.9797
   29CHL1   H2B 2121   5.416   0.712   6.671  1.2942  0.2374  2.7984
   29CHL1   C20 2122   5.605   0.522   7.617  0.0532  0.4103 -1.1447
   29CHL1   H20 2123   5.704   0.570   7.631 -0.4202  1.3332 -0.9500
   29CHL1   C21 2124   5.611   0.385   7.553  0.6814 -0.2375 -0.1621
   29CHL1  H21A 2125   5.640   0.310   7.630  1.7352 -0.8040 -1.0934
   29CHL1  H21B 2126   5.701   0.378   7.488  0.0564  0.6472 -1.1462
   29CHL1  H21C 2127   5.518   0.362   7.497  0.3895  2.1702 -0.7465
   29CHL1   C22 2128   5.543   0.516   7.757 -0.4986 -0.0909  0.1115
   29CHL1  H22A 2129   5.555   0.620   7.796 -1.1350 -0.2559  0.7444
   29CHL1  H22B 2130   5.439   0.477   7.746 -0.4684 -0.5999  1.6430
   29CHL1   C23 2131   5.603   0.429   7.861  0.7223  0.5830  0.1704
   29CHL1  H23A 2132   5.604   0.322   7.833  2.5280  0.8596 -0.8518
   29CHL1  H23B 2133   5.708   0.462   7.875  0.9002  0.8540 -1.6315
   29CHL1   C24 2134   5.538   0.441   8.001  0.8935  0.5101  0.0516
   29CHL1  H24A 2135   5.491   0.541   8.010 -0.1090  0.1933 -1.4530
   29CHL1  H24B 2136   5.456   0.365   8.002  1.4165 -0.1244 -2.2463
   29CHL1   C25 2137   5.636   0.412   8.109  1.1128  0.3983 -0.4258
   29CHL1   H25 2138   5.715   0.489   8.097 -0.6767  2.1459 -1.2502
   29CHL1   C26 2139   5.569   0.432   8.245  0.1242 -0.3225 -0.0640
   29CHL1  H26A 2140   5.535   0.536   8.263  1.7313  0.3177 -0.6952
   29CHL1  H26B 2141   5.480   0.365   8.250  0.3930 -0.5660  1.5167
   29CHL1  H26C 2142   5.637   0.397   8.325 -0.1884 -0.4777  0.1336
   29CHL1   C27 2143   5.682   0.268   8.099 -0.3863  0.3636  0.5832
   29CHL1  H27A 2144   5.714   0.224   8.196 -1.4809 -0.3132  0.6419
   29CHL1  H27B 2145   5.609   0.198   8.053  0.3717  0.7572 -1.2755
   29CHL1  H27C 2146   5.770   0.261   8.032 -0.6211 -0.8598  0.3847
   30CHL1    C3 2147   3.477   6.057   7.311 -0.3999  0.6030 -0.2971
   30CHL1    H3 2148   3.409   5.982   7.357  1.5770 -1.5546 -0.8167
   30CHL1    O3 2149   3.438   6.054   7.177 -0.1193  0.4791 -0.0146
   30CHL1   H3' 2150   3.494   6.120   7.136  0.9713 -1.1231 -1.2123
   30CHL1    C4 2151   3.454   6.187   7.383 -0.0087 -0.6589 -0.0356
   30CHL1   H4A 2152   3.516   6.266   7.335 -1.3768  0.7628  0.4864
   30CHL1   H4B 2153   3.353   6.231   7.365  0.1424 -0.4538 -0.3849
   30CHL1    C5 2154   3.497   6.185   7.532 -0.6997  0.0297 -0.4510
   30CHL1    C6 2155   3.419   6.222   7.635  0.6735  0.1099 -0.1447
   30CHL1    H6 2156   3.315   6.255   7.621 -0.3513 -1.8781  2.4679
   30CHL1    C7 2157   3.473   6.222   7.778  0.4891  0.1675 -0.6761
   30CHL1   H7A 2158   3.445   6.309   7.841 -0.1987 -0.6396  0.1382
   30CHL1   H7B 2159   3.416   6.136   7.819 -1.0046  1.8305  0.8001
   30CHL1    C8 2160   3.628   6.195   7.792 -0.2150 -0.0987  0.4961
   30CHL1    H8 2161   3.668   6.295   7.765 -0.6496 -0.3865 -1.2471
   30CHL1   C14 2162   3.664   6.145   7.927  0.0123 -0.2219 -0.1293
   30CHL1   H14 2163   3.627   6.040   7.932  0.5206 -0.4584 -1.2084
   30CHL1   C15 2164   3.609   6.226   8.043 -0.2624 -0.2116 -0.4719
   30CHL1  H15A 2165   3.625   6.335   8.032  3.1485 -0.8378 -2.6912
   30CHL1  H15B 2166   3.500   6.208   8.058 -0.0338 -1.7071 -0.4904
   30CHL1   C16 2167   3.697   6.182   8.159 -0.2366 -0.4997  0.1148
   30CHL1  H16A 2168   3.726   6.269   8.221  2.0101  0.3865 -2.0616
   30CHL1  H16B 2169   3.641   6.109   8.221 -1.3907 -0.6610 -1.0947
   30CHL1   C17 2170   3.821   6.107   8.101  0.3407 -0.0808 -0.2693
   30CHL1   H17 2171   3.792   6.000   8.100 -1.5041  0.3076  2.9311
   30CHL1   C13 2172   3.822   6.144   7.954 -0.0683 -0.3907 -0.4526
   30CHL1   C18 2173   3.886   6.280   7.947  0.7214  0.0791  0.4234
   30CHL1  H18A 2174   3.861   6.322   7.846  0.2358  0.0241  0.5187
   30CHL1  H18B 2175   3.851   6.355   8.021 -1.8887 -1.3106  0.6691
   30CHL1  H18C 2176   3.992   6.267   7.977 -0.0332 -2.7227  2.0215
   30CHL1   C12 2177   3.890   6.042   7.853  0.1122  0.0050  0.1542
   30CHL1  H12A 2178   4.000   6.033   7.870 -0.0596 -0.4288  1.1222
   30CHL1  H12B 2179   3.849   5.941   7.877  0.9549 -0.4115 -0.1324
   30CHL1   C11 2180   3.849   6.079   7.710 -0.4428 -0.4560 -0.3955
   30CHL1  H11A 2181   3.902   6.172   7.678 -0.6283 -0.7226 -1.5087
   30CHL1  H11B 2182   3.883   5.999   7.641 -1.7652 -1.4016  0.0420
   30CHL1    C9 2183   3.693   6.098   7.690  0.3800  0.3561 -0.4383
   30CHL1    H9 2184   3.661   5.997   7.723  0.4780  1.0972  1.9823
   30CHL1   C10 2185   3.651   6.132   7.548  0.8214 -0.2143  0.1821
   30CHL1   C19 2186   3.749   6.232   7.478  0.4559 -0.6151 -0.7634
   30CHL1  H19A 2187   3.848   6.185   7.458  1.1871  2.2959 -4.4947
   30CHL1  H19B 2188   3.702   6.272   7.386 -0.1144  1.0041  0.2247
   30CHL1  H19C 2189   3.763   6.319   7.545  1.8700 -1.0208 -0.5040
   30CHL1    C1 2190   3.656   5.990   7.477  1.2217 -0.2543 -0.3620
   30CHL1   H1A 2191   3.755   5.941   7.486 -0.2294 -3.0148  1.2929
   30CHL1   H1B 2192   3.589   5.917   7.527 -2.0534  2.3563 -0.7034
   30CHL1    C2 2193   3.613   5.990   7.331  0.2055  0.2836  0.1795
   30CHL1   H2A 2194   3.622   5.890   7.283 -0.2015 -0.0950  0.8807
   30CHL1   H2B 2195   3.688   6.046   7.271 -0.4499 -0.6108 -1.4963
   30CHL1   C20 2196   3.941   6.093   8.193 -0.7559  0.2052  0.5919
   30CHL1   H20 2197   3.999   6.188   8.195  0.5388 -0.5176 -1.3625
   30CHL1   C21 2198   4.037   5.977   8.152 -1.0377 -0.1871  0.4208
   30CHL1  H21A 2199   4.120   5.962   8.224 -1.9903 -0.8028  1.3938
   30CHL1  H21B 2200   4.084   5.995   8.053 -0.1005  0.2064  0.9342
   30CHL1  H21C 2201   3.990   5.878   8.137 -1.6442  0.4976 -2.4764
   30CHL1   C22 2202   3.895   6.062   8.344  0.5982 -0.5071 -0.2002
   30CHL1  H22A 2203   3.832   6.144   8.383  0.2690  0.0917 -1.9862
   30CHL1  H22B 2204   3.854   5.959   8.333 -0.7355  0.0411 -0.3218
   30CHL1   C23 2205   4.003   6.073   8.446 -0.2574  0.0085 -0.3817
   30CHL1  H23A 2206   4.089   6.011   8.412 -0.1760  1.1903 -2.3980
   30CHL1  H23B 2207   4.045   6.175   8.458  2.6791 -1.0525 -1.0465
   30CHL1   C24 2208   3.965   6.010   8.579 -0.5142 -0.3739  0.3338
   30CHL1  H24A 2209   3.863   6.037   8.614  0.3795 -0.8265  3.4516
   30CHL1  H24B 2210   3.965   5.899   8.575  1.9509 -0.4086  0.4394
   30CHL1   C25 2211   4.063   6.025   8.690  0.2912  0.1719  0.6202
   30CHL1   H25 2212   4.057   6.130   8.727  3.7066  0.1867  1.3022
   30CHL1   C26 2213   4.012   5.957   8.819 -0.4277  0.7835  0.5000
   30CHL1  H26A 2214   4.092   5.960   8.896  2.2571  0.0200 -2.1291
   30CHL1  H26B 2215   3.915   5.995   8.857 -0.0615  4.7934 -2.3194
   30CHL1  H26C 2216   3.999   5.849   8.794  3.7647  0.2880  0.0675
   30CHL1   C27 2217   4.205   5.985   8.662 -0.2151  0.5496  0.3190
   30CHL1  H27A 2218   4.201   5.876   8.646  0.7975  0.3704  1.2471
   30CHL1  H27B 2219   4.244   6.036   8.571  2.9497 -1.9658  0.1673
   30CHL1  H27C 2220   4.270   6.018   8.746  0.5237 -2.0804  0.8020
   31CHL1    C3 2221   2.835   0.988   6.708  0.0768  0.4093  0.2453
   31CHL1    H3 2222   2.838   1.098   6.722  0.6445  0.4588 -0.2531
   31CHL1    O3 2223   2.805   0.964   6.571 -0.7951  0.4515  0.1170
   31CHL1   H3' 2224   2.772   1.049   6.540 -1.4651 -0.2468 -1.1314
   31CHL1    C4 2225   2.967   0.927   6.751  0.1880 -0.1857  0.7837
   31CHL1   H4A 2226   2.958   0.820   6.725  1.9487  0.0581 -0.9461
   31CHL1   H4B 2227   3.050   0.964   6.687  0.1933  0.3178  1.0732
   31CHL1    C5 2228   2.988   0.942   6.901  0.4199  0.0715  0.2522
   31CHL1    C6 2229   3.101   0.994   6.946  0.3812  0.3086  0.0543
   31CHL1    H6 2230   3.175   1.023   6.869  1.3395  0.3259  0.9759
   31CHL1    C7 2231   3.137   0.991   7.091 -0.4253  0.0073 -0.4125
   31CHL1   H7A 2232   3.238   0.949   7.112  0.6081  2.5970 -0.0429
   31CHL1   H7B 2233   3.142   1.097   7.125  1.7086 -0.3744  0.5200
   31CHL1    C8 2234   3.027   0.928   7.187 -0.0456 -0.2993  0.3716
   31CHL1    H8 2235   3.049   0.820   7.184 -1.3639 -0.6156  1.5158
   31CHL1   C14 2236   3.040   0.985   7.328 -0.4728 -0.4526  0.1236
   31CHL1   H14 2237   3.018   1.093   7.312 -0.9520 -0.3162  1.6675
   31CHL1   C15 2238   3.173   0.987   7.400  0.0616  0.2053  0.3688
   31CHL1  H15A 2239   3.215   0.884   7.400 -1.6915 -0.5398  1.5758
   31CHL1  H15B 2240   3.253   1.046   7.351  0.2738  0.3778  0.9099
   31CHL1   C16 2241   3.136   1.036   7.537  0.9863  0.0588 -0.2787
   31CHL1  H16A 2242   3.199   0.986   7.613  0.2744  1.8317  1.5209
   31CHL1  H16B 2243   3.158   1.145   7.542  0.3373  0.2175 -0.7410
   31CHL1   C17 2244   2.979   1.014   7.554  0.1781 -0.3646 -0.5535
   31CHL1   H17 2245   2.924   1.110   7.552  0.0020 -0.4796 -1.8335
   31CHL1   C13 2246   2.932   0.931   7.430 -0.0425 -0.1022  0.5675
   31CHL1   C18 2247   2.969   0.780   7.451 -0.0707 -0.2986  0.4573
   31CHL1  H18A 2248   2.875   0.725   7.473  0.1145 -1.0773 -0.6367
   31CHL1  H18B 2249   3.022   0.739   7.362 -0.5023  2.6403 -1.2187
   31CHL1  H18C 2250   3.034   0.764   7.539  2.0103  1.7934 -0.6578
   31CHL1   C12 2251   2.791   0.954   7.380  0.7972 -0.1558  0.4435
   31CHL1  H12A 2252   2.711   0.918   7.448  1.4638 -2.2293  0.1385
   31CHL1  H12B 2253   2.766   1.061   7.361  0.5248 -0.0672  1.2934
   31CHL1   C11 2254   2.776   0.886   7.242  0.5677 -0.0603 -0.2335
   31CHL1  H11A 2255   2.785   0.776   7.258  0.0345 -0.0172  0.3759
   31CHL1  H11B 2256   2.676   0.897   7.195  0.9074  1.3593 -0.6423
   31CHL1    C9 2257   2.887   0.943   7.143  0.5427  0.1008  0.7453
   31CHL1    H9 2258   2.857   1.049   7.134  0.2167 -0.0634 -0.1630
   31CHL1   C10 2259   2.869   0.895   6.991  0.4017  0.1282 -0.3609
   31CHL1   C19 2260   2.857   0.740   6.998 -0.0720 -0.0351 -0.3491
   31CHL1  H19A 2261   2.866   0.699   6.895 -1.0084  1.3485 -0.9940
   31CHL1  H19B 2262   2.932   0.692   7.064 -0.4109  0.4959  0.4272
   31CHL1  H19C 2263   2.755   0.717   7.036  0.8694 -0.6389  1.9125
   31CHL1    C1 2264   2.741   0.958   6.934  0.0543 -0.1199 -0.0348
   31CHL1   H1A 2265   2.649   0.918   6.983  0.1942 -0.1414  0.2092
   31CHL1   H1B 2266   2.737   1.068   6.948  1.1690 -0.0235 -0.4029
   31CHL1    C2 2267   2.717   0.941   6.787  0.0221 -0.2421 -0.5050
   31CHL1   H2A 2268   2.621   0.988   6.754 -1.0408 -2.1889 -0.2440
   31CHL1   H2B 2269   2.694   0.834   6.768 -0.3504  0.5545 -5.1411
   31CHL1   C20 2270   2.958   0.948   7.691  0.3565  0.6352  0.1050
   31CHL1   H20 2271   3.017   0.854   7.700  0.6733  1.0091  2.0126
   31CHL1   C21 2272   2.805   0.918   7.711  0.5529  0.6797 -0.0856
   31CHL1  H21A 2273   2.739   1.005   7.731  1.5132  1.0665  1.5554
   31CHL1  H21B 2274   2.799   0.871   7.812  1.2633 -0.3255 -0.5115
   31CHL1  H21C 2275   2.764   0.847   7.637 -1.8288  0.7543  1.1114
   31CHL1   C22 2276   2.997   1.037   7.806  0.1827 -0.2816  0.1490
   31CHL1  H22A 2277   3.093   1.088   7.784  0.2723  0.0131  1.1776
   31CHL1  H22B 2278   2.930   1.125   7.803 -0.0849 -0.4737  0.5622
   31CHL1   C23 2279   3.016   0.964   7.950 -0.4250 -0.0738 -0.3478
   31CHL1  H23A 2280   2.936   0.887   7.957 -1.8559  1.2181 -1.9699
   31CHL1  H23B 2281   3.112   0.911   7.964 -1.4459 -1.6991  0.5947
   31CHL1   C24 2282   2.994   1.050   8.077  0.2257 -0.2963  0.1150
   31CHL1  H24A 2283   3.055   1.143   8.068  0.2282 -0.2855  0.2413
   31CHL1  H24B 2284   2.893   1.097   8.084  0.2993 -0.2749  1.2058
   31CHL1   C25 2285   3.015   0.980   8.212  0.2609 -0.5767 -0.0590
   31CHL1   H25 2286   3.119   0.940   8.218 -0.2210 -2.5029 -3.5498
   31CHL1   C26 2287   2.984   1.071   8.329 -0.0306  0.2677  0.1473
   31CHL1  H26A 2288   2.874   1.082   8.328 -0.0717  0.3452  2.6219
   31CHL1  H26B 2289   3.017   1.033   8.428 -1.5764  2.3070  1.4906
   31CHL1  H26C 2290   3.030   1.172   8.319  0.6946  0.0816  1.3699
   31CHL1   C27 2291   2.933   0.855   8.228  0.4906 -0.0391  0.2791
   31CHL1  H27A 2292   2.962   0.809   8.326  0.0850  1.4774  1.1212
   31CHL1  H27B 2293   2.953   0.776   8.152  1.3798 -0.5687  1.0456
   31CHL1  H27C 2294   2.824   0.875   8.219  0.1167 -2.0728 -0.0285
   32CHL1    C3 2295   4.024   6.167   7.137 -0.8819 -0.5410 -0.2716
   32CHL1    H3 2296   3.925   6.145   7.182  0.5734 -1.9325  2.3560
   32CHL1    O3 2297   3.994   6.168   7.001  0.0662  0.0498 -0.5054
   32CHL1   H3' 2298   4.074   6.129   6.964  0.7781 -1.2346  2.2865
   32CHL1    C4 2299   4.081   6.306   7.181  0.7678  0.6959  0.1199
   32CHL1   H4A 2300   4.164   6.331   7.111 -0.3861  0.3727 -1.4094
   32CHL1   H4B 2301   4.001   6.377   7.151 -0.6568  0.2714  2.7992
   32CHL1    C5 2302   4.125   6.318   7.322 -0.6244 -0.3322  0.9241
   32CHL1    C6 2303   4.079   6.401   7.415 -0.6061 -1.1290  0.3391
   32CHL1    H6 2304   3.998   6.475   7.401  1.3313  1.0719  0.4852
   32CHL1    C7 2305   4.126   6.397   7.557 -0.4813 -0.6376  0.2925
   32CHL1   H7A 2306   4.124   6.497   7.605  1.6099  0.1690 -1.2047
   32CHL1   H7B 2307   4.060   6.331   7.616 -0.7095  2.0822  3.2736
   32CHL1    C8 2308   4.268   6.334   7.583  0.2792 -0.0108  0.4723
   32CHL1    H8 2309   4.347   6.401   7.543  1.2729 -0.7976  1.1277
   32CHL1   C14 2310   4.283   6.316   7.733  0.4365  0.6695 -0.2730
   32CHL1   H14 2311   4.193   6.258   7.764  1.1322 -0.6653 -0.7482
   32CHL1   C15 2312   4.283   6.438   7.820 -0.0624 -0.1276 -0.1694
   32CHL1  H15A 2313   4.335   6.522   7.771 -1.3328 -0.7910 -2.7198
   32CHL1  H15B 2314   4.177   6.465   7.840 -0.7260 -2.2954 -0.5608
   32CHL1   C16 2315   4.352   6.390   7.947  0.2365  0.2347 -0.3414
   32CHL1  H16A 2316   4.444   6.449   7.969  1.5109 -1.1426 -1.8647
   32CHL1  H16B 2317   4.282   6.401   8.032  2.7204  0.8267  1.6831
   32CHL1   C17 2318   4.397   6.242   7.926 -0.3949  0.5369  0.3479
   32CHL1   H17 2319   4.316   6.173   7.957  0.1719 -1.1570 -1.8201
   32CHL1   C13 2320   4.406   6.233   7.770 -1.2935  0.0261  0.2471
   32CHL1   C18 2321   4.541   6.299   7.736  0.6983  0.3299  0.4245
   32CHL1  H18A 2322   4.615   6.216   7.730 -0.8359 -1.0813  0.8483
   32CHL1  H18B 2323   4.529   6.344   7.635 -1.0061 -1.5749 -0.2476
   32CHL1  H18C 2324   4.573   6.385   7.798  1.5885  1.0220 -0.9682
   32CHL1   C12 2325   4.394   6.093   7.706  0.6623 -0.1162 -0.5450
   32CHL1  H12A 2326   4.473   6.016   7.719 -0.8658 -2.1379 -2.7033
   32CHL1  H12B 2327   4.294   6.060   7.741  1.2284 -1.2486  0.0135
   32CHL1   C11 2328   4.382   6.108   7.550  0.5463 -0.1012 -0.4518
   32CHL1  H11A 2329   4.469   6.169   7.516 -0.9546  0.7296 -2.9238
   32CHL1  H11B 2330   4.388   6.010   7.500 -0.1488 -0.6894  0.6118
   32CHL1    C9 2331   4.252   6.190   7.522 -0.0013  0.0847 -0.4490
   32CHL1    H9 2332   4.162   6.147   7.571 -0.2504  0.4957 -0.5452
   32CHL1   C10 2333   4.214   6.200   7.370  0.2262 -0.6450 -0.6809
   32CHL1   C19 2334   4.347   6.231   7.289 -0.5122 -0.1892 -0.1214
   32CHL1  H19A 2335   4.398   6.322   7.326 -0.6808 -0.5935  1.1186
   32CHL1  H19B 2336   4.403   6.135   7.288 -0.8243 -0.3839  1.0062
   32CHL1  H19C 2337   4.332   6.250   7.180 -1.2918 -0.8329 -0.1347
   32CHL1    C1 2338   4.161   6.058   7.318 -0.0112 -0.7687 -0.2711
   32CHL1   H1A 2339   4.228   5.975   7.351 -1.3172 -1.2057  1.2981
   32CHL1   H1B 2340   4.077   6.030   7.384  1.4029 -0.1671  1.8490
   32CHL1    C2 2341   4.116   6.051   7.171 -0.8773  0.0650 -0.8953
   32CHL1   H2A 2342   4.076   5.955   7.133 -0.0726 -0.2291 -1.0032
   32CHL1   H2B 2343   4.208   6.067   7.111 -0.9608  0.6698 -0.8650
   32CHL1   C20 2344   4.519   6.204   8.010  0.4344 -0.0786  0.2556
   32CHL1   H20 2345   4.607   6.256   7.965  0.1688 -0.9209 -1.2855
   32CHL1   C21 2346   4.544   6.057   7.992  0.3122  0.5260 -0.7283
   32CHL1  H21A 2347   4.627   6.034   8.062  0.0346  2.8809  0.4338
   32CHL1  H21B 2348   4.572   6.021   7.890 -0.9843  1.9107 -1.5924
   32CHL1  H21C 2349   4.458   6.004   8.037  0.5814  0.1946 -0.6013
   32CHL1   C22 2350   4.496   6.241   8.158 -0.0363 -0.0714 -0.5237
   32CHL1  H22A 2351   4.592   6.242   8.214  0.5293 -0.3609 -1.4845
   32CHL1  H22B 2352   4.467   6.347   8.168 -0.3778 -0.5124  3.9709
   32CHL1   C23 2353   4.392   6.168   8.245  0.5358 -0.2645  0.6761
   32CHL1  H23A 2354   4.298   6.200   8.195  1.6677 -0.2310 -1.5094
   32CHL1  H23B 2355   4.386   6.059   8.225 -0.6794 -0.7271  3.3032
   32CHL1   C24 2356   4.391   6.231   8.390  0.0267  1.1506  0.0806
   32CHL1  H24A 2357   4.383   6.340   8.374  0.5770  1.1957  0.0864
   32CHL1  H24B 2358   4.292   6.204   8.431  0.8633 -0.5676  1.0275
   32CHL1   C25 2359   4.508   6.198   8.481 -0.2616 -0.4894  0.4876
   32CHL1   H25 2360   4.599   6.242   8.436 -1.1411  0.4758 -0.3786
   32CHL1   C26 2361   4.484   6.258   8.631 -0.5352  1.4893  0.5896
   32CHL1  H26A 2362   4.580   6.245   8.686  1.0325  3.1164 -1.6582
   32CHL1  H26B 2363   4.452   6.364   8.625  1.6495  2.1936  1.0028
   32CHL1  H26C 2364   4.415   6.184   8.677 -0.9327  1.3071 -0.2978
   32CHL1   C27 2365   4.526   6.039   8.498 -0.3628  0.3023 -0.1267
   32CHL1  H27A 2366   4.457   6.003   8.578 -2.0971  3.1939 -0.2555
   32CHL1  H27B 2367   4.514   5.991   8.398 -2.7637 -1.1536  0.8250
   32CHL1  H27C 2368   4.627   6.013   8.534 -0.6099  0.5280  0.7353
   33CHL1    C3 2369   4.935   6.530   6.811  0.3919 -0.9033  0.3657
   33CHL1    H3 2370   4.830   6.566   6.798  1.1518  0.8668 -1.0114
   33CHL1    O3 2371   5.011   6.485   6.697 -0.1087  0.3736  0.1256
   33CHL1   H3' 2372   5.022   6.389   6.700 -1.3540  0.2256  0.1212
   33CHL1    C4 2373   5.012   6.641   6.879 -0.4163  0.3329 -0.1989
   33CHL1   H4A 2374   5.115   6.601   6.888 -0.6077 -0.9383 -3.0083
   33CHL1   H4B 2375   5.027   6.723   6.805 -1.0187  0.5365 -0.1037
   33CHL1    C5 2376   4.955   6.688   7.013 -0.0008  0.0118  0.4689
   33CHL1    C6 2377   4.920   6.815   7.030 -0.0957 -0.0835  0.7785
   33CHL1    H6 2378   4.933   6.892   6.953  0.6333  1.1683  2.1161
   33CHL1    C7 2379   4.873   6.876   7.158 -0.6414 -0.0324  0.4572
   33CHL1   H7A 2380   4.927   6.968   7.190  1.3351 -1.4080  1.1154
   33CHL1   H7B 2381   4.772   6.922   7.150 -0.7139 -0.2568  0.0660
   33CHL1    C8 2382   4.889   6.774   7.279  0.1621  0.7923 -0.1560
   33CHL1    H8 2383   4.999   6.773   7.292 -0.0737 -2.2717  2.2556
   33CHL1   C14 2384   4.807   6.809   7.404 -0.3609  0.9036 -0.1110
   33CHL1   H14 2385   4.699   6.814   7.378 -0.5508 -0.6264  0.3350
   33CHL1   C15 2386   4.842   6.945   7.475  0.4020  0.4835 -0.2604
   33CHL1  H15A 2387   4.947   6.974   7.453  0.0936  0.0584 -2.4539
   33CHL1  H15B 2388   4.779   7.029   7.437 -0.0639  1.0646  1.7601
   33CHL1   C16 2389   4.797   6.930   7.623 -0.0018  0.7014 -0.4111
   33CHL1  H16A 2390   4.890   6.968   7.670  0.2388 -2.0300  1.4536
   33CHL1  H16B 2391   4.724   7.004   7.664  0.1153  0.4774  0.2101
   33CHL1   C17 2392   4.765   6.779   7.648  0.9759  0.6260 -0.7007
   33CHL1   H17 2393   4.660   6.766   7.616  1.1250  2.7142 -2.1305
   33CHL1   C13 2394   4.835   6.706   7.524 -0.2570 -0.3233  0.2974
   33CHL1   C18 2395   4.989   6.704   7.558 -0.4565 -0.2456 -0.3596
   33CHL1  H18A 2396   5.017   6.627   7.633 -0.3082 -0.6422 -0.8183
   33CHL1  H18B 2397   5.054   6.679   7.471 -1.1664 -1.0702 -0.6597
   33CHL1  H18C 2398   5.025   6.799   7.605  1.1999 -0.1494 -1.7795
   33CHL1   C12 2399   4.778   6.570   7.492  0.3247 -0.2556 -0.1008
   33CHL1  H12A 2400   4.822   6.502   7.569  0.0377 -1.6846 -1.1798
   33CHL1  H12B 2401   4.668   6.563   7.484  0.4742 -1.3132 -1.2647
   33CHL1   C11 2402   4.829   6.530   7.356 -0.3215  0.5846  0.4160
   33CHL1  H11A 2403   4.936   6.505   7.376 -0.5107 -1.2309 -0.6206
   33CHL1  H11B 2404   4.784   6.433   7.324 -0.4353  0.7935 -0.0753
   33CHL1    C9 2405   4.852   6.631   7.237  0.3630 -0.0764  0.1412
   33CHL1    H9 2406   4.745   6.635   7.207 -0.1691  1.4746  2.1264
   33CHL1   C10 2407   4.929   6.578   7.116 -0.2368 -0.5338  0.3046
   33CHL1   C19 2408   5.080   6.554   7.157  0.7463 -0.2269  0.5884
   33CHL1  H19A 2409   5.077   6.471   7.231 -1.6966 -0.1240  0.6418
   33CHL1  H19B 2410   5.140   6.518   7.072 -0.4245  0.1481 -0.4108
   33CHL1  H19C 2411   5.130   6.638   7.210 -0.2381  0.1017  1.0098
   33CHL1    C1 2412   4.860   6.452   7.050 -0.0813 -0.2613 -0.3476
   33CHL1   H1A 2413   4.879   6.376   7.128  0.7284  0.4567  0.1713
   33CHL1   H1B 2414   4.753   6.475   7.036 -0.4036 -0.8748  1.0582
   33CHL1    C2 2415   4.920   6.409   6.911 -0.2980  0.4888 -0.0086
   33CHL1   H2A 2416   4.861   6.327   6.865  1.6998 -2.2712  2.1991
   33CHL1   H2B 2417   5.025   6.377   6.931  0.0234  1.5945  0.1105
   33CHL1   C20 2418   4.783   6.737   7.792  0.0268 -0.0433 -0.4959
   33CHL1   H20 2419   4.892   6.724   7.810  0.0967  0.0575 -0.8424
   33CHL1   C21 2420   4.699   6.611   7.810 -0.4279 -0.6280 -0.3031
   33CHL1  H21A 2421   4.594   6.624   7.777 -0.5743 -1.5983 -0.2165
   33CHL1  H21B 2422   4.696   6.573   7.914 -0.6774 -1.6757 -0.6905
   33CHL1  H21C 2423   4.754   6.530   7.758  3.0971  1.0543  0.6289
   33CHL1   C22 2424   4.728   6.843   7.887 -0.0928 -0.8045  0.0665
   33CHL1  H22A 2425   4.808   6.920   7.891  0.1352 -0.9982 -0.6011
   33CHL1  H22B 2426   4.629   6.872   7.847 -0.5521 -0.6335  1.3065
   33CHL1   C23 2427   4.699   6.802   8.032 -0.6644 -0.2035  0.1587
   33CHL1  H23A 2428   4.673   6.887   8.099 -1.7139 -1.5421  1.4548
   33CHL1  H23B 2429   4.601   6.750   8.030 -0.9443  0.1711  2.6996
   33CHL1   C24 2430   4.818   6.732   8.107  0.8568  0.0959 -0.2522
   33CHL1  H24A 2431   4.851   6.643   8.050 -1.2356 -1.2148  0.5611
   33CHL1  H24B 2432   4.904   6.799   8.128  0.7051 -0.3883  1.9810
   33CHL1   C25 2433   4.768   6.677   8.240  0.1057 -0.0106  0.4507
   33CHL1   H25 2434   4.716   6.753   8.302 -1.2566 -0.3325 -0.2633
   33CHL1   C26 2435   4.670   6.556   8.209 -0.1240 -0.9533 -0.3497
   33CHL1  H26A 2436   4.636   6.512   8.304  0.7580  0.5580  0.6851
   33CHL1  H26B 2437   4.579   6.597   8.160 -0.0479  0.3421  0.5588
   33CHL1  H26C 2438   4.704   6.477   8.139  1.3265 -0.3772 -0.3178
   33CHL1   C27 2439   4.881   6.631   8.334  0.5860  1.4206  0.2397
   33CHL1  H27A 2440   4.955   6.712   8.349  3.2358 -0.8341 -0.1358
   33CHL1  H27B 2441   4.843   6.597   8.433  1.2197  0.1457  0.0668
   33CHL1  H27C 2442   4.949   6.555   8.290  1.8521  3.0943 -0.7670
   34CHL1    C3 2443   5.652   4.628   7.181  0.4171  0.4481 -0.0709
   34CHL1    H3 2444   5.574   4.556   7.213 -1.9624  2.0929 -2.0582
   34CHL1    O3 2445   5.616   4.665   7.050 -0.2626  0.8134  0.4928
   34CHL1   H3' 2446   5.639   4.588   6.997 -3.2852  0.3911 -0.3335
   34CHL1    C4 2447   5.648   4.750   7.272 -0.1564  0.1860  0.8262
   34CHL1   H4A 2448   5.714   4.829   7.228 -0.3015 -0.1766 -0.0487
   34CHL1   H4B 2449   5.548   4.796   7.259 -1.6154 -3.4511 -1.5468
   34CHL1    C5 2450   5.690   4.721   7.416  0.3659  0.4141  0.5402
   34CHL1    C6 2451   5.612   4.754   7.517  0.2610 -0.3480 -0.1042
   34CHL1    H6 2452   5.514   4.803   7.503  1.5824  2.2159 -0.5627
   34CHL1    C7 2453   5.651   4.749   7.661 -1.0515 -0.3187 -0.3519
   34CHL1   H7A 2454   5.613   4.840   7.712  1.1327  0.7027 -0.4920
   34CHL1   H7B 2455   5.604   4.662   7.712 -2.0227  0.4057  0.0126
   34CHL1    C8 2456   5.802   4.723   7.679 -0.3196 -0.1802  0.2061
   34CHL1    H8 2457   5.856   4.818   7.658 -1.9849  0.6129 -0.6523
   34CHL1   C14 2458   5.837   4.680   7.821  0.0993 -0.2969 -0.0663
   34CHL1   H14 2459   5.786   4.583   7.832  1.2015 -1.1697 -2.2279
   34CHL1   C15 2460   5.783   4.764   7.933  0.4546  0.5276 -0.0160
   34CHL1  H15A 2461   5.822   4.866   7.916  0.1227  0.7695  0.6196
   34CHL1  H15B 2462   5.674   4.767   7.954  0.9027  2.3248  2.2474
   34CHL1   C16 2463   5.852   4.704   8.052 -0.7611  0.0789 -0.1004
   34CHL1  H16A 2464   5.888   4.777   8.127  0.0234 -0.9356  0.5387
   34CHL1  H16B 2465   5.795   4.625   8.106 -2.1449  1.1298 -0.0152
   34CHL1   C17 2466   5.979   4.620   7.995 -0.1187  0.3910 -0.4975
   34CHL1   H17 2467   5.951   4.513   8.001  0.1614  0.2746 -1.2639
   34CHL1   C13 2468   5.982   4.656   7.843 -0.1580 -0.1719  0.0394
   34CHL1   C18 2469   6.069   4.785   7.810 -0.1963  0.1040 -0.9985
   34CHL1  H18A 2470   6.063   4.813   7.702  1.2718  2.7813 -0.4180
   34CHL1  H18B 2471   6.034   4.866   7.876 -1.0916 -1.5822  0.6265
   34CHL1  H18C 2472   6.177   4.766   7.827 -0.4484  0.9082  1.6758
   34CHL1   C12 2473   6.022   4.539   7.752  0.3336 -0.2175  0.4931
   34CHL1  H12A 2474   6.132   4.534   7.764  0.7836  2.7888 -1.8816
   34CHL1  H12B 2475   5.965   4.447   7.778 -2.3441  1.0143 -0.7462
   34CHL1   C11 2476   5.993   4.564   7.606  0.0840  0.6041 -0.8641
   34CHL1  H11A 2477   6.059   4.647   7.573  0.9987  1.1915  2.2230
   34CHL1  H11B 2478   6.013   4.475   7.543 -2.8035 -1.3862  0.9096
   34CHL1    C9 2479   5.853   4.613   7.582 -0.1150 -0.2455 -0.4531
   34CHL1    H9 2480   5.779   4.532   7.601 -0.8258  0.3078 -0.8181
   34CHL1   C10 2481   5.828   4.654   7.432  0.1995 -0.4006 -0.2706
   34CHL1   C19 2482   5.936   4.767   7.392 -0.1170  0.3496  0.3144
   34CHL1  H19A 2483   5.931   4.849   7.467 -1.9322  0.6412 -0.1085
   34CHL1  H19B 2484   6.037   4.724   7.374 -0.4982 -1.0187  1.2693
   34CHL1  H19C 2485   5.903   4.824   7.303  1.9277  2.3535  0.8038
   34CHL1    C1 2486   5.834   4.540   7.331  0.0816 -0.1528 -0.6589
   34CHL1   H1A 2487   5.937   4.498   7.335  0.4943  0.9137  0.1525
   34CHL1   H1B 2488   5.775   4.459   7.379  1.2027 -1.0436 -0.7618
   34CHL1    C2 2489   5.791   4.562   7.186  0.4101 -0.1827  0.8675
   34CHL1   H2A 2490   5.788   4.464   7.133 -0.7109  0.0457  0.5156
   34CHL1   H2B 2491   5.864   4.626   7.133 -2.2190  1.2698 -1.0708
   34CHL1   C20 2492   6.105   4.645   8.085 -0.4761 -0.3465  0.4045
   34CHL1   H20 2493   6.130   4.753   8.082 -0.0301 -0.4145  1.3483
   34CHL1   C21 2494   6.233   4.571   8.040  0.5463  0.4218  0.2018
   34CHL1  H21A 2495   6.254   4.584   7.932 -1.9682  0.9893 -0.2570
   34CHL1  H21B 2496   6.226   4.464   8.069 -0.8263 -0.6785 -3.8568
   34CHL1  H21C 2497   6.326   4.615   8.082  1.2420 -0.3955 -0.4689
   34CHL1   C22 2498   6.081   4.612   8.237 -0.0546  0.1412 -1.0330
   34CHL1  H22A 2499   5.979   4.638   8.270 -0.0463 -1.4008  0.2516
   34CHL1  H22B 2500   6.107   4.507   8.263 -2.0778  0.4821  2.6158
   34CHL1   C23 2501   6.178   4.690   8.328 -0.2416  0.0847 -0.7603
   34CHL1  H23A 2502   6.284   4.681   8.297 -0.5006 -0.6272 -1.4472
   34CHL1  H23B 2503   6.155   4.799   8.318 -3.3313 -0.2506  1.9892
   34CHL1   C24 2504   6.181   4.641   8.473 -0.7067  0.2922 -0.8928
   34CHL1  H24A 2505   6.214   4.535   8.470 -3.0143 -0.4396 -0.7550
   34CHL1  H24B 2506   6.268   4.692   8.520 -1.9216  0.7586  0.9059
   34CHL1   C25 2507   6.056   4.665   8.562  0.2330  0.8801 -0.0172
   34CHL1   H25 2508   5.970   4.635   8.499 -0.0204  0.2102  0.6463
   34CHL1   C26 2509   6.050   4.592   8.697 -0.2439 -0.1848  1.0911
   34CHL1  H26A 2510   6.112   4.645   8.773  0.7135  0.7869 -0.3539
   34CHL1  H26B 2511   5.946   4.603   8.735 -0.4419 -0.5488  0.6569
   34CHL1  H26C 2512   6.074   4.484   8.686  1.5030  0.4931 -2.3699
   34CHL1   C27 2513   6.047   4.814   8.593  0.0662 -0.5282  0.3060
   34CHL1  H27A 2514   6.143   4.855   8.630 -1.7396  3.2036  1.0688
   34CHL1  H27B 2515   6.030   4.864   8.495 -1.9463 -0.6840  0.5450
   34CHL1  H27C 2516   5.965   4.847   8.661 -0.6703 -0.5003 -0.5827
   35CHL1    C3 2517   2.548   5.673   7.373  0.4450  0.0293 -0.5635
   35CHL1    H3 2518   2.611   5.582   7.365  0.3814 -0.0916  0.2070
   35CHL1    O3 2519   2.515   5.722   7.241 -0.2694 -0.0623 -0.0192
   35CHL1   H3' 2520   2.595   5.747   7.194  0.2515  2.1215  1.9257
   35CHL1    C4 2521   2.419   5.652   7.458 -0.8497 -0.4039 -0.3089
   35CHL1   H4A 2522   2.357   5.739   7.429 -0.6957 -0.5984 -1.2406
   35CHL1   H4B 2523   2.377   5.555   7.422 -1.5037 -1.2279  2.5931
   35CHL1    C5 2524   2.454   5.644   7.612 -0.3702  0.6663  0.3571
   35CHL1    C6 2525   2.408   5.539   7.684 -0.4076 -0.1068  0.4183
   35CHL1    H6 2526   2.339   5.461   7.649  0.2483 -1.5932  2.2856
   35CHL1    C7 2527   2.437   5.520   7.827 -0.4232  0.0820  0.5403
   35CHL1   H7A 2528   2.341   5.485   7.869  0.0858 -2.8901 -0.6586
   35CHL1   H7B 2529   2.513   5.440   7.842 -0.8979  0.0206  2.7643
   35CHL1    C8 2530   2.484   5.657   7.898  0.6541 -0.0408  0.0867
   35CHL1    H8 2531   2.389   5.712   7.909 -1.0049 -2.5579 -1.1820
   35CHL1   C14 2532   2.543   5.626   8.028  0.0413  0.0824 -0.2902
   35CHL1   H14 2533   2.628   5.557   8.005  0.2863 -0.4660  2.1911
   35CHL1   C15 2534   2.452   5.548   8.122 -0.1848  0.1840  0.3740
   35CHL1  H15A 2535   2.356   5.604   8.124 -1.1403 -1.3928 -0.1568
   35CHL1  H15B 2536   2.419   5.452   8.076 -0.9251  1.7668 -2.5373
   35CHL1   C16 2537   2.514   5.560   8.263 -0.1513 -0.3954  0.9335
   35CHL1  H16A 2538   2.431   5.611   8.317 -0.7747 -1.1302  0.6831
   35CHL1  H16B 2539   2.543   5.464   8.311 -0.7203 -1.5649 -0.9926
   35CHL1   C17 2540   2.637   5.657   8.242 -0.7981 -0.1797 -0.4182
   35CHL1   H17 2541   2.723   5.593   8.213  0.0804  1.0434 -0.5600
   35CHL1   C13 2542   2.603   5.744   8.116 -0.8758  0.4588 -1.2019
   35CHL1   C18 2543   2.491   5.855   8.135 -0.6448  0.5384 -0.7911
   35CHL1  H18A 2544   2.430   5.871   8.043 -1.6257  0.8745 -0.0968
   35CHL1  H18B 2545   2.418   5.819   8.211 -0.5313  1.6369 -0.1349
   35CHL1  H18C 2546   2.528   5.955   8.168 -0.3624 -0.0459  0.7366
   35CHL1   C12 2547   2.717   5.809   8.032 -0.0348  0.8290  0.7576
   35CHL1  H12A 2548   2.754   5.905   8.074  1.4140  0.2948  0.7427
   35CHL1  H12B 2549   2.798   5.734   8.018 -2.0849 -1.3911  0.4278
   35CHL1   C11 2550   2.664   5.843   7.890  0.0295 -0.6772 -0.3625
   35CHL1  H11A 2551   2.586   5.922   7.892 -0.5471 -1.2592  0.6275
   35CHL1  H11B 2552   2.747   5.888   7.832 -0.1599 -0.6774 -0.6403
   35CHL1    C9 2553   2.594   5.730   7.819 -0.2108 -0.4829 -0.2825
   35CHL1    H9 2554   2.672   5.653   7.802  1.5080  1.1667  0.0099
   35CHL1   C10 2555   2.538   5.760   7.671  0.8288 -0.2423 -0.2342
   35CHL1   C19 2556   2.451   5.898   7.665 -0.1973 -0.1469 -0.1411
   35CHL1  H19A 2557   2.368   5.884   7.737 -0.8059  1.4393 -0.5214
   35CHL1  H19B 2558   2.515   5.986   7.683 -2.1707  1.0181  1.3902
   35CHL1  H19C 2559   2.410   5.912   7.562  0.7675 -1.4176 -0.7158
   35CHL1    C1 2560   2.662   5.769   7.582 -0.0186 -0.3010  0.1334
   35CHL1   H1A 2561   2.711   5.862   7.615 -2.5115  0.8656  0.6538
   35CHL1   H1B 2562   2.727   5.680   7.600 -2.3448 -1.2821  4.2132
   35CHL1    C2 2563   2.635   5.785   7.437 -0.0772  0.9882  0.0570
   35CHL1   H2A 2564   2.733   5.789   7.385  0.3733  1.1056  0.9070
   35CHL1   H2B 2565   2.584   5.881   7.417  0.8633  1.5310  0.2565
   35CHL1   C20 2566   2.666   5.740   8.369  0.1046  0.0394 -0.2792
   35CHL1   H20 2567   2.595   5.826   8.373  0.8926  0.6415  0.9353
   35CHL1   C21 2568   2.805   5.808   8.352 -0.2466  0.6941  0.4875
   35CHL1  H21A 2569   2.839   5.861   8.445  1.0770  1.8499 -0.6257
   35CHL1  H21B 2570   2.801   5.878   8.266  0.9427 -0.3558 -0.4196
   35CHL1  H21C 2571   2.885   5.732   8.337  0.4474  1.6914 -1.0325
   35CHL1   C22 2572   2.657   5.657   8.499  0.3405  0.9505 -0.1498
   35CHL1  H22A 2573   2.551   5.624   8.498  0.5961  0.0686  0.7131
   35CHL1  H22B 2574   2.723   5.568   8.488 -1.2544 -0.2829 -0.0017
   35CHL1   C23 2575   2.673   5.733   8.627 -0.1893  0.1037 -0.6263
   35CHL1  H23A 2576   2.773   5.780   8.631  1.1743 -2.8723  1.6589
   35CHL1  H23B 2577   2.593   5.809   8.619  0.2799  0.9094  2.0194
   35CHL1   C24 2578   2.672   5.644   8.753 -0.1208  0.3844 -0.0920
   35CHL1  H24A 2579   2.762   5.580   8.743 -1.3283 -1.1646 -1.4513
   35CHL1  H24B 2580   2.684   5.708   8.843 -0.4500 -1.4912  1.3149
   35CHL1   C25 2581   2.547   5.554   8.772 -0.2670  0.2487 -0.4784
   35CHL1   H25 2582   2.548   5.476   8.693 -2.5058 -1.4630  1.1107
   35CHL1   C26 2583   2.547   5.488   8.909  0.2740  0.0135 -0.9733
   35CHL1  H26A 2584   2.483   5.399   8.927  1.9515 -0.9524  0.4171
   35CHL1  H26B 2585   2.652   5.453   8.917  0.9235  1.8570 -1.2008
   35CHL1  H26C 2586   2.531   5.561   8.991 -0.9373  0.3558 -1.5035
   35CHL1   C27 2587   2.420   5.633   8.755  0.7658  0.2170  0.4178
   35CHL1  H27A 2588   2.404   5.671   8.652 -3.2875 -0.5954  0.6602
   35CHL1  H27B 2589   2.409   5.715   8.828 -1.9742  0.9778 -0.7605
   35CHL1  H27C 2590   2.337   5.560   8.767  0.9596 -0.0434  0.1800
   36CHL1    C3 2591   3.205   5.030   6.974  1.5598  0.3624 -0.4657
   36CHL1    H3 2592   3.309   4.999   6.953  1.6974  2.5818 -3.4593
   36CHL1    O3 2593   3.147   5.037   6.843  0.8040 -0.1158  0.6922
   36CHL1   H3' 2594   3.067   5.087   6.858  1.8120  1.3510  1.3343
   36CHL1    C4 2595   3.123   4.928   7.054  0.2951  0.4013  0.7870
   36CHL1   H4A 2596   3.017   4.946   7.027 -0.1807 -0.0992  2.2448
   36CHL1   H4B 2597   3.145   4.827   7.013 -0.6756  1.1379 -1.6539
   36CHL1    C5 2598   3.157   4.918   7.201  0.4065 -1.1852 -0.1913
   36CHL1    C6 2599   3.180   4.806   7.265 -0.7104 -0.2145  0.1768
   36CHL1    H6 2600   3.167   4.709   7.215 -0.6856 -0.7929  1.2746
   36CHL1    C7 2601   3.221   4.798   7.411  0.4404  0.3880 -0.5289
   36CHL1   H7A 2602   3.177   4.707   7.458 -0.4420  0.6917 -0.7713
   36CHL1   H7B 2603   3.332   4.790   7.407  0.2851 -1.9269 -1.1576
   36CHL1    C8 2604   3.195   4.922   7.502  0.2323 -0.4356  0.4773
   36CHL1    H8 2605   3.089   4.910   7.534  0.4098 -1.1369  0.8104
   36CHL1   C14 2606   3.287   4.918   7.626 -0.2322  0.3377 -0.3076
   36CHL1   H14 2607   3.387   4.914   7.579 -1.1506 -0.0246 -2.2696
   36CHL1   C15 2608   3.277   4.795   7.716  0.2538 -0.0334 -0.2555
   36CHL1  H15A 2609   3.170   4.777   7.742  0.7753 -3.4835 -0.2123
   36CHL1  H15B 2610   3.328   4.705   7.675  0.8530  0.3996 -0.4571
   36CHL1   C16 2611   3.346   4.842   7.847 -0.3220  0.0323  0.6569
   36CHL1  H16A 2612   3.277   4.843   7.934 -0.4595 -0.3237  0.5537
   36CHL1  H16B 2613   3.432   4.772   7.851 -2.8599 -3.2168  0.9965
   36CHL1   C17 2614   3.382   4.992   7.829 -0.8298 -0.0836  0.2954
   36CHL1   H17 2615   3.489   4.990   7.799 -1.6690  0.7015 -2.9720
   36CHL1   C13 2616   3.294   5.040   7.715 -0.5340  0.6204 -0.7003
   36CHL1   C18 2617   3.152   5.067   7.773  0.0078  0.4064 -0.0646
   36CHL1  H18A 2618   3.129   4.984   7.844  1.3090  0.1543  0.0784
   36CHL1  H18B 2619   3.141   5.166   7.823 -2.2355 -0.4285  1.1858
   36CHL1  H18C 2620   3.080   5.061   7.689 -0.7062 -0.3401  0.5918
   36CHL1   C12 2621   3.339   5.155   7.627  0.8186 -0.2036 -0.3213
   36CHL1  H12A 2622   3.330   5.252   7.680  0.4026  1.2984 -3.0240
   36CHL1  H12B 2623   3.442   5.144   7.586  0.1476 -2.5730 -1.4508
   36CHL1   C11 2624   3.249   5.175   7.509  0.2221 -0.4524  0.0119
   36CHL1  H11A 2625   3.149   5.211   7.540  0.7891 -1.6383  3.3757
   36CHL1  H11B 2626   3.294   5.248   7.439 -1.7455  1.2694  0.5121
   36CHL1    C9 2627   3.234   5.049   7.422  0.3061  0.4048 -0.0602
   36CHL1    H9 2628   3.338   5.019   7.396  0.6614  0.3239  1.4180
   36CHL1   C10 2629   3.167   5.058   7.279  0.3957  0.5454 -0.6790
   36CHL1   C19 2630   3.019   5.093   7.305 -0.2193  0.6703  0.1659
   36CHL1  H19A 2631   3.019   5.185   7.367  4.0407 -0.2839  1.7902
   36CHL1  H19B 2632   2.965   5.110   7.210 -0.2492 -0.1882  0.0244
   36CHL1  H19C 2633   2.977   5.017   7.374 -0.0672  1.3059  0.9745
   36CHL1    C1 2634   3.239   5.160   7.193  0.4734 -0.5180 -0.8035
   36CHL1   H1A 2635   3.231   5.261   7.238 -2.1359 -0.5556 -1.0835
   36CHL1   H1B 2636   3.345   5.128   7.185  0.2945 -0.9382 -1.5082
   36CHL1    C2 2637   3.188   5.166   7.044 -0.4495 -0.0688 -0.3495
   36CHL1   H2A 2638   3.240   5.247   6.987  1.0870  0.3132  1.5684
   36CHL1   H2B 2639   3.080   5.191   7.056 -0.8345 -0.9322 -1.9399
   36CHL1   C20 2640   3.388   5.062   7.964 -0.3476 -0.2024  0.0412
   36CHL1   H20 2641   3.285   5.053   8.006  0.3170 -1.7943  1.3629
   36CHL1   C21 2642   3.417   5.216   7.952 -0.2190  0.2448  0.4446
   36CHL1  H21A 2643   3.516   5.231   7.902 -0.9242 -1.6407 -1.5889
   36CHL1  H21B 2644   3.416   5.271   8.049  2.8830 -1.5527  1.5755
   36CHL1  H21C 2645   3.337   5.267   7.895 -0.0967  0.1104  0.1515
   36CHL1   C22 2646   3.485   4.994   8.059 -0.5858 -0.1980 -0.1504
   36CHL1  H22A 2647   3.485   4.884   8.039  2.0551 -0.3662  0.6561
   36CHL1  H22B 2648   3.584   5.041   8.044 -0.2612 -1.0125 -0.6034
   36CHL1   C23 2649   3.455   5.004   8.208  0.0331  1.0003 -0.6481
   36CHL1  H23A 2650   3.351   4.966   8.219  1.8663 -4.1693 -0.0857
   36CHL1  H23B 2651   3.527   4.931   8.249 -0.8782 -0.0510 -0.8997
   36CHL1   C24 2652   3.476   5.137   8.275 -0.1264 -0.3491 -0.4984
   36CHL1  H24A 2653   3.578   5.178   8.253 -0.2098  1.6322  2.5381
   36CHL1  H24B 2654   3.402   5.215   8.248  0.5505  0.4626 -0.0215
   36CHL1   C25 2655   3.479   5.124   8.425 -0.7091 -0.3046 -0.3006
   36CHL1   H25 2656   3.579   5.082   8.448 -1.0473 -1.8750 -1.5764
   36CHL1   C26 2657   3.468   5.264   8.490 -0.8217  0.6495  0.0752
   36CHL1  H26A 2658   3.503   5.257   8.595 -0.8601 -0.3132  0.0322
   36CHL1  H26B 2659   3.524   5.347   8.443  0.2575  0.4722  1.0280
   36CHL1  H26C 2660   3.363   5.302   8.489 -0.6865  1.0117 -1.0358
   36CHL1   C27 2661   3.380   5.020   8.482  0.7866 -0.3328  0.2351
   36CHL1  H27A 2662   3.393   5.031   8.592 -1.1072  1.5847  0.2830
   36CHL1  H27B 2663   3.277   5.046   8.452 -0.2261 -1.9831  2.1422
   36CHL1  H27C 2664   3.399   4.911   8.466  0.8319 -0.6022  1.9975
   37CHL1    C3 2665   6.732   0.758   6.962  0.0030  0.0578 -0.2939
   37CHL1    H3 2666   6.834   0.778   7.002 -0.2045 -0.2919  0.4262
   37CHL1    O3 2667   6.750   0.727   6.823 -0.2488 -0.7634 -0.4943
   37CHL1   H3' 2668   6.667   0.698   6.786  0.2004 -0.9362 -1.3771
   37CHL1    C4 2669   6.675   0.633   7.028 -0.1376 -0.1348  0.4165
   37CHL1   H4A 2670   6.586   0.592   6.977  0.1549 -0.6052  0.2807
   37CHL1   H4B 2671   6.754   0.558   7.005  1.8235  1.9335  0.1486
   37CHL1    C5 2672   6.657   0.659   7.174 -0.2539  0.3199 -0.1959
   37CHL1    C6 2673   6.727   0.593   7.258 -0.0053 -0.1300 -0.4078
   37CHL1    H6 2674   6.785   0.503   7.233  1.4044 -0.1713  2.8258
   37CHL1    C7 2675   6.726   0.632   7.405  1.1383 -0.4939  0.6454
   37CHL1   H7A 2676   6.737   0.541   7.468  1.4937  0.6084  2.2101
   37CHL1   H7B 2677   6.818   0.692   7.425  1.2037 -0.4739  0.2922
   37CHL1    C8 2678   6.593   0.705   7.451 -0.6029 -0.8754 -0.2273
   37CHL1    H8 2679   6.506   0.637   7.441 -0.5305 -0.9877 -0.0854
   37CHL1   C14 2680   6.592   0.752   7.598  0.4278  0.0092  0.2445
   37CHL1   H14 2681   6.677   0.823   7.613  0.7504  0.2894 -2.5899
   37CHL1   C15 2682   6.596   0.632   7.703 -0.5262  0.5356  0.5547
   37CHL1  H15A 2683   6.548   0.542   7.657  1.0764 -0.7540  1.3344
   37CHL1  H15B 2684   6.701   0.607   7.727 -1.0277  0.2060  2.5174
   37CHL1   C16 2685   6.533   0.694   7.828  0.1634 -0.5913 -0.2469
   37CHL1  H16A 2686   6.451   0.637   7.876 -2.1461  2.8183  0.0120
   37CHL1  H16B 2687   6.609   0.702   7.909 -0.5488  1.9264  0.2214
   37CHL1   C17 2688   6.485   0.837   7.792 -0.0484  0.4059 -0.3285
   37CHL1   H17 2689   6.576   0.901   7.806 -0.1805  0.6971 -0.7760
   37CHL1   C13 2690   6.473   0.831   7.638 -0.3260  0.3531  0.4745
   37CHL1   C18 2691   6.342   0.745   7.606 -0.2768  0.7507 -0.1781
   37CHL1  H18A 2692   6.346   0.641   7.647 -1.6800  0.7403 -0.0543
   37CHL1  H18B 2693   6.254   0.796   7.651 -1.1482  1.7672 -2.9443
   37CHL1  H18C 2694   6.332   0.713   7.500  0.7030 -0.4567  0.0847
   37CHL1   C12 2695   6.481   0.963   7.563 -0.5247  0.2427 -0.4270
   37CHL1  H12A 2696   6.406   1.039   7.593  0.3891  0.7307  0.6492
   37CHL1  H12B 2697   6.577   1.013   7.588 -1.0058  1.1684 -0.3920
   37CHL1   C11 2698   6.468   0.931   7.409 -0.1049  0.5879 -0.6972
   37CHL1  H11A 2699   6.365   0.891   7.390  0.4771 -1.4909  0.3884
   37CHL1  H11B 2700   6.478   1.026   7.352 -0.3868  0.7199 -0.5307
   37CHL1    C9 2701   6.572   0.823   7.360  0.1353  0.2198  0.8800
   37CHL1    H9 2702   6.668   0.880   7.362 -1.6034  3.2702  0.9386
   37CHL1   C10 2703   6.570   0.776   7.207  0.1234  0.0184 -0.5235
   37CHL1   C19 2704   6.429   0.732   7.171 -0.1057  0.1858  0.0132
   37CHL1  H19A 2705   6.426   0.711   7.062 -0.7261 -0.0762  0.0781
   37CHL1  H19B 2706   6.403   0.645   7.234 -1.3452 -0.8055 -1.8173
   37CHL1  H19C 2707   6.359   0.815   7.197  1.4048  1.8579 -1.1451
   37CHL1    C1 2708   6.607   0.897   7.120  0.0301 -0.1477  0.0451
   37CHL1   H1A 2709   6.524   0.969   7.138  0.5105  0.3098  0.4256
   37CHL1   H1B 2710   6.693   0.952   7.164 -1.5102 -0.3524  3.4458
   37CHL1    C2 2711   6.643   0.877   6.977 -0.4302 -0.1704 -0.8992
   37CHL1   H2A 2712   6.695   0.960   6.925 -0.4843 -0.3384 -1.2242
   37CHL1   H2B 2713   6.553   0.856   6.915 -0.8124  1.1057 -0.7752
   37CHL1   C20 2714   6.373   0.889   7.876 -0.4412 -0.4712 -0.1078
   37CHL1   H20 2715   6.290   0.815   7.863 -1.7725  0.8733  0.5663
   37CHL1   C21 2716   6.302   1.018   7.838  0.1032 -0.0989 -0.1305
   37CHL1  H21A 2717   6.254   0.996   7.740 -1.7092  1.6699  0.3364
   37CHL1  H21B 2718   6.363   1.111   7.835 -1.7066  1.1388  0.9702
   37CHL1  H21C 2719   6.216   1.044   7.902  2.7042  3.0808  2.2344
   37CHL1   C22 2720   6.415   0.909   8.022  1.1447 -0.3466  0.1508
   37CHL1  H22A 2721   6.483   0.829   8.059  0.9149 -0.2494  0.7930
   37CHL1  H22B 2722   6.465   1.008   8.019 -3.3892  2.1418  1.3556
   37CHL1   C23 2723   6.302   0.917   8.130  0.0822 -0.0335 -0.2364
   37CHL1  H23A 2724   6.202   0.891   8.088 -0.2592  0.2646  0.3853
   37CHL1  H23B 2725   6.312   0.838   8.208 -2.0953 -0.7577 -0.6589
   37CHL1   C24 2726   6.313   1.053   8.214 -0.4214  0.3443  0.9575
   37CHL1  H24A 2727   6.398   1.045   8.285  0.7946  2.0872 -0.2657
   37CHL1  H24B 2728   6.313   1.145   8.153  0.4923 -1.3334 -1.6568
   37CHL1   C25 2729   6.194   1.062   8.304 -0.1959 -0.2252 -0.1584
   37CHL1   H25 2730   6.204   1.145   8.378 -1.4239  0.6575 -0.9613
   37CHL1   C26 2731   6.063   1.094   8.220  0.0528 -0.1544 -0.3748
   37CHL1  H26A 2732   6.033   1.026   8.137 -0.8806 -1.1296  0.7311
   37CHL1  H26B 2733   5.981   1.110   8.293 -0.7212 -0.5659 -1.1359
   37CHL1  H26C 2734   6.093   1.194   8.183  0.7535  0.4752  1.8618
   37CHL1   C27 2735   6.159   0.941   8.394  0.2188  1.1006  0.3908
   37CHL1  H27A 2736   6.095   0.971   8.480 -0.9841 -1.3926  0.3940
   37CHL1  H27B 2737   6.114   0.860   8.334  2.1655  0.8318 -0.7329
   37CHL1  H27C 2738   6.255   0.907   8.439  0.3402 -0.4607 -1.0222
   38CHL1    C3 2739   2.836   1.475   6.804 -0.0277  0.2512  0.1198
   38CHL1    H3 2740   2.748   1.537   6.832 -0.9881  0.0550 -2.3506
   38CHL1    O3 2741   2.826   1.444   6.670 -0.5354  0.1034 -0.2484
   38CHL1   H3' 2742   2.854   1.523   6.624  0.3639  0.0766  0.2428
   38CHL1    C4 2743   2.968   1.549   6.834 -0.1856 -0.4922  1.0196
   38CHL1   H4A 2744   3.051   1.483   6.799  0.1699  1.8505 -2.9215
   38CHL1   H4B 2745   2.965   1.638   6.768  0.8951 -0.8028  0.5494
   38CHL1    C5 2746   2.980   1.580   6.976 -0.2635 -0.3612 -0.5612
   38CHL1    C6 2747   2.996   1.707   7.009 -0.1614 -0.6078 -0.4474
   38CHL1    H6 2748   3.001   1.786   6.932 -0.2928 -0.8326 -0.6867
   38CHL1    C7 2749   3.021   1.746   7.153  0.0726  0.3226  0.9106
   38CHL1   H7A 2750   3.121   1.794   7.162  0.6139 -0.1177 -2.2268
   38CHL1   H7B 2751   2.939   1.809   7.193  0.6012  0.7540  1.3254
   38CHL1    C8 2752   3.043   1.622   7.246 -0.1740  0.0839  0.5484
   38CHL1    H8 2753   3.146   1.589   7.222 -0.7599  0.5571 -2.9507
   38CHL1   C14 2754   3.033   1.660   7.393 -0.0026 -0.5476 -0.1677
   38CHL1   H14 2755   2.924   1.677   7.406  0.2187 -1.0294  2.7114
   38CHL1   C15 2756   3.103   1.791   7.437 -0.5429 -0.0987  0.2521
   38CHL1  H15A 2757   3.204   1.798   7.391  0.5967  0.9549  2.7955
   38CHL1  H15B 2758   3.046   1.885   7.420  0.1666  0.3480  0.3493
   38CHL1   C16 2759   3.122   1.775   7.588 -0.3019 -0.4551  0.0068
   38CHL1  H16A 2760   3.231   1.777   7.605 -0.0835  1.2485 -1.4050
   38CHL1  H16B 2761   3.077   1.860   7.645  0.8855  0.4529 -0.4078
   38CHL1   C17 2762   3.064   1.637   7.626 -0.4303 -0.8091  0.0914
   38CHL1   H17 2763   2.956   1.653   7.644 -0.0283  0.5465  1.4520
   38CHL1   C13 2764   3.068   1.552   7.498  0.5402 -0.4911  0.5641
   38CHL1   C18 2765   3.211   1.507   7.469 -0.0141 -0.0203 -0.4402
   38CHL1  H18A 2766   3.280   1.591   7.490  0.3035 -0.7754  1.6508
   38CHL1  H18B 2767   3.239   1.421   7.534 -0.7331  0.0200 -0.0707
   38CHL1  H18C 2768   3.226   1.469   7.366  1.4544  0.2513 -0.3307
   38CHL1   C12 2769   2.970   1.433   7.472 -0.0132  0.3091  0.2129
   38CHL1  H12A 2770   2.986   1.345   7.537 -0.7102 -0.7092 -0.9906
   38CHL1  H12B 2771   2.875   1.488   7.490 -2.1312 -2.4325 -2.2198
   38CHL1   C11 2772   2.971   1.389   7.323 -0.7296 -0.3867 -0.9551
   38CHL1  H11A 2773   3.060   1.324   7.308 -0.7692 -0.9617  1.1254
   38CHL1  H11B 2774   2.879   1.329   7.316 -2.5216  1.8506  2.1397
   38CHL1    C9 2775   2.949   1.504   7.230 -0.4031  0.7774  0.1571
   38CHL1    H9 2776   2.848   1.549   7.245  0.3525  1.9078  2.0449
   38CHL1   C10 2777   2.960   1.465   7.075 -0.1897  0.2645  0.0002
   38CHL1   C19 2778   3.084   1.369   7.059 -0.4010 -0.2805  0.0396
   38CHL1  H19A 2779   3.072   1.276   7.119 -1.2852 -1.5031 -1.9997
   38CHL1  H19B 2780   3.098   1.336   6.954  2.0731  0.5815  0.0543
   38CHL1  H19C 2781   3.177   1.427   7.076  1.2008 -2.2169 -1.8246
   38CHL1    C1 2782   2.838   1.387   7.042 -0.0584  0.0780 -0.1380
   38CHL1   H1A 2783   2.822   1.290   7.095  0.7157  0.3632  0.6349
   38CHL1   H1B 2784   2.748   1.446   7.068  0.0315  0.4077 -0.5722
   38CHL1    C2 2785   2.830   1.347   6.894  0.2879 -0.4579  0.2644
   38CHL1   H2A 2786   2.743   1.287   6.860 -1.0567  0.1785  2.4832
   38CHL1   H2B 2787   2.914   1.277   6.876  1.6804  0.9047  1.3506
   38CHL1   C20 2788   3.115   1.581   7.759 -0.4818 -0.2485  0.0882
   38CHL1   H20 2789   3.223   1.560   7.746  0.0835  2.1613  0.7370
   38CHL1   C21 2790   3.037   1.450   7.786  0.8915 -0.0988  0.6605
   38CHL1  H21A 2791   2.928   1.454   7.769  0.8853 -0.0575  0.7084
   38CHL1  H21B 2792   3.043   1.419   7.893 -2.4155 -0.7158  0.7161
   38CHL1  H21C 2793   3.066   1.370   7.716 -1.4744 -0.1512 -0.3027
   38CHL1   C22 2794   3.091   1.683   7.874  0.3487 -0.0666  0.5195
   38CHL1  H22A 2795   3.158   1.770   7.856 -1.0120  0.7379 -0.7363
   38CHL1  H22B 2796   2.986   1.719   7.881  0.3157 -0.4102  2.0361
   38CHL1   C23 2797   3.143   1.639   8.012 -0.6361 -0.3557 -0.3458
   38CHL1  H23A 2798   3.073   1.559   8.046  0.2787 -0.1355  2.1063
   38CHL1  H23B 2799   3.246   1.600   8.018  0.9520  3.6805  0.3599
   38CHL1   C24 2800   3.136   1.754   8.109  0.0935 -0.4926  0.3529
   38CHL1  H24A 2801   3.224   1.821   8.097  1.6183 -2.2925  1.2387
   38CHL1  H24B 2802   3.051   1.820   8.082  0.3312 -0.8079 -1.1700
   38CHL1   C25 2803   3.137   1.718   8.261 -0.0725  0.7684  0.1607
   38CHL1   H25 2804   3.050   1.652   8.276 -0.4602  1.2221 -0.0836
   38CHL1   C26 2805   3.265   1.641   8.294  0.3304  0.1926  0.1882
   38CHL1  H26A 2806   3.277   1.613   8.401  0.0106 -0.6583  0.0099
   38CHL1  H26B 2807   3.268   1.550   8.229  0.3845 -1.3602  2.2980
   38CHL1  H26C 2808   3.350   1.703   8.259  1.8687 -2.0009 -0.0986
   38CHL1   C27 2809   3.114   1.831   8.356 -0.2601 -0.0278 -0.0594
   38CHL1  H27A 2810   3.011   1.870   8.341 -0.1922  0.0549 -0.3114
   38CHL1  H27B 2811   3.111   1.787   8.458  1.0790 -0.1352 -0.0652
   38CHL1  H27C 2812   3.192   1.909   8.358 -0.3287  0.1184 -1.7724
   39CHL1    C3 2813   2.273   0.389   6.848 -0.4453 -1.0676 -0.2672
   39CHL1    H3 2814   2.164   0.390   6.868 -0.7470 -3.1644 -1.6204
   39CHL1    O3 2815   2.284   0.354   6.712 -0.2579 -0.5245  0.6427
   39CHL1   H3' 2816   2.231   0.274   6.711 -1.3133  0.1284  2.0354
   39CHL1    C4 2817   2.345   0.526   6.863 -0.1420 -0.0103 -1.0060
   39CHL1   H4A 2818   2.445   0.530   6.816 -0.2878  2.1203 -1.1582
   39CHL1   H4B 2819   2.274   0.598   6.817 -0.7829  0.5046  0.7316
   39CHL1    C5 2820   2.361   0.560   7.013 -0.2856  0.6791  0.1892
   39CHL1    C6 2821   2.315   0.676   7.057  0.0031  0.4054  0.2183
   39CHL1    H6 2822   2.266   0.740   6.981  1.4255  0.0631 -1.0102
   39CHL1    C7 2823   2.321   0.730   7.199 -0.0972 -0.4050  0.6127
   39CHL1   H7A 2824   2.354   0.835   7.209 -0.8584  0.0954 -1.8677
   39CHL1   H7B 2825   2.217   0.728   7.239 -0.3088  0.0600  0.0823
   39CHL1    C8 2826   2.396   0.633   7.293  0.8243  0.0000 -0.1326
   39CHL1    H8 2827   2.505   0.632   7.272  0.4921 -1.3542 -1.9434
   39CHL1   C14 2828   2.366   0.668   7.440  0.1341 -0.4806  0.1249
   39CHL1   H14 2829   2.256   0.651   7.437 -0.0411  0.8178 -1.5288
   39CHL1   C15 2830   2.386   0.804   7.492  0.2682  0.2592 -0.8195
   39CHL1  H15A 2831   2.491   0.832   7.468  0.7718 -0.6304  0.3327
   39CHL1  H15B 2832   2.310   0.872   7.447  0.9670  0.8894 -1.0537
   39CHL1   C16 2833   2.359   0.784   7.640  0.1138 -0.1343  0.3620
   39CHL1  H16A 2834   2.425   0.852   7.697  0.2415 -1.4387  1.8042
   39CHL1  H16B 2835   2.254   0.814   7.662  0.6683  1.3179  1.0444
   39CHL1   C17 2836   2.372   0.644   7.673  0.5732  0.3821  0.0168
   39CHL1   H17 2837   2.272   0.598   7.691 -0.7874  3.4423  0.5435
   39CHL1   C13 2838   2.419   0.568   7.543  0.2550 -0.3107  0.0471
   39CHL1   C18 2839   2.576   0.563   7.549  0.7056  0.0308 -0.0843
   39CHL1  H18A 2840   2.623   0.662   7.568  0.0660 -0.1320  2.5584
   39CHL1  H18B 2841   2.624   0.484   7.611  1.3434 -1.0339 -1.8867
   39CHL1  H18C 2842   2.612   0.537   7.447  1.2566  0.0467  0.1027
   39CHL1   C12 2843   2.358   0.428   7.520 -0.2176  1.4141  0.6995
   39CHL1  H12A 2844   2.393   0.348   7.588  0.4386  0.6891 -0.4784
   39CHL1  H12B 2845   2.248   0.437   7.536 -0.9031 -0.3290 -2.6424
   39CHL1   C11 2846   2.387   0.382   7.371  0.9562 -0.6242  0.2054
   39CHL1  H11A 2847   2.495   0.359   7.372  0.5911 -2.3545  1.9817
   39CHL1  H11B 2848   2.333   0.286   7.362 -0.9496  0.4494 -0.1083
   39CHL1    C9 2849   2.359   0.492   7.254 -0.6530 -0.4702 -0.0138
   39CHL1    H9 2850   2.248   0.492   7.246 -0.4987 -0.9164 -2.4678
   39CHL1   C10 2851   2.409   0.454   7.110 -0.0484 -0.3771 -0.2684
   39CHL1   C19 2852   2.560   0.448   7.095 -0.0649  0.2926  0.0584
   39CHL1  H19A 2853   2.579   0.402   6.996 -1.6085 -2.3034  0.9310
   39CHL1  H19B 2854   2.617   0.543   7.102 -1.3834  0.9726  1.8338
   39CHL1  H19C 2855   2.601   0.369   7.161  2.8772  2.5499  1.0209
   39CHL1    C1 2856   2.347   0.310   7.079 -0.0505 -0.4799  0.2348
   39CHL1   H1A 2857   2.413   0.235   7.128  1.4485  0.8250  0.2506
   39CHL1   H1B 2858   2.243   0.294   7.114 -1.1779  2.1940 -1.6929
   39CHL1    C2 2859   2.346   0.285   6.925  0.1157 -0.0930 -0.4416
   39CHL1   H2A 2860   2.295   0.186   6.927  0.2304 -0.1486 -0.2549
   39CHL1   H2B 2861   2.453   0.279   6.898 -0.0563 -0.5561 -1.0396
   39CHL1   C20 2862   2.453   0.628   7.803 -0.9049  0.1918  0.8218
   39CHL1   H20 2863   2.555   0.665   7.782 -1.4294  1.2085 -0.0073
   39CHL1   C21 2864   2.457   0.478   7.838 -0.4359 -0.8046 -0.0821
   39CHL1  H21A 2865   2.500   0.455   7.938  1.9228  1.1280 -0.6271
   39CHL1  H21B 2866   2.505   0.408   7.766  1.3454  0.4702 -0.1470
   39CHL1  H21C 2867   2.349   0.454   7.849 -0.9913  1.9402  0.7708
   39CHL1   C22 2868   2.394   0.700   7.920  0.1922  0.3349 -0.3775
   39CHL1  H22A 2869   2.413   0.810   7.917  3.6670 -0.2210 -0.9888
   39CHL1  H22B 2870   2.284   0.691   7.914  0.0178  2.9773 -2.6420
   39CHL1   C23 2871   2.444   0.660   8.059  0.4314  0.9534 -0.1416
   39CHL1  H23A 2872   2.406   0.561   8.092  2.7929  0.9229  2.6622
   39CHL1  H23B 2873   2.555   0.656   8.060  0.4044  0.2064  0.3257
   39CHL1   C24 2874   2.412   0.764   8.170 -0.5383 -0.1436  0.1009
   39CHL1  H24A 2875   2.459   0.859   8.136 -0.3122 -0.7032 -1.1756
   39CHL1  H24B 2876   2.303   0.782   8.181 -0.4437  1.9803 -2.0902
   39CHL1   C25 2877   2.461   0.716   8.303 -0.1450  0.1147 -0.4837
   39CHL1   H25 2878   2.429   0.611   8.323  0.9544 -0.1743 -0.2000
   39CHL1   C26 2879   2.612   0.721   8.330  0.1133 -0.3265  0.4355
   39CHL1  H26A 2880   2.664   0.658   8.255 -0.2709 -0.1497  0.0237
   39CHL1  H26B 2881   2.650   0.825   8.340  2.5360 -1.0362 -1.0381
   39CHL1  H26C 2882   2.636   0.677   8.429  1.0819 -3.8484 -1.2920
   39CHL1   C27 2883   2.386   0.787   8.415 -0.4105 -0.4662  0.5074
   39CHL1  H27A 2884   2.434   0.780   8.515  2.5964  4.0991 -0.4448
   39CHL1  H27B 2885   2.374   0.894   8.387 -1.5038 -0.8437 -0.5291
   39CHL1  H27C 2886   2.286   0.738   8.411 -1.3772  1.4400  0.7410
   40CHL1    C3 2887   5.449   0.088   6.935 -0.5894  0.7138 -0.2653
   40CHL1    H3 2888   5.341   0.060   6.930 -0.4868  0.0791  0.9584
   40CHL1    O3 2889   5.476   0.123   6.800 -0.4358  0.0388 -0.2480
   40CHL1   H3' 2890   5.570   0.141   6.798 -0.3099 -0.6421 -0.7413
   40CHL1    C4 2891   5.466   0.194   7.032 -0.2326 -0.2383 -1.1148
   40CHL1   H4A 2892   5.571   0.228   7.041 -0.7605  0.8531  1.4848
   40CHL1   H4B 2893   5.414   0.286   6.999 -2.7363 -0.7722  1.1330
   40CHL1    C5 2894   5.423   0.148   7.165  1.5134 -0.5181 -0.6833
   40CHL1    C6 2895   5.317   0.199   7.229 -0.4476 -0.2358  0.5340
   40CHL1    H6 2896   5.257   0.277   7.180 -1.8106 -2.2098 -1.0383
   40CHL1    C7 2897   5.266   0.151   7.363 -0.5373 -0.1869  0.4352
   40CHL1   H7A 2898   5.242   0.241   7.425  3.4835  2.6575 -1.8607
   40CHL1   H7B 2899   5.174   0.090   7.358 -0.0324 -1.0774  1.8264
   40CHL1    C8 2900   5.379   0.080   7.435  0.7725  0.0039 -0.2100
   40CHL1    H8 2901   5.460   0.149   7.466 -0.3701  2.0669 -1.7571
   40CHL1   C14 2902   5.336   0.030   7.566  0.5349 -1.1058  0.2544
   40CHL1   H14 2903   5.253  -0.043   7.550  0.3105 -0.7803 -0.0546
   40CHL1   C15 2904   5.282   0.136   7.672  0.3416  0.1036 -0.2199
   40CHL1  H15A 2905   5.351   0.221   7.654  1.1472 -0.8515 -1.8020
   40CHL1  H15B 2906   5.177   0.165   7.648 -0.3029 -1.7203  0.2555
   40CHL1   C16 2907   5.282   0.056   7.807 -0.2881  0.2231 -0.0678
   40CHL1  H16A 2908   5.354   0.115   7.868 -0.3049  0.6654 -0.4654
   40CHL1  H16B 2909   5.183   0.062   7.856 -0.5434  2.0391 -0.7465
   40CHL1   C17 2910   5.347  -0.083   7.776 -0.4041  0.8133  0.7319
   40CHL1   H17 2911   5.264  -0.150   7.745  0.7282 -0.2469 -0.0917
   40CHL1   C13 2912   5.439  -0.057   7.652  0.4849 -0.3994 -0.3052
   40CHL1   C18 2913   5.562   0.023   7.696 -0.5772  0.1341  0.2331
   40CHL1  H18A 2914   5.626  -0.048   7.753 -1.0401  0.1816  0.8083
   40CHL1  H18B 2915   5.623   0.056   7.609  1.4616  3.4525  2.8065
   40CHL1  H18C 2916   5.549   0.108   7.766  0.9929  1.6493 -1.2550
   40CHL1   C12 2917   5.481  -0.172   7.557  0.9462  0.1963  0.1420
   40CHL1  H12A 2918   5.548  -0.237   7.617  0.2765 -0.7385 -0.1189
   40CHL1  H12B 2919   5.398  -0.246   7.552  0.0315  1.0949  1.5887
   40CHL1   C11 2920   5.540  -0.124   7.427 -0.4468 -0.5358  0.0910
   40CHL1  H11A 2921   5.636  -0.080   7.459  0.2786 -1.1870 -1.1893
   40CHL1  H11B 2922   5.560  -0.207   7.355  1.9398  0.7860 -0.7958
   40CHL1    C9 2923   5.439  -0.028   7.350  0.0913  0.3774  0.3030
   40CHL1    H9 2924   5.353  -0.093   7.325  1.9113 -2.8253  2.1046
   40CHL1   C10 2925   5.501   0.029   7.216  0.3578 -0.4229  0.1276
   40CHL1   C19 2926   5.651   0.060   7.249  0.5426  0.3792  0.4225
   40CHL1  H19A 2927   5.649   0.125   7.339 -0.3086 -0.4667  1.0161
   40CHL1  H19B 2928   5.713  -0.031   7.265 -0.0090 -0.1137 -0.1862
   40CHL1  H19C 2929   5.705   0.110   7.166 -0.7549 -1.5149 -1.6164
   40CHL1    C1 2930   5.496  -0.089   7.116  0.8380  1.2732  0.3512
   40CHL1   H1A 2931   5.570  -0.169   7.138 -1.1719 -1.4153 -2.2443
   40CHL1   H1B 2932   5.396  -0.138   7.127  2.0367 -1.1129  0.9971
   40CHL1    C2 2933   5.520  -0.047   6.965 -0.5911 -0.2361  0.9093
   40CHL1   H2A 2934   5.499  -0.135   6.901  1.1159 -0.8316  1.1475
   40CHL1   H2B 2935   5.630  -0.029   6.960 -0.7364 -0.1516 -3.3776
   40CHL1   C20 2936   5.400  -0.149   7.905  0.0115  0.0211  0.4765
   40CHL1   H20 2937   5.486  -0.095   7.949  0.2018  0.7926 -0.8228
   40CHL1   C21 2938   5.436  -0.291   7.873 -0.3800  0.0446 -0.4214
   40CHL1  H21A 2939   5.538  -0.297   7.830  0.0902 -1.4254  0.8366
   40CHL1  H21B 2940   5.364  -0.338   7.803 -0.4592  1.4438 -1.3040
   40CHL1  H21C 2941   5.437  -0.363   7.958 -0.0244 -0.4036 -0.8033
   40CHL1   C22 2942   5.289  -0.150   8.016  0.8263 -0.1523  0.1650
   40CHL1  H22A 2943   5.227  -0.058   8.019  0.5236 -0.3274 -0.5720
   40CHL1  H22B 2944   5.230  -0.238   7.984  0.5883  0.1252 -0.1624
   40CHL1   C23 2945   5.340  -0.173   8.159 -0.1771 -0.6176  0.4417
   40CHL1  H23A 2946   5.434  -0.231   8.164  0.0463 -0.1971  1.2550
   40CHL1  H23B 2947   5.362  -0.073   8.203 -0.7768  0.4025 -1.5355
   40CHL1   C24 2948   5.243  -0.236   8.267  0.3038 -0.6618  0.0573
   40CHL1  H24A 2949   5.156  -0.171   8.291  1.3008  0.6678  0.1497
   40CHL1  H24B 2950   5.212  -0.331   8.219 -0.6665 -0.0542 -0.5417
   40CHL1   C25 2951   5.309  -0.259   8.400  0.3047  0.6129 -0.0726
   40CHL1   H25 2952   5.418  -0.268   8.378  0.7771 -0.9089  2.6059
   40CHL1   C26 2953   5.295  -0.133   8.496 -0.0507 -0.2615 -0.1004
   40CHL1  H26A 2954   5.331  -0.040   8.448 -2.3639  1.1952  0.9530
   40CHL1  H26B 2955   5.191  -0.109   8.525 -0.9550 -1.9368 -1.8332
   40CHL1  H26C 2956   5.360  -0.153   8.584 -2.2544 -1.9121  1.2066
   40CHL1   C27 2957   5.255  -0.378   8.475 -0.6160  0.3580 -0.0757
   40CHL1  H27A 2958   5.145  -0.380   8.484 -0.8503  1.3796 -2.2471
   40CHL1  H27B 2959   5.288  -0.470   8.420 -0.5459  0.2468  0.1533
   40CHL1  H27C 2960   5.308  -0.392   8.572  0.6990 -0.2347 -0.8485
   41CHL1    C3 2961   6.321   6.667   6.877 -0.1265 -0.5640 -0.2602
   41CHL1    H3 2962   6.348   6.770   6.909  1.1769 -1.2455  0.9182
   41CHL1    O3 2963   6.367   6.650   6.746 -0.1473 -0.3722 -0.7086
   41CHL1   H3' 2964   6.387   6.557   6.733  0.6474 -0.7786  2.8354
   41CHL1    C4 2965   6.397   6.574   6.979  0.1059  0.4124 -0.6863
   41CHL1   H4A 2966   6.380   6.464   6.976 -0.6570  0.5285 -0.6286
   41CHL1   H4B 2967   6.507   6.590   6.970  0.5012 -1.2738  0.8098
   41CHL1    C5 2968   6.347   6.606   7.116  0.4151 -0.3689 -0.2794
   41CHL1    C6 2969   6.435   6.644   7.214  0.1714 -0.0245  0.6478
   41CHL1    H6 2970   6.544   6.647   7.199  0.0192  0.0477 -0.4556
   41CHL1    C7 2971   6.392   6.676   7.355  0.0274 -0.1134  0.2085
   41CHL1   H7A 2972   6.460   6.627   7.428 -0.7520 -0.3761  0.7726
   41CHL1   H7B 2973   6.397   6.786   7.369 -0.1702 -0.2210  1.1625
   41CHL1    C8 2974   6.247   6.630   7.393 -0.0942 -0.0738 -0.3659
   41CHL1    H8 2975   6.252   6.520   7.408 -3.1873 -0.1032  0.9082
   41CHL1   C14 2976   6.203   6.694   7.524  0.2827 -0.1242 -0.8181
   41CHL1   H14 2977   6.201   6.803   7.499  1.6651  0.8038  2.7887
   41CHL1   C15 2978   6.294   6.668   7.650 -0.3931  0.1415 -0.2482
   41CHL1  H15A 2979   6.330   6.564   7.662 -3.8659 -1.2680 -1.5511
   41CHL1  H15B 2980   6.380   6.738   7.640  0.8683 -1.1329  1.4593
   41CHL1   C16 2981   6.203   6.713   7.772  0.0029 -0.1788  1.1399
   41CHL1  H16A 2982   6.180   6.614   7.818  0.9368 -0.7723  0.3533
   41CHL1  H16B 2983   6.260   6.780   7.839 -1.0204  1.1721  0.6771
   41CHL1   C17 2984   6.070   6.758   7.705  0.1878 -0.4954  0.3215
   41CHL1   H17 2985   6.081   6.866   7.682 -0.9431 -0.5911 -0.7059
   41CHL1   C13 2986   6.061   6.685   7.566 -0.3009  1.0217 -0.6761
   41CHL1   C18 2987   6.021   6.540   7.589  0.3751  1.0620  0.1683
   41CHL1  H18A 2988   5.998   6.493   7.491  3.2621  0.9817 -0.5199
   41CHL1  H18B 2989   6.102   6.479   7.636  0.1339 -1.4328 -2.5368
   41CHL1  H18C 2990   5.938   6.527   7.662 -2.1844  1.7620 -2.4995
   41CHL1   C12 2991   5.978   6.750   7.454  0.2649 -0.5332  0.4021
   41CHL1  H12A 2992   5.871   6.729   7.474 -0.0720  0.2496 -0.5526
   41CHL1  H12B 2993   6.008   6.854   7.429 -0.4010 -0.7022 -1.1840
   41CHL1   C11 2994   6.000   6.675   7.315  0.7128  0.1340  0.1229
   41CHL1  H11A 2995   5.964   6.570   7.314  1.0890  0.0053 -0.0003
   41CHL1  H11B 2996   5.940   6.734   7.243  1.4455  1.5072  0.6198
   41CHL1    C9 2997   6.154   6.669   7.276  0.3576  0.1563  0.1324
   41CHL1    H9 2998   6.175   6.776   7.257 -0.6735  0.3830  0.2726
   41CHL1   C10 2999   6.194   6.602   7.140 -0.1291  0.0454  0.6153
   41CHL1   C19 3000   6.157   6.454   7.138  0.7664 -0.2792  0.0681
   41CHL1  H19A 3001   6.201   6.397   7.223 -0.6147 -1.0061  0.2992
   41CHL1  H19B 3002   6.047   6.445   7.150  0.8780 -1.1656  0.4494
   41CHL1  H19C 3003   6.187   6.402   7.044 -1.1738 -2.3506  0.5588
   41CHL1    C1 3004   6.121   6.683   7.030  0.4508  0.0647 -0.4985
   41CHL1   H1A 3005   6.012   6.663   7.040  0.4869 -0.7049 -1.5656
   41CHL1   H1B 3006   6.122   6.790   7.062  1.9901  0.7288 -2.6183
   41CHL1    C2 3007   6.168   6.647   6.892 -0.2549 -0.1611  0.3753
   41CHL1   H2A 3008   6.103   6.704   6.821  0.3386 -0.6987 -0.6182
   41CHL1   H2B 3009   6.132   6.544   6.869  0.6164 -0.4102  0.0933
   41CHL1   C20 3010   5.945   6.763   7.800  0.0271  0.1853  0.3080
   41CHL1   H20 3011   5.860   6.719   7.744 -0.1412 -1.3769  1.7287
   41CHL1   C21 3012   5.913   6.909   7.835 -0.3242 -0.0784 -0.4069
   41CHL1  H21A 3013   5.821   6.912   7.897  1.7604  1.2338  2.7671
   41CHL1  H21B 3014   5.885   6.967   7.745 -0.9745 -0.7665 -0.6520
   41CHL1  H21C 3015   5.997   6.951   7.895  0.6279  0.3658 -2.0152
   41CHL1   C22 3016   5.980   6.677   7.930  0.3478  0.1028 -0.6597
   41CHL1  H22A 3017   5.990   6.576   7.885 -1.4697  0.4364 -1.8462
   41CHL1  H22B 3018   6.073   6.704   7.985 -0.5097  0.5171  0.6140
   41CHL1   C23 3019   5.864   6.680   8.028 -0.0705  0.1055 -0.1572
   41CHL1  H23A 3020   5.843   6.783   8.062  0.2747 -0.3607  1.5152
   41CHL1  H23B 3021   5.773   6.635   7.983 -1.7878  1.5761  1.7259
   41CHL1   C24 3022   5.891   6.596   8.161  0.6668 -0.1908  0.9004
   41CHL1  H24A 3023   5.940   6.500   8.136  0.4060  0.0835 -0.6926
   41CHL1  H24B 3024   5.953   6.652   8.235  0.1481 -0.9597  1.9394
   41CHL1   C25 3025   5.757   6.571   8.235  0.3374 -0.0969 -0.8289
   41CHL1   H25 3026   5.695   6.513   8.163  0.7777 -0.5882 -0.8159
   41CHL1   C26 3027   5.771   6.475   8.358  0.0528  0.2467 -0.0723
   41CHL1  H26A 3028   5.852   6.403   8.335 -1.7265 -0.9785 -2.7461
   41CHL1  H26B 3029   5.802   6.536   8.445 -0.8117  2.4703 -1.2658
   41CHL1  H26C 3030   5.675   6.426   8.386  0.2820  1.0064  2.1160
   41CHL1   C27 3031   5.684   6.697   8.276 -0.3774  0.0193  0.1956
   41CHL1  H27A 3032   5.644   6.756   8.190 -1.9607 -0.6906  0.4200
   41CHL1  H27B 3033   5.590   6.659   8.323 -0.1444 -3.0865 -1.6676
   41CHL1  H27C 3034   5.747   6.762   8.339  1.5128 -0.1096 -1.5083
   42CHL1    C3 3035   0.213   3.736   6.866 -0.6485 -0.8045 -0.3826
   42CHL1    H3 3036   0.156   3.831   6.877 -0.3440 -0.7812  1.2366
   42CHL1    O3 3037   0.228   3.680   6.737  0.2549 -0.4346 -0.0132
   42CHL1   H3' 3038   0.141   3.669   6.697 -0.6190  0.5845  1.5616
   42CHL1    C4 3039   0.351   3.765   6.932 -0.3622  0.0800 -0.6027
   42CHL1   H4A 3040   0.417   3.676   6.934 -0.0846  0.2886 -0.5169
   42CHL1   H4B 3041   0.396   3.837   6.861  0.1690  2.0753  1.6729
   42CHL1    C5 3042   0.333   3.821   7.076  0.6372  0.8169  0.7660
   42CHL1    C6 3043   0.374   3.936   7.121  0.0541  0.6622  0.0953
   42CHL1    H6 3044   0.428   4.003   7.052  1.8214 -1.3008 -0.4864
   42CHL1    C7 3045   0.362   3.973   7.272 -0.4497 -0.3659  0.1520
   42CHL1   H7A 3046   0.443   4.041   7.307 -0.5113  0.1870 -0.7488
   42CHL1   H7B 3047   0.273   4.034   7.296  0.0589  0.0136  1.0827
   42CHL1    C8 3048   0.344   3.853   7.363  0.0420 -0.3243  0.1732
   42CHL1    H8 3049   0.441   3.799   7.361  0.3574  0.2625 -0.6983
   42CHL1   C14 3050   0.305   3.903   7.503  0.3821  0.7821  0.1204
   42CHL1   H14 3051   0.216   3.968   7.492  0.3105  0.7750  0.6625
   42CHL1   C15 3052   0.400   3.999   7.586  0.4125 -0.3288 -0.1730
   42CHL1  H15A 3053   0.501   3.954   7.577  0.2214 -1.2987  2.0607
   42CHL1  H15B 3054   0.401   4.101   7.543 -1.2963 -0.5553 -0.7850
   42CHL1   C16 3055   0.345   3.983   7.731  0.3704  0.6982  0.9659
   42CHL1  H16A 3056   0.417   3.936   7.801 -0.1300  0.1007  1.0793
   42CHL1  H16B 3057   0.320   4.080   7.781  0.2833 -0.7961  3.9333
   42CHL1   C17 3058   0.218   3.891   7.720 -0.2787 -0.1408  0.2401
   42CHL1   H17 3059   0.138   3.954   7.675 -0.5870  0.1537  1.1724
   42CHL1   C13 3060   0.252   3.798   7.602 -0.8616  0.0454  0.2285
   42CHL1   C18 3061   0.354   3.695   7.648  0.0636  0.6745 -1.1263
   42CHL1  H18A 3062   0.315   3.612   7.710  0.9996  0.2529 -1.0908
   42CHL1  H18B 3063   0.404   3.651   7.559  1.0664  1.9696 -1.2368
   42CHL1  H18C 3064   0.444   3.741   7.695  0.0188  0.6745 -1.0420
   42CHL1   C12 3065   0.136   3.719   7.550 -0.0894 -0.0718  0.3099
   42CHL1  H12A 3066   0.124   3.633   7.619  0.3730 -1.9512 -1.8950
   42CHL1  H12B 3067   0.044   3.781   7.540 -1.4967 -1.8641  1.8980
   42CHL1   C11 3068   0.168   3.657   7.414 -0.1381 -0.6604  0.3176
   42CHL1  H11A 3069   0.237   3.573   7.433  2.0433  0.7542 -1.0609
   42CHL1  H11B 3070   0.074   3.614   7.372 -0.3147  0.3825 -0.3723
   42CHL1    C9 3071   0.226   3.767   7.310  0.0039  0.4928 -0.8820
   42CHL1    H9 3072   0.139   3.831   7.285  0.1359  1.0276  0.0275
   42CHL1   C10 3073   0.258   3.717   7.163 -0.0133 -0.0193  0.0361
   42CHL1   C19 3074   0.350   3.597   7.179  0.5558 -0.2831  0.5486
   42CHL1  H19A 3075   0.410   3.564   7.091 -2.5139 -0.6153 -1.5257
   42CHL1  H19B 3076   0.435   3.613   7.248  1.1963 -0.3555 -0.2089
   42CHL1  H19C 3077   0.295   3.505   7.210  0.8870 -0.4750  0.5643
   42CHL1    C1 3078   0.126   3.687   7.096 -0.1289 -0.0113  0.4289
   42CHL1   H1A 3079   0.072   3.613   7.158 -0.5538 -1.2063 -1.3245
   42CHL1   H1B 3080   0.065   3.780   7.102 -0.7447 -0.5287  2.5626
   42CHL1    C2 3081   0.139   3.640   6.951 -0.2592  0.2409 -0.3333
   42CHL1   H2A 3082   0.040   3.617   6.906  0.6599  0.5614 -2.6000
   42CHL1   H2B 3083   0.201   3.548   6.948 -1.1336 -0.4368  2.1632
   42CHL1   C20 3084   0.145   3.827   7.842 -0.2237  0.3988 -0.6734
   42CHL1   H20 3085   0.097   3.730   7.817  1.6845 -1.1021  1.2761
   42CHL1   C21 3086   0.039   3.930   7.891  0.4302  0.3691 -0.0366
   42CHL1  H21A 3087  -0.026   3.888   7.971 -1.5743 -1.1154 -2.3965
   42CHL1  H21B 3088  -0.029   3.960   7.809 -0.3154  0.0964  0.4767
   42CHL1  H21C 3089   0.091   4.021   7.927  0.2474  0.6814 -0.5679
   42CHL1   C22 3090   0.235   3.800   7.964  0.9643 -0.5001 -0.7652
   42CHL1  H22A 3091   0.313   3.730   7.927  2.3661  0.0709  1.0247
   42CHL1  H22B 3092   0.278   3.898   7.993 -1.4314  0.1932  0.6218
   42CHL1   C23 3093   0.159   3.733   8.082  1.4906 -0.0017  0.3840
   42CHL1  H23A 3094   0.060   3.774   8.108  0.8031 -0.1626 -1.9052
   42CHL1  H23B 3095   0.137   3.632   8.040  0.1200  0.1332  0.7741
   42CHL1   C24 3096   0.238   3.739   8.214 -0.0551 -0.1731 -0.0010
   42CHL1  H24A 3097   0.219   3.651   8.279  1.5927  0.1443  0.9516
   42CHL1  H24B 3098   0.339   3.732   8.169  0.0448 -1.0337  0.3469
   42CHL1   C25 3099   0.235   3.866   8.298 -0.4215  0.8314 -0.4913
   42CHL1   H25 3100   0.252   3.951   8.229  0.0437  0.9797 -0.1917
   42CHL1   C26 3101   0.097   3.885   8.363  0.7765 -0.2426  0.3875
   42CHL1  H26A 3102   0.077   3.808   8.441 -1.0421  2.4377  2.6333
   42CHL1  H26B 3103   0.097   3.984   8.413  3.6341 -0.0189  0.0610
   42CHL1  H26C 3104   0.016   3.868   8.290 -0.8512  1.6815  1.6956
   42CHL1   C27 3105   0.343   3.859   8.409 -0.4128 -0.2746 -0.3907
   42CHL1  H27A 3106   0.442   3.851   8.360 -0.2302  0.7916 -0.1954
   42CHL1  H27B 3107   0.316   3.769   8.468 -0.9970 -0.3530 -0.7658
   42CHL1  H27C 3108   0.351   3.944   8.479  0.3387 -0.9669  0.3705
   43CHL1    C3 3109   0.551   0.403   6.871  0.6080 -0.5167  0.5390
   43CHL1    H3 3110   0.654   0.374   6.900  0.5093 -2.1490 -0.7137
   43CHL1    O3 3111   0.535   0.407   6.730  0.0618  0.3277  0.5900
   43CHL1   H3' 3112   0.440   0.414   6.717 -0.1356 -1.2372  1.1364
   43CHL1    C4 3113   0.451   0.300   6.922  0.0029 -0.0962 -0.0525
   43CHL1   H4A 3114   0.358   0.338   6.875  0.0268 -0.6038 -0.5165
   43CHL1   H4B 3115   0.470   0.203   6.871 -1.5285 -0.2029 -0.4258
   43CHL1    C5 3116   0.434   0.309   7.074  0.1953 -0.0641  0.3612
   43CHL1    C6 3117   0.455   0.197   7.145  0.9457  0.5373  0.7121
   43CHL1    H6 3118   0.464   0.101   7.093  0.6809  1.6407 -1.4084
   43CHL1    C7 3119   0.445   0.171   7.293  0.0791 -0.3267 -0.6632
   43CHL1   H7A 3120   0.384   0.084   7.327 -3.6715  2.3141 -0.4391
   43CHL1   H7B 3121   0.548   0.160   7.334  0.1915 -0.1826 -0.9065
   43CHL1    C8 3122   0.388   0.298   7.356 -0.3728 -0.2992 -0.0591
   43CHL1    H8 3123   0.278   0.295   7.344 -0.1003 -1.2741 -2.7862
   43CHL1   C14 3124   0.422   0.306   7.504 -0.0492 -0.6103  0.1436
   43CHL1   H14 3125   0.533   0.314   7.504  0.1056 -2.3939  0.9765
   43CHL1   C15 3126   0.398   0.176   7.582 -1.4199 -0.0073 -0.0098
   43CHL1  H15A 3127   0.304   0.120   7.562 -0.4005 -1.4352 -0.8788
   43CHL1  H15B 3128   0.481   0.104   7.566 -0.9833  0.3697  0.5280
   43CHL1   C16 3129   0.388   0.223   7.731  0.1805 -0.0013 -0.5822
   43CHL1  H16A 3130   0.288   0.203   7.774  0.0062  0.7168 -0.6558
   43CHL1  H16B 3131   0.462   0.169   7.793  0.6225  1.3819  0.1187
   43CHL1   C17 3132   0.412   0.371   7.736 -0.1665 -0.2590 -0.7737
   43CHL1   H17 3133   0.521   0.389   7.749 -0.5511  0.9441  0.8606
   43CHL1   C13 3134   0.373   0.423   7.590  0.7631  0.2841  0.2256
   43CHL1   C18 3135   0.221   0.434   7.583 -0.8637  0.4262  0.2770
   43CHL1  H18A 3136   0.196   0.447   7.476 -0.6528 -1.3714 -0.0041
   43CHL1  H18B 3137   0.164   0.346   7.619  1.9994 -2.3376 -1.6509
   43CHL1  H18C 3138   0.189   0.527   7.635 -2.7229  1.2796 -2.3310
   43CHL1   C12 3139   0.445   0.551   7.538  0.3990 -0.2820 -0.4309
   43CHL1  H12A 3140   0.395   0.641   7.579  1.8491  0.2725  0.1720
   43CHL1  H12B 3141   0.552   0.551   7.568  0.6131 -1.5009 -1.1937
   43CHL1   C11 3142   0.415   0.565   7.385 -0.4762  0.6479  0.2760
   43CHL1  H11A 3143   0.310   0.600   7.375 -1.2531 -1.1763  1.7238
   43CHL1  H11B 3144   0.482   0.642   7.341  1.1265 -0.6290  0.4294
   43CHL1    C9 3145   0.445   0.432   7.299  0.2181  0.6957 -0.2677
   43CHL1    H9 3146   0.553   0.410   7.312 -0.3578 -2.1853  0.0310
   43CHL1   C10 3147   0.423   0.450   7.147 -0.0754  0.0113 -0.0931
   43CHL1   C19 3148   0.275   0.503   7.127 -0.3660  0.0230 -0.4658
   43CHL1  H19A 3149   0.244   0.486   7.022  0.9496  0.8970 -1.0168
   43CHL1  H19B 3150   0.217   0.442   7.200  0.2452  0.9686  0.8301
   43CHL1  H19C 3151   0.275   0.613   7.142 -0.8393 -0.1154  0.6099
   43CHL1    C1 3152   0.532   0.543   7.083 -0.0120 -0.3289  1.0030
   43CHL1   H1A 3153   0.521   0.644   7.128  0.3198 -1.3225  3.3922
   43CHL1   H1B 3154   0.636   0.511   7.104  0.4188  1.2580  1.2854
   43CHL1    C2 3155   0.524   0.545   6.928 -0.2845  0.0044  0.0721
   43CHL1   H2A 3156   0.594   0.623   6.891 -0.6949  1.3550  1.9959
   43CHL1   H2B 3157   0.420   0.568   6.895 -0.5135  0.8279  1.2976
   43CHL1   C20 3158   0.362   0.442   7.862  0.1955 -0.6952 -0.1128
   43CHL1   H20 3159   0.252   0.455   7.857  0.1012 -1.5825 -0.3197
   43CHL1   C21 3160   0.427   0.587   7.873  0.6192  0.2437  0.4563
   43CHL1  H21A 3161   0.378   0.634   7.961  1.2782 -0.4737  1.2253
   43CHL1  H21B 3162   0.398   0.653   7.788 -3.1920 -1.4668  0.3229
   43CHL1  H21C 3163   0.535   0.585   7.897  0.9748  1.1803 -0.9906
   43CHL1   C22 3164   0.392   0.361   7.990 -0.5274  0.6280 -0.2009
   43CHL1  H22A 3165   0.358   0.420   8.078  0.3951  0.2438  0.4229
   43CHL1  H22B 3166   0.328   0.270   7.986 -1.5616  1.1421  3.0905
   43CHL1   C23 3167   0.541   0.325   8.013  0.5676  0.2252  0.5311
   43CHL1  H23A 3168   0.570   0.282   7.915 -1.5570  1.8786 -0.8746
   43CHL1  H23B 3169   0.615   0.407   8.025  1.6316 -0.2788 -2.2027
   43CHL1   C24 3170   0.569   0.213   8.125  0.7687  0.1916  0.1588
   43CHL1  H24A 3171   0.512   0.118   8.119  0.9082  0.1085  0.1624
   43CHL1  H24B 3172   0.675   0.182   8.111  0.6174 -0.5854  0.7311
   43CHL1   C25 3173   0.541   0.269   8.273  0.2313 -0.1527 -0.5925
   43CHL1   H25 3174   0.431   0.277   8.284  0.0951 -1.5948 -0.7522
   43CHL1   C26 3175   0.589   0.174   8.386 -0.2096 -0.4651  0.5337
   43CHL1  H26A 3176   0.582   0.067   8.359 -0.5452 -0.9365  2.3691
   43CHL1  H26B 3177   0.695   0.195   8.412  0.2379  0.0666 -1.6312
   43CHL1  H26C 3178   0.539   0.179   8.485  4.4063 -1.2893  3.0782
   43CHL1   C27 3179   0.607   0.409   8.280 -0.6045 -0.1397 -0.5620
   43CHL1  H27A 3180   0.713   0.405   8.248 -0.5902 -1.7479 -0.3825
   43CHL1  H27B 3181   0.556   0.483   8.216  1.6936 -0.0552 -2.3356
   43CHL1  H27C 3182   0.600   0.436   8.388  1.3981  1.3592 -0.7833
   44CHL1    C3 3183   6.690   5.700   6.607  0.0551  0.6647  0.7522
   44CHL1    H3 3184   6.648   5.802   6.616  2.0796  1.3663  2.6192
   44CHL1    O3 3185   6.674   5.669   6.469 -0.0758 -0.3908 -0.3993
   44CHL1   H3' 3186   6.582   5.673   6.442 -0.1959 -4.0250 -0.7838
   44CHL1    C4 3187   6.829   5.688   6.657 -0.5561  0.0377  0.5210
   44CHL1   H4A 3188   6.867   5.584   6.652 -1.3371 -0.2426  0.2977
   44CHL1   H4B 3189   6.904   5.750   6.604 -2.0162  1.0540 -0.4190
   44CHL1    C5 3190   6.844   5.728   6.805 -0.2451 -0.5587 -0.5371
   44CHL1    C6 3191   6.919   5.829   6.844  0.2002  0.1066 -0.1506
   44CHL1    H6 3192   6.973   5.889   6.769 -1.8272  2.4424  0.1990
   44CHL1    C7 3193   6.937   5.870   6.986 -0.0648  0.2566  0.5394
   44CHL1   H7A 3194   7.043   5.868   7.020 -0.2446  1.9363  1.2522
   44CHL1   H7B 3195   6.908   5.977   6.996 -0.4293  0.3039 -1.0258
   44CHL1    C8 3196   6.871   5.775   7.085 -0.7371 -0.0425  0.4437
   44CHL1    H8 3197   6.931   5.682   7.094 -1.0967 -0.4153 -0.8993
   44CHL1   C14 3198   6.859   5.842   7.216 -0.5101  0.0268 -0.6058
   44CHL1   H14 3199   6.792   5.925   7.185  1.4190  0.2186 -4.4718
   44CHL1   C15 3200   6.983   5.894   7.296 -0.0922 -0.1415 -0.4058
   44CHL1  H15A 3201   7.050   5.807   7.314 -1.5891 -0.9878  1.3423
   44CHL1  H15B 3202   7.032   5.969   7.231  1.2134 -2.3303 -2.0444
   44CHL1   C16 3203   6.918   5.943   7.430 -0.5062 -0.1738 -0.2613
   44CHL1  H16A 3204   6.982   5.917   7.518 -1.0395  0.2069  0.2405
   44CHL1  H16B 3205   6.903   6.052   7.419  0.3812  0.1721  1.6759
   44CHL1   C17 3206   6.782   5.868   7.443 -0.4066 -0.5277 -0.3287
   44CHL1   H17 3207   6.702   5.936   7.409 -0.3944 -0.5383 -0.3782
   44CHL1   C13 3208   6.778   5.766   7.327  0.4852  0.2133 -0.2448
   44CHL1   C18 3209   6.854   5.641   7.379  0.0658  0.5897 -0.1193
   44CHL1  H18A 3210   6.787   5.582   7.445 -0.6533  0.8001 -0.6488
   44CHL1  H18B 3211   6.889   5.578   7.294  0.0546  0.1400  0.2107
   44CHL1  H18C 3212   6.943   5.668   7.439  0.1552 -3.3846  1.6836
   44CHL1   C12 3213   6.641   5.727   7.271 -0.0468 -0.1829  0.1176
   44CHL1  H12A 3214   6.588   5.662   7.344 -1.1623  1.0994  0.4646
   44CHL1  H12B 3215   6.588   5.822   7.250  0.6105  0.3197  0.7112
   44CHL1   C11 3216   6.652   5.655   7.143  0.4039 -0.3043  0.3550
   44CHL1  H11A 3217   6.698   5.555   7.160 -0.8922 -1.2031 -1.2178
   44CHL1  H11B 3218   6.551   5.628   7.105  0.5604 -1.7186  0.9251
   44CHL1    C9 3219   6.733   5.727   7.035 -0.2848  0.2425 -0.0324
   44CHL1    H9 3220   6.674   5.818   7.010 -0.3407 -0.0919 -1.1409
   44CHL1   C10 3221   6.748   5.647   6.898  0.3307 -0.7957 -0.0887
   44CHL1   C19 3222   6.793   5.500   6.918 -0.1464 -0.1196  0.2878
   44CHL1  H19A 3223   6.869   5.494   6.999  2.2337  1.6870 -1.7319
   44CHL1  H19B 3224   6.709   5.434   6.949 -0.6878  1.9800  3.4296
   44CHL1  H19C 3225   6.841   5.455   6.828 -2.6840 -1.9379 -0.2266
   44CHL1    C1 3226   6.603   5.641   6.834 -0.1462 -0.7948 -0.5734
   44CHL1   H1A 3227   6.536   5.578   6.897  0.4672 -0.2074  0.6847
   44CHL1   H1B 3228   6.562   5.743   6.850 -0.0043 -1.0698  1.7013
   44CHL1    C2 3229   6.596   5.608   6.687  0.5928 -0.1322 -0.1939
   44CHL1   H2A 3230   6.490   5.618   6.656  0.3081  1.0130  1.0616
   44CHL1   H2B 3231   6.634   5.505   6.676  0.1827 -0.1814 -1.1953
   44CHL1   C20 3232   6.742   5.818   7.583  0.4304 -1.0491  0.1920
   44CHL1   H20 3233   6.653   5.754   7.566 -1.2305  2.0002 -3.4333
   44CHL1   C21 3234   6.675   5.934   7.666  0.3028  0.1307 -0.0115
   44CHL1  H21A 3235   6.758   6.001   7.698  1.5085 -0.5358 -1.6416
   44CHL1  H21B 3236   6.623   5.892   7.755 -0.7504  0.7467 -0.3361
   44CHL1  H21C 3237   6.603   5.982   7.597  0.6060 -1.9436 -1.8334
   44CHL1   C22 3238   6.850   5.752   7.675 -0.2767  0.5831  0.3371
   44CHL1  H22A 3239   6.897   5.661   7.631 -1.0683  0.5063 -0.3586
   44CHL1  H22B 3240   6.935   5.821   7.696  0.3382 -0.1799  0.3463
   44CHL1   C23 3241   6.794   5.686   7.803  0.3400 -0.6410  0.1427
   44CHL1  H23A 3242   6.747   5.769   7.860  0.7897  0.1803 -0.6870
   44CHL1  H23B 3243   6.718   5.609   7.778 -1.7313  1.3101  0.3018
   44CHL1   C24 3244   6.902   5.618   7.885  0.5026 -0.0729 -0.2244
   44CHL1  H24A 3245   6.966   5.555   7.820  1.7370  0.0339  0.8677
   44CHL1  H24B 3246   6.965   5.700   7.926  1.1669 -1.6782  2.0742
   44CHL1   C25 3247   6.848   5.543   8.003  0.0251 -0.2612  1.3244
   44CHL1   H25 3248   6.764   5.602   8.045 -2.1422 -1.3520 -1.3307
   44CHL1   C26 3249   6.797   5.402   7.965  0.7330 -0.2946 -0.1120
   44CHL1  H26A 3250   6.879   5.345   7.917  0.9441  1.3859 -1.7511
   44CHL1  H26B 3251   6.746   5.343   8.044 -0.3104  1.8428  0.8553
   44CHL1  H26C 3252   6.732   5.426   7.878  0.8061  0.7533  0.1176
   44CHL1   C27 3253   6.946   5.520   8.117 -0.0382  0.1168 -0.0691
   44CHL1  H27A 3254   6.986   5.616   8.157  2.0182 -0.3993 -0.8235
   44CHL1  H27B 3255   6.912   5.459   8.204 -1.0398 -0.3878 -0.8178
   44CHL1  H27C 3256   7.038   5.464   8.088 -0.9083 -2.3039  1.6540
   45CHL1    C3 3257   1.719   4.548   7.009 -0.1265 -0.2025  0.1210
   45CHL1    H3 3258   1.650   4.635   6.996 -0.3757 -0.6461 -1.6586
   45CHL1    O3 3259   1.737   4.497   6.882 -0.0384  0.3603  0.0356
   45CHL1   H3' 3260   1.805   4.431   6.892 -1.4050 -1.1111 -0.1483
   45CHL1    C4 3261   1.856   4.588   7.062 -0.2599 -0.2790 -0.3386
   45CHL1   H4A 3262   1.932   4.514   7.029 -2.1109 -1.7072 -1.4217
   45CHL1   H4B 3263   1.890   4.674   7.000 -0.3481  0.4349  0.5835
   45CHL1    C5 3264   1.857   4.607   7.210 -0.2806  0.1898  0.4393
   45CHL1    C6 3265   1.897   4.727   7.260 -0.4367  0.0849  0.4539
   45CHL1    H6 3266   1.935   4.803   7.190  4.0075 -2.0088  0.3973
   45CHL1    C7 3267   1.887   4.764   7.401 -0.1782  1.2405  0.5036
   45CHL1   H7A 3268   1.972   4.829   7.429  1.0320  0.0716 -0.3926
   45CHL1   H7B 3269   1.792   4.818   7.424  0.1354  1.3339  1.6006
   45CHL1    C8 3270   1.884   4.641   7.495 -0.2238  0.0572  0.2579
   45CHL1    H8 3271   1.990   4.608   7.504 -0.0131  0.9389  1.1817
   45CHL1   C14 3272   1.844   4.672   7.639 -0.6283 -0.2000 -0.0500
   45CHL1   H14 3273   1.743   4.716   7.623  0.0776  1.9393  1.1506
   45CHL1   C15 3274   1.919   4.789   7.715 -1.0525  0.2102  0.8201
   45CHL1  H15A 3275   2.025   4.753   7.714 -0.8214  0.9069 -0.3122
   45CHL1  H15B 3276   1.902   4.890   7.672  1.2468 -0.5074 -1.9684
   45CHL1   C16 3277   1.860   4.772   7.859  0.5111 -1.3159  0.4737
   45CHL1  H16A 3278   1.952   4.786   7.921  0.2950  2.1579  0.1256
   45CHL1  H16B 3279   1.780   4.848   7.872  0.7837 -0.6430 -1.5640
   45CHL1   C17 3280   1.794   4.629   7.862  0.5038  0.0692 -0.4887
   45CHL1   H17 3281   1.687   4.654   7.848  0.0037 -1.0577  1.2017
   45CHL1   C13 3282   1.827   4.552   7.734 -1.0989  0.0087  0.8658
   45CHL1   C18 3283   1.965   4.484   7.751  0.6876  0.2257  0.1437
   45CHL1  H18A 3284   2.042   4.557   7.786  0.0688  0.4337  1.0940
   45CHL1  H18B 3285   1.959   4.399   7.821 -1.0412  0.4076  0.2437
   45CHL1  H18C 3286   2.005   4.451   7.653 -0.0514 -0.6987  0.1565
   45CHL1   C12 3287   1.717   4.462   7.680  0.7303 -0.5275 -0.3997
   45CHL1  H12A 3288   1.714   4.371   7.745 -2.5230 -0.2866 -0.1627
   45CHL1  H12B 3289   1.618   4.510   7.684  1.0102 -0.0688  1.6973
   45CHL1   C11 3290   1.768   4.422   7.542 -0.0677  0.0719 -0.2998
   45CHL1  H11A 3291   1.849   4.347   7.557  1.8875  2.2823  0.6276
   45CHL1  H11B 3292   1.679   4.370   7.500  1.4398 -4.6014  1.9812
   45CHL1    C9 3293   1.786   4.533   7.444  0.2822  0.0464 -0.8071
   45CHL1    H9 3294   1.695   4.597   7.448 -0.0588 -0.3468 -1.9251
   45CHL1   C10 3295   1.806   4.499   7.292 -0.3673  0.6858 -0.7976
   45CHL1   C19 3296   1.898   4.375   7.274 -0.0265  0.1894  0.1037
   45CHL1  H19A 3297   1.924   4.360   7.167 -0.2053 -1.5243  0.2827
   45CHL1  H19B 3298   1.989   4.395   7.335  1.0061  0.5838 -1.5523
   45CHL1  H19C 3299   1.857   4.277   7.308  0.0832 -0.6929 -2.2563
   45CHL1    C1 3300   1.659   4.476   7.232 -0.1651 -0.6583 -0.4416
   45CHL1   H1A 3301   1.618   4.397   7.299  0.1161  0.8624  1.5945
   45CHL1   H1B 3302   1.597   4.567   7.246 -0.2905 -0.6440 -1.0818
   45CHL1    C2 3303   1.657   4.430   7.090 -0.3107  0.0709  0.0799
   45CHL1   H2A 3304   1.559   4.405   7.044  1.2083 -4.7571 -0.8498
   45CHL1   H2B 3305   1.726   4.346   7.067  1.4772  0.8682  2.3430
   45CHL1   C20 3306   1.807   4.541   7.990  0.4077  0.4202 -0.4138
   45CHL1   H20 3307   1.816   4.433   7.965  0.2830  0.6554 -1.5078
   45CHL1   C21 3308   1.673   4.560   8.077 -0.7480  0.0467  0.1711
   45CHL1  H21A 3309   1.676   4.475   8.149 -0.3128 -1.0060 -1.0754
   45CHL1  H21B 3310   1.581   4.561   8.015  1.3718  1.3493 -3.0299
   45CHL1  H21C 3311   1.664   4.661   8.123 -1.7127  0.6042 -1.2259
   45CHL1   C22 3312   1.927   4.576   8.082 -0.1447 -0.5957 -0.1355
   45CHL1  H22A 3313   2.025   4.579   8.030  0.3703  1.4654  0.8964
   45CHL1  H22B 3314   1.912   4.680   8.119  0.2208  0.3467 -2.5617
   45CHL1   C23 3315   1.947   4.488   8.206 -0.4283  0.0441 -0.0516
   45CHL1  H23A 3316   1.861   4.472   8.276  0.2788 -0.9021  0.6164
   45CHL1  H23B 3317   1.960   4.385   8.165 -3.1638 -0.5508  0.4359
   45CHL1   C24 3318   2.077   4.504   8.275 -0.0287 -0.2306  0.0460
   45CHL1  H24A 3319   2.087   4.437   8.364  1.6740 -1.1258 -0.8067
   45CHL1  H24B 3320   2.154   4.480   8.200  0.0073 -0.8752  0.2842
   45CHL1   C25 3321   2.101   4.641   8.344  0.0246 -0.0664 -0.6628
   45CHL1   H25 3322   2.106   4.713   8.259 -1.8569  1.4616  0.4720
   45CHL1   C26 3323   1.989   4.686   8.432 -0.2540 -0.6992 -0.0480
   45CHL1  H26A 3324   1.989   4.632   8.529  0.6182  1.0508  0.9651
   45CHL1  H26B 3325   1.998   4.796   8.445  0.3822 -0.8509  0.8657
   45CHL1  H26C 3326   1.888   4.676   8.386 -0.9963 -0.5766  1.5099
   45CHL1   C27 3327   2.230   4.655   8.422  0.3407  0.4062 -0.6625
   45CHL1  H27A 3328   2.235   4.762   8.451 -1.5741  0.5008 -0.5950
   45CHL1  H27B 3329   2.234   4.585   8.508 -0.5912  2.4311  1.0940
   45CHL1  H27C 3330   2.315   4.623   8.358 -0.0934 -2.3806  0.1147
   46CHL1    C3 3331   1.499   5.714   7.054 -0.3695 -0.1574  0.1437
   46CHL1    H3 3332   1.447   5.812   7.048  0.9460  0.5583  0.1669
   46CHL1    O3 3333   1.523   5.681   6.916  0.2973  0.6161  1.0107
   46CHL1   H3' 3334   1.539   5.587   6.907 -1.0678  0.4269  0.3402
   46CHL1    C4 3335   1.628   5.735   7.129 -0.0942  0.0531 -0.8352
   46CHL1   H4A 3336   1.680   5.637   7.129 -3.0240 -1.6018  1.9935
   46CHL1   H4B 3337   1.698   5.801   7.074 -0.8777 -0.8509 -2.9947
   46CHL1    C5 3338   1.588   5.778   7.275 -0.0590 -0.1452  0.3465
   46CHL1    C6 3339   1.626   5.896   7.325  0.4284 -0.4634  0.7238
   46CHL1    H6 3340   1.682   5.960   7.255 -1.5231  0.8086  0.2845
   46CHL1    C7 3341   1.602   5.949   7.465 -0.1608  0.3479 -0.4969
   46CHL1   H7A 3342   1.689   6.006   7.502  1.3198 -0.4155 -2.7003
   46CHL1   H7B 3343   1.517   6.020   7.472 -0.4954 -0.0870 -0.0842
   46CHL1    C8 3344   1.558   5.826   7.549 -0.1109 -0.5172 -0.0665
   46CHL1    H8 3345   1.644   5.759   7.570 -1.1496 -1.2122  2.1122
   46CHL1   C14 3346   1.510   5.885   7.691  1.1798  0.0858  0.2897
   46CHL1   H14 3347   1.425   5.953   7.670  2.9391  1.9787 -0.8475
   46CHL1   C15 3348   1.608   5.980   7.767 -0.1282  0.9958  0.1680
   46CHL1  H15A 3349   1.711   5.940   7.767  0.8310  3.2804 -2.6397
   46CHL1  H15B 3350   1.603   6.080   7.720 -1.1041  0.3655 -1.0967
   46CHL1   C16 3351   1.551   5.961   7.905 -0.3094 -0.0188 -0.2720
   46CHL1  H16A 3352   1.625   5.918   7.976 -0.8288 -0.1416  0.1966
   46CHL1  H16B 3353   1.515   6.062   7.933 -0.6305  0.0650 -0.9555
   46CHL1   C17 3354   1.435   5.853   7.909 -0.0800  0.3635 -0.3515
   46CHL1   H17 3355   1.344   5.916   7.897 -0.6224 -0.0547  1.4056
   46CHL1   C13 3356   1.460   5.775   7.785 -0.2318  0.3068 -0.4193
   46CHL1   C18 3357   1.575   5.670   7.817  0.4615 -0.7038  0.4184
   46CHL1  H18A 3358   1.669   5.720   7.847  0.6853  0.2969 -1.8847
   46CHL1  H18B 3359   1.525   5.591   7.877 -0.8177  1.4710  2.3510
   46CHL1  H18C 3360   1.601   5.614   7.725  1.3792  0.5742 -0.1190
   46CHL1   C12 3361   1.328   5.706   7.718 -0.4586  0.7744 -0.0626
   46CHL1  H12A 3362   1.278   5.628   7.780  2.2534 -2.2791 -1.5741
   46CHL1  H12B 3363   1.247   5.783   7.717 -1.5664 -0.3593 -3.1479
   46CHL1   C11 3364   1.368   5.650   7.578  0.0072  0.0269 -0.1448
   46CHL1  H11A 3365   1.424   5.558   7.606 -0.5033 -0.5689 -1.0532
   46CHL1  H11B 3366   1.277   5.606   7.531  0.2424 -2.7030  1.8458
   46CHL1    C9 3367   1.448   5.742   7.484  0.0730  0.2671  0.3603
   46CHL1    H9 3368   1.368   5.816   7.461  0.9068  1.8809  2.5218
   46CHL1   C10 3369   1.494   5.677   7.351  1.0079  0.3828 -0.1387
   46CHL1   C19 3370   1.580   5.556   7.376 -0.2665  0.5304  0.2726
   46CHL1  H19A 3371   1.533   5.484   7.447 -0.9575  1.4024  0.7174
   46CHL1  H19B 3372   1.585   5.498   7.281  0.5020  0.4740  0.3463
   46CHL1  H19C 3373   1.682   5.580   7.411 -0.7582 -0.6236  2.6218
   46CHL1    C1 3374   1.371   5.649   7.265  0.3785 -0.1196  0.4555
   46CHL1   H1A 3375   1.301   5.571   7.301  0.9274 -0.1417  1.4984
   46CHL1   H1B 3376   1.321   5.748   7.255 -1.0872 -0.8941  0.0713
   46CHL1    C2 3377   1.409   5.608   7.116  0.1772 -0.2357  0.2293
   46CHL1   H2A 3378   1.313   5.603   7.060  0.8387 -0.8944 -0.8516
   46CHL1   H2B 3379   1.459   5.509   7.110  0.9359  0.2776 -2.3763
   46CHL1   C20 3380   1.404   5.782   8.049 -0.4012  0.4137 -0.4211
   46CHL1   H20 3381   1.346   5.690   8.027  2.5776 -1.6437 -0.0742
   46CHL1   C21 3382   1.320   5.876   8.133 -0.0313  0.2440  0.1840
   46CHL1  H21A 3383   1.302   5.838   8.236 -0.8443 -0.5875 -0.2563
   46CHL1  H21B 3384   1.220   5.887   8.085  1.2708  0.0266 -2.6096
   46CHL1  H21C 3385   1.361   5.978   8.151  0.0889  0.4097 -0.9802
   46CHL1   C22 3386   1.525   5.739   8.132  0.5736 -0.0216  0.5470
   46CHL1  H22A 3387   1.605   5.704   8.064  0.6707  0.5500  0.3724
   46CHL1  H22B 3388   1.569   5.826   8.185  0.6088 -0.7061  1.6663
   46CHL1   C23 3389   1.500   5.614   8.233  0.6743 -0.6601  0.0276
   46CHL1  H23A 3390   1.452   5.657   8.323  3.0022  0.3329  0.8462
   46CHL1  H23B 3391   1.437   5.539   8.181  1.4258 -2.1522  1.2353
   46CHL1   C24 3392   1.630   5.553   8.285 -0.5554  0.2499 -0.5688
   46CHL1  H24A 3393   1.692   5.512   8.203  1.6898 -2.9904  2.5702
   46CHL1  H24B 3394   1.687   5.628   8.344  0.4216 -0.4563 -0.6035
   46CHL1   C25 3395   1.613   5.440   8.388  0.4696  0.1206  0.0720
   46CHL1   H25 3396   1.565   5.353   8.339  2.1849 -0.5131 -0.5448
   46CHL1   C26 3397   1.749   5.381   8.423  0.8821 -0.1156  0.4768
   46CHL1  H26A 3398   1.728   5.299   8.496 -0.5817  0.0835  0.3100
   46CHL1  H26B 3399   1.792   5.343   8.328  0.4413 -0.5663  0.4501
   46CHL1  H26C 3400   1.817   5.455   8.470  0.8001 -0.3321  0.9433
   46CHL1   C27 3401   1.537   5.477   8.516 -0.1970 -0.1375  0.5995
   46CHL1  H27A 3402   1.548   5.387   8.580 -0.3089 -1.0162 -0.5883
   46CHL1  H27B 3403   1.591   5.558   8.570 -1.3734 -1.3679  3.7434
   46CHL1  H27C 3404   1.429   5.498   8.497  0.4640  0.6835 -2.5665
   47CHL1    C3 3405   0.508   5.488   6.479 -0.2121 -0.1298  0.0292
   47CHL1    H3 3406   0.577   5.575   6.490  0.2604 -0.6258  1.0699
   47CHL1    O3 3407   0.478   5.476   6.342  0.2966  0.0428  0.0204
   47CHL1   H3' 3408   0.406   5.414   6.336 -1.5199  2.1020  0.0843
   47CHL1    C4 3409   0.572   5.358   6.530  0.1248 -0.3744  0.3544
   47CHL1   H4A 3410   0.494   5.283   6.504 -0.3810  0.2068  0.2107
   47CHL1   H4B 3411   0.656   5.314   6.472 -0.6014  0.0845 -1.0662
   47CHL1    C5 3412   0.591   5.343   6.679 -0.8646  0.4285  0.3116
   47CHL1    C6 3413   0.714   5.306   6.727  0.6075 -0.1351 -0.0662
   47CHL1    H6 3414   0.792   5.283   6.653 -0.9723 -0.8040 -1.5605
   47CHL1    C7 3415   0.739   5.286   6.873  0.2328  0.2461 -0.0545
   47CHL1   H7A 3416   0.769   5.181   6.894 -0.3143  0.0065 -0.4591
   47CHL1   H7B 3417   0.813   5.355   6.919  0.7873  0.5175 -1.3344
   47CHL1    C8 3418   0.606   5.293   6.958 -0.1268 -0.1055 -0.2072
   47CHL1    H8 3419   0.565   5.190   6.955  0.6960 -0.5236  1.6349
   47CHL1   C14 3420   0.643   5.312   7.109 -0.7833  0.5044  0.8668
   47CHL1   H14 3421   0.685   5.414   7.119 -0.4438  0.3238  1.3259
   47CHL1   C15 3422   0.742   5.218   7.179 -1.1153  0.4130  0.4744
   47CHL1  H15A 3423   0.709   5.113   7.164  1.6146 -0.1034 -2.3155
   47CHL1  H15B 3424   0.850   5.232   7.161 -1.2022  0.4340 -0.0489
   47CHL1   C16 3425   0.714   5.244   7.329  0.2144  0.3403 -0.1374
   47CHL1  H16A 3426   0.706   5.142   7.373  2.3539 -0.4412 -1.4511
   47CHL1  H16B 3427   0.807   5.279   7.378 -0.4153  2.2946 -0.2824
   47CHL1   C17 3428   0.599   5.336   7.351  0.9835 -0.1957  0.2176
   47CHL1   H17 3429   0.641   5.439   7.351  0.4125  0.0414  1.5133
   47CHL1   C13 3430   0.526   5.313   7.212  0.5490 -0.1046  0.4730
   47CHL1   C18 3431   0.458   5.174   7.216 -0.3160 -0.5766  0.1914
   47CHL1  H18A 3432   0.519   5.087   7.249 -0.2193  0.4790  2.9476
   47CHL1  H18B 3433   0.368   5.181   7.280 -1.4235  2.4034 -1.5772
   47CHL1  H18C 3434   0.423   5.145   7.115 -1.5051  0.8474  0.1813
   47CHL1   C12 3435   0.424   5.425   7.160 -0.0634 -0.0370  0.2968
   47CHL1  H12A 3436   0.331   5.427   7.220 -0.2712 -0.5319 -0.0059
   47CHL1  H12B 3437   0.473   5.524   7.166 -0.5132  0.3315 -1.7381
   47CHL1   C11 3438   0.382   5.397   7.010 -0.3646  1.0179 -0.3572
   47CHL1  H11A 3439   0.323   5.305   6.987  1.5898 -0.1560 -0.8131
   47CHL1  H11B 3440   0.321   5.485   6.981  0.4213  1.0528 -1.9454
   47CHL1    C9 3441   0.503   5.396   6.909 -0.2410 -0.1658 -0.5818
   47CHL1    H9 3442   0.548   5.498   6.911 -0.5065  0.0131 -2.3387
   47CHL1   C10 3443   0.469   5.381   6.758 -0.0261 -0.5121  0.0900
   47CHL1   C19 3444   0.360   5.271   6.740  0.4688 -0.5185  0.0705
   47CHL1  H19A 3445   0.264   5.310   6.780  0.2543 -0.8672 -0.1041
   47CHL1  H19B 3446   0.333   5.246   6.635  0.3473  2.0501 -0.5458
   47CHL1  H19C 3447   0.388   5.179   6.795  0.1305 -0.6419  0.0373
   47CHL1    C1 3448   0.409   5.516   6.707 -0.5510 -0.5469  0.0476
   47CHL1   H1A 3449   0.317   5.537   6.766  0.1410 -1.3944  1.4668
   47CHL1   H1B 3450   0.479   5.597   6.738 -0.6896 -0.3641 -0.1128
   47CHL1    C2 3451   0.376   5.519   6.551  0.2547 -0.9776  0.7407
   47CHL1   H2A 3452   0.350   5.620   6.514  1.0076 -1.1622 -0.3198
   47CHL1   H2B 3453   0.293   5.450   6.524 -0.5578 -0.3650  1.6352
   47CHL1   C20 3454   0.529   5.300   7.479  0.3067  0.2766 -0.0812
   47CHL1   H20 3455   0.512   5.191   7.495  0.1951  0.6319  2.3627
   47CHL1   C21 3456   0.402   5.382   7.492 -1.0131  0.0900  0.8870
   47CHL1  H21A 3457   0.341   5.350   7.405  2.1927 -0.1359 -1.3866
   47CHL1  H21B 3458   0.417   5.492   7.492  2.7216 -0.3366 -0.6092
   47CHL1  H21C 3459   0.342   5.353   7.581 -3.6641  1.3508 -0.4189
   47CHL1   C22 3460   0.617   5.338   7.601  0.3910 -1.0604  0.6315
   47CHL1  H22A 3461   0.720   5.303   7.580  0.6000 -2.1337  3.2294
   47CHL1  H22B 3462   0.621   5.448   7.614 -2.0898 -0.7828 -0.6711
   47CHL1   C23 3463   0.579   5.283   7.737  0.6232 -0.2045 -0.3842
   47CHL1  H23A 3464   0.474   5.320   7.745  1.0109  1.3701 -2.0501
   47CHL1  H23B 3465   0.586   5.173   7.744 -3.4158 -0.5000  0.1156
   47CHL1   C24 3466   0.665   5.338   7.864  0.4742  1.0405  1.0341
   47CHL1  H24A 3467   0.771   5.352   7.835 -0.6317 -0.3645 -4.2787
   47CHL1  H24B 3468   0.633   5.445   7.872  0.5883  1.1936 -0.4421
   47CHL1   C25 3469   0.633   5.268   7.993  0.3191 -0.9486  0.1781
   47CHL1   H25 3470   0.617   5.160   7.973  1.8623 -1.0677 -0.4555
   47CHL1   C26 3471   0.747   5.287   8.090 -0.7781 -0.5049  0.1958
   47CHL1  H26A 3472   0.843   5.251   8.047 -0.9036 -0.9716  0.2963
   47CHL1  H26B 3473   0.756   5.395   8.115  0.0325 -0.3392 -0.7847
   47CHL1  H26C 3474   0.719   5.225   8.178 -2.3129 -1.0833 -0.7024
   47CHL1   C27 3475   0.493   5.315   8.057 -0.0995  0.5411 -0.5227
   47CHL1  H27A 3476   0.509   5.410   8.113 -1.9430  1.3385 -1.3151
   47CHL1  H27B 3477   0.414   5.345   7.986 -1.2832  1.8615  1.3083
   47CHL1  H27C 3478   0.450   5.237   8.124 -0.4604  2.0559  1.0366
   48CHL1    C3 3479   4.062   1.364   6.499  1.0354  0.0621 -0.1073
   48CHL1    H3 3480   4.133   1.287   6.537 -0.7335 -1.7523 -0.3534
   48CHL1    O3 3481   4.050   1.344   6.360  0.1551 -0.3332  0.1628
   48CHL1   H3' 3482   3.966   1.300   6.344  0.1540  0.1840 -1.2500
   48CHL1    C4 3483   3.930   1.364   6.575  0.3035  0.2610  0.2792
   48CHL1   H4A 3484   3.858   1.432   6.525  1.3453  0.3014 -1.2171
   48CHL1   H4B 3485   3.891   1.261   6.562  1.6408 -0.4709  1.8573
   48CHL1    C5 3486   3.943   1.399   6.720 -0.7660 -0.6755  0.1608
   48CHL1    C6 3487   3.895   1.304   6.811 -0.3660  0.3673  1.1395
   48CHL1    H6 3488   3.837   1.221   6.769 -0.3769  1.0179 -0.1325
   48CHL1    C7 3489   3.913   1.312   6.958 -1.1725  0.3578 -0.9418
   48CHL1   H7A 3490   3.820   1.280   7.008 -0.1764  1.1956  1.4902
   48CHL1   H7B 3491   3.991   1.237   6.986 -1.5942  0.3485  0.1884
   48CHL1    C8 3492   3.969   1.444   7.005 -0.2862  0.2791  0.4437
   48CHL1    H8 3493   3.892   1.524   7.015  1.2028  1.8827 -0.7379
   48CHL1   C14 3494   4.033   1.429   7.148  0.1514 -0.4333 -0.1055
   48CHL1   H14 3495   4.116   1.357   7.131  1.3219  0.7841  0.4371
   48CHL1   C15 3496   3.950   1.363   7.263 -0.1619 -0.0652  0.1526
   48CHL1  H15A 3497   3.856   1.419   7.280  0.0997  0.4701 -0.1491
   48CHL1  H15B 3498   3.930   1.255   7.245 -0.9822 -0.2089  1.8453
   48CHL1   C16 3499   4.042   1.392   7.381 -0.4563  0.7007  0.0471
   48CHL1  H16A 3500   3.981   1.430   7.467 -0.9879  0.9761 -0.4471
   48CHL1  H16B 3501   4.081   1.295   7.418  1.6312  0.7788 -1.8790
   48CHL1   C17 3502   4.145   1.507   7.346 -0.0799  0.5706  0.2013
   48CHL1   H17 3503   4.243   1.458   7.327 -0.2761  0.6122 -0.9631
   48CHL1   C13 3504   4.091   1.556   7.213 -0.2791 -0.0942 -0.7795
   48CHL1   C18 3505   3.989   1.672   7.229  0.0289  0.0409 -0.8662
   48CHL1  H18A 3506   3.929   1.669   7.323 -1.7201 -1.7268 -2.0051
   48CHL1  H18B 3507   4.046   1.768   7.222  0.7847 -0.4874 -2.0844
   48CHL1  H18C 3508   3.917   1.667   7.144 -0.4363 -2.0516 -0.3823
   48CHL1   C12 3509   4.208   1.594   7.115 -0.5286 -0.3317  0.5425
   48CHL1  H12A 3510   4.260   1.689   7.139  0.7667 -1.2301  1.3448
   48CHL1  H12B 3511   4.278   1.508   7.108 -0.7090 -0.7537  3.1492
   48CHL1   C11 3512   4.148   1.618   6.974 -0.6500  0.4530  0.7950
   48CHL1  H11A 3513   4.074   1.701   6.977 -0.3377  0.7112  1.6841
   48CHL1  H11B 3514   4.220   1.643   6.893  0.4826  0.8671  1.9119
   48CHL1    C9 3515   4.082   1.491   6.916  0.2283 -0.5130 -0.0822
   48CHL1    H9 3516   4.157   1.409   6.917  2.5089  1.4986  0.1679
   48CHL1   C10 3517   4.033   1.514   6.766  0.2226  0.1741 -0.2032
   48CHL1   C19 3518   3.950   1.647   6.753 -0.3744 -0.1769  0.2621
   48CHL1  H19A 3519   4.014   1.737   6.758  0.7586 -1.0190  1.6040
   48CHL1  H19B 3520   3.902   1.660   6.654 -0.1694 -1.2240  0.0180
   48CHL1  H19C 3521   3.879   1.653   6.839  1.0000  2.6660  1.2572
   48CHL1    C1 3522   4.153   1.524   6.672  0.7155 -0.1975 -0.5946
   48CHL1   H1A 3523   4.202   1.623   6.680  0.0563  0.2405 -1.8895
   48CHL1   H1B 3524   4.229   1.450   6.703  0.5180 -0.2258 -0.1784
   48CHL1    C2 3525   4.125   1.497   6.524 -0.3468  0.4381 -0.1164
   48CHL1   H2A 3526   4.220   1.492   6.467 -0.1003 -0.1671  0.3594
   48CHL1   H2B 3527   4.083   1.593   6.486 -3.6461 -1.3806 -1.3250
   48CHL1   C20 3528   4.164   1.610   7.457  0.1480  0.1173 -0.3114
   48CHL1   H20 3529   4.080   1.676   7.488  2.1869  1.9441  1.4599
   48CHL1   C21 3530   4.273   1.714   7.417 -0.3352  0.4278 -0.8657
   48CHL1  H21A 3531   4.358   1.653   7.378 -0.4257  1.1934 -2.2938
   48CHL1  H21B 3532   4.308   1.780   7.499 -2.6160  2.0590 -1.1828
   48CHL1  H21C 3533   4.230   1.778   7.338  0.4367  1.2552 -0.6183
   48CHL1   C22 3534   4.210   1.547   7.581 -0.1208  0.2649 -0.5176
   48CHL1  H22A 3535   4.160   1.448   7.594  1.1926 -0.3193  0.2423
   48CHL1  H22B 3536   4.317   1.530   7.559 -0.1458  0.4217 -0.7544
   48CHL1   C23 3537   4.184   1.617   7.719 -0.9222  0.3114  0.0245
   48CHL1  H23A 3538   4.234   1.716   7.705 -2.4062  0.5472 -4.2089
   48CHL1  H23B 3539   4.077   1.645   7.723 -0.6716  1.2138  0.9349
   48CHL1   C24 3540   4.234   1.538   7.844  0.3333 -0.8828 -0.5259
   48CHL1  H24A 3541   4.172   1.446   7.855 -0.0729 -0.5340  0.1356
   48CHL1  H24B 3542   4.342   1.518   7.831  1.3540  2.8321  1.4506
   48CHL1   C25 3543   4.231   1.629   7.971 -0.5848 -0.4142 -0.1890
   48CHL1   H25 3544   4.287   1.722   7.949  0.4695 -1.0472 -0.2470
   48CHL1   C26 3545   4.089   1.671   8.008 -0.4746 -0.5949 -0.0535
   48CHL1  H26A 3546   4.035   1.578   8.036 -0.1158 -0.9833 -0.6306
   48CHL1  H26B 3547   4.094   1.737   8.097 -0.9114  1.6492 -1.6788
   48CHL1  H26C 3548   4.031   1.722   7.929  0.1963 -0.0525 -0.1982
   48CHL1   C27 3549   4.315   1.569   8.084  0.3847 -0.4977 -0.4303
   48CHL1  H27A 3550   4.260   1.476   8.113 -0.0212  0.5476  2.3457
   48CHL1  H27B 3551   4.418   1.540   8.055  0.6102 -2.8038  2.3517
   48CHL1  H27C 3552   4.322   1.634   8.174  0.4400 -4.1469  2.3686
   49CHL1    C3 3553   2.532   2.565   6.696 -0.1859  0.4816  0.7181
   49CHL1    H3 3554   2.434   2.618   6.697 -0.0581  0.7216  0.5279
   49CHL1    O3 3555   2.568   2.525   6.563  0.0815 -0.7561 -0.5726
   49CHL1   H3' 3556   2.662   2.512   6.575  0.6092  1.7251 -1.6025
   49CHL1    C4 3557   2.637   2.658   6.758 -0.1685  1.2414  0.0147
   49CHL1   H4A 3558   2.738   2.613   6.742 -0.5851  1.0178 -2.1147
   49CHL1   H4B 3559   2.637   2.752   6.698  1.6994  1.7836  0.8174
   49CHL1    C5 3560   2.611   2.690   6.903  0.2578 -0.6457 -0.7035
   49CHL1    C6 3561   2.606   2.815   6.946  0.0894  0.1794 -0.7794
   49CHL1    H6 3562   2.620   2.896   6.873 -2.3754  0.4348 -0.9997
   49CHL1    C7 3563   2.596   2.854   7.087 -0.4917  0.4616 -0.0728
   49CHL1   H7A 3564   2.670   2.930   7.119 -2.0829  2.3464 -0.7334
   49CHL1   H7B 3565   2.495   2.891   7.114 -0.0601  1.3107  0.4153
   49CHL1    C8 3566   2.624   2.735   7.186  0.7085  0.5464 -0.0915
   49CHL1    H8 3567   2.731   2.706   7.185  0.4149 -0.5946 -2.3824
   49CHL1   C14 3568   2.581   2.762   7.329  0.1830  0.1864 -0.1760
   49CHL1   H14 3569   2.472   2.782   7.314  0.0881  0.2754  0.5866
   49CHL1   C15 3570   2.651   2.887   7.390 -0.3323 -0.0699 -0.2743
   49CHL1  H15A 3571   2.760   2.871   7.377 -0.3526 -0.9019  0.5100
   49CHL1  H15B 3572   2.623   2.984   7.345 -0.1274  0.0833 -0.0746
   49CHL1   C16 3573   2.634   2.873   7.542 -0.3488  0.7241  0.7609
   49CHL1  H16A 3574   2.733   2.870   7.593 -0.0792 -0.4075  0.2018
   49CHL1  H16B 3575   2.569   2.955   7.577 -1.2767  0.8472 -1.1826
   49CHL1   C17 3576   2.558   2.732   7.559  0.2526 -0.2722 -0.0720
   49CHL1   H17 3577   2.450   2.753   7.548  0.3917  0.2448 -0.4966
   49CHL1   C13 3578   2.591   2.648   7.427 -0.2884  0.7550  0.0965
   49CHL1   C18 3579   2.729   2.590   7.451 -0.8030 -0.3394 -0.3783
   49CHL1  H18A 3580   2.723   2.492   7.504  0.7798  0.1893  0.8025
   49CHL1  H18B 3581   2.780   2.563   7.356  0.7855  3.4024 -0.6696
   49CHL1  H18C 3582   2.793   2.663   7.504  0.6508 -0.7689 -1.5127
   49CHL1   C12 3583   2.498   2.536   7.381  0.5651 -0.0549  0.4544
   49CHL1  H12A 3584   2.521   2.454   7.453  0.6875  0.5157  1.0657
   49CHL1  H12B 3585   2.394   2.573   7.393 -0.1942 -2.0526  0.3609
   49CHL1   C11 3586   2.532   2.491   7.236 -0.6035 -0.0852  0.4336
   49CHL1  H11A 3587   2.624   2.429   7.239 -1.4397 -1.3006  1.2722
   49CHL1  H11B 3588   2.445   2.430   7.204 -1.4283  1.3339 -0.0880
   49CHL1    C9 3589   2.546   2.612   7.138  0.0606 -0.7241  0.6081
   49CHL1    H9 3590   2.443   2.649   7.121  0.9392  1.7440  0.5286
   49CHL1   C10 3591   2.596   2.567   6.994  0.0194  0.4044 -0.4689
   49CHL1   C19 3592   2.730   2.490   7.009 -0.6065  0.1903  0.4694
   49CHL1  H19A 3593   2.765   2.466   6.907 -1.1722  2.3888 -0.2660
   49CHL1  H19B 3594   2.797   2.551   7.074  0.4721 -1.5954  1.0760
   49CHL1  H19C 3595   2.711   2.396   7.066  0.8560 -0.4046 -0.0104
   49CHL1    C1 3596   2.494   2.470   6.927  0.2393 -0.0807  0.0352
   49CHL1   H1A 3597   2.504   2.381   6.992 -0.2492 -0.9103 -1.0050
   49CHL1   H1B 3598   2.396   2.521   6.938  0.0698 -0.0235 -1.5193
   49CHL1    C2 3599   2.522   2.436   6.781 -0.9415  0.5738  0.0090
   49CHL1   H2A 3600   2.435   2.378   6.744 -1.4021  0.7821  0.7541
   49CHL1   H2B 3601   2.620   2.385   6.780 -0.1991  1.9509  0.4147
   49CHL1   C20 3602   2.571   2.679   7.695 -0.3256 -0.2680 -0.0670
   49CHL1   H20 3603   2.659   2.612   7.706  1.2060  1.6761 -0.1567
   49CHL1   C21 3604   2.456   2.572   7.721 -1.3615 -0.2752  0.1665
   49CHL1  H21A 3605   2.353   2.615   7.717 -2.1933 -1.9575  2.2400
   49CHL1  H21B 3606   2.474   2.526   7.821  0.6736 -0.1465 -0.1227
   49CHL1  H21C 3607   2.473   2.488   7.651 -0.9895  0.5719 -0.7744
   49CHL1   C22 3608   2.576   2.790   7.805 -0.2613  0.1889 -0.0319
   49CHL1  H22A 3609   2.655   2.865   7.781 -0.4196  0.2065 -0.4888
   49CHL1  H22B 3610   2.479   2.844   7.805 -0.4063 -0.0491 -2.3637
   49CHL1   C23 3611   2.598   2.750   7.945  0.8201 -0.0303 -0.7083
   49CHL1  H23A 3612   2.520   2.674   7.968 -1.2759  2.0846 -0.5982
   49CHL1  H23B 3613   2.701   2.709   7.934  1.3025  0.5127  1.4275
   49CHL1   C24 3614   2.609   2.870   8.043  0.1014 -0.0043  0.1442
   49CHL1  H24A 3615   2.685   2.935   7.996  2.1130 -1.6750  1.0028
   49CHL1  H24B 3616   2.515   2.929   8.038  0.3788  0.3649 -0.7182
   49CHL1   C25 3617   2.655   2.843   8.188 -0.5149  0.5726 -0.3857
   49CHL1   H25 3618   2.752   2.791   8.201 -0.4839  0.8160  0.3795
   49CHL1   C26 3619   2.660   2.969   8.274  0.0700  0.4988 -0.2363
   49CHL1  H26A 3620   2.738   3.037   8.232 -0.0256  1.6087  1.3390
   49CHL1  H26B 3621   2.559   3.014   8.271 -0.1385  0.0119 -0.5798
   49CHL1  H26C 3622   2.665   2.930   8.378 -0.3274 -1.4275 -0.9114
   49CHL1   C27 3623   2.558   2.742   8.257 -0.0398 -0.3168  0.1007
   49CHL1  H27A 3624   2.589   2.737   8.363 -1.7397 -1.3407  0.5811
   49CHL1  H27B 3625   2.451   2.774   8.262  0.5042  1.4274  0.7070
   49CHL1  H27C 3626   2.566   2.641   8.210 -1.7731 -0.0598 -0.7906
   50CHL1    C3 3627   3.496   3.725   6.746  0.1633 -0.1994  0.3333
   50CHL1    H3 3628   3.598   3.734   6.703  0.4763 -1.1924  0.8676
   50CHL1    O3 3629   3.397   3.747   6.644  0.1697  0.2066  0.0081
   50CHL1   H3' 3630   3.311   3.733   6.684  0.3907 -0.1118  0.3748
   50CHL1    C4 3631   3.472   3.591   6.812  0.6088  0.3193  0.6131
   50CHL1   H4A 3632   3.363   3.574   6.828  0.7541 -2.2095 -0.8108
   50CHL1   H4B 3633   3.510   3.523   6.733 -4.3183 -0.5798 -1.1727
   50CHL1    C5 3634   3.563   3.590   6.935  0.6609 -0.8678  0.0346
   50CHL1    C6 3635   3.640   3.484   6.956  0.4689 -0.6672 -0.5525
   50CHL1    H6 3636   3.614   3.399   6.891 -2.3359  0.3005 -0.7552
   50CHL1    C7 3637   3.731   3.459   7.068  0.3260  0.0270 -1.1501
   50CHL1   H7A 3638   3.742   3.353   7.099 -1.6096 -0.3990 -1.8310
   50CHL1   H7B 3639   3.833   3.496   7.045  0.2602  0.6882 -0.3975
   50CHL1    C8 3640   3.697   3.560   7.190  0.4828  0.5192  0.1656
   50CHL1    H8 3641   3.602   3.521   7.231  0.2901  0.4846 -0.3127
   50CHL1   C14 3642   3.802   3.559   7.293 -0.1591  0.2532 -0.4464
   50CHL1   H14 3643   3.899   3.579   7.242 -0.7749  0.8395 -1.3990
   50CHL1   C15 3644   3.831   3.426   7.369  0.1601  0.0542  0.2647
   50CHL1  H15A 3645   3.740   3.369   7.398 -0.0352 -0.9752 -2.2948
   50CHL1  H15B 3646   3.904   3.359   7.318 -0.2279 -1.3781  1.5182
   50CHL1   C16 3647   3.914   3.459   7.493  0.0304 -0.6683 -0.7219
   50CHL1  H16A 3648   3.868   3.409   7.581 -0.7425  3.8801  1.6086
   50CHL1  H16B 3649   4.022   3.434   7.499 -0.3969 -2.9634 -2.1840
   50CHL1   C17 3650   3.908   3.614   7.501 -0.3736  0.1119 -0.4666
   50CHL1   H17 3651   4.007   3.631   7.453 -0.9563  1.2765 -1.2585
   50CHL1   C13 3652   3.790   3.660   7.408 -0.1909  0.0910 -0.3531
   50CHL1   C18 3653   3.654   3.635   7.476  0.0199  0.1587 -0.4598
   50CHL1  H18A 3654   3.649   3.699   7.567  2.8451  1.5527 -1.2326
   50CHL1  H18B 3655   3.568   3.663   7.412 -1.7660 -0.3197  1.6671
   50CHL1  H18C 3656   3.641   3.529   7.506 -0.6760 -0.0307 -1.4200
   50CHL1   C12 3657   3.788   3.801   7.341 -0.3636 -0.6014 -0.3574
   50CHL1  H12A 3658   3.801   3.884   7.414  0.3753 -0.3112 -0.8123
   50CHL1  H12B 3659   3.886   3.811   7.289  0.1997  0.5044  0.9008
   50CHL1   C11 3660   3.685   3.820   7.235  0.3071 -0.0078  0.7689
   50CHL1  H11A 3661   3.581   3.815   7.274  0.4124  0.7934  1.1676
   50CHL1  H11B 3662   3.695   3.919   7.187 -3.5909  1.2216  2.2682
   50CHL1    C9 3663   3.679   3.697   7.125  0.0148 -0.3891  0.2174
   50CHL1    H9 3664   3.775   3.720   7.075  1.8963 -2.1388  2.8852
   50CHL1   C10 3665   3.566   3.707   7.027 -0.2030 -0.4818 -0.0627
   50CHL1   C19 3666   3.433   3.720   7.108 -0.2824 -0.4296 -0.2491
   50CHL1  H19A 3667   3.429   3.642   7.186  2.3031 -1.5944 -1.2286
   50CHL1  H19B 3668   3.433   3.825   7.144 -2.3206 -1.3319  2.4721
   50CHL1  H19C 3669   3.345   3.708   7.042  1.2842  2.2892 -3.0061
   50CHL1    C1 3670   3.591   3.842   6.945 -0.0318 -0.0923 -0.1385
   50CHL1   H1A 3671   3.592   3.931   7.012 -3.5657  1.0865 -1.5319
   50CHL1   H1B 3672   3.692   3.840   6.900 -0.6398 -0.5473 -1.4866
   50CHL1    C2 3673   3.484   3.851   6.838 -0.0844  0.0468  0.8940
   50CHL1   H2A 3674   3.508   3.949   6.791 -1.9851 -0.1819 -0.6062
   50CHL1   H2B 3675   3.379   3.861   6.872 -0.8425 -0.8816 -1.1004
   50CHL1   C20 3676   3.913   3.681   7.639  0.7181 -0.5403 -0.5890
   50CHL1   H20 3677   3.816   3.734   7.655  1.9196  0.9834  1.9458
   50CHL1   C21 3678   4.023   3.787   7.638  0.6572 -0.6042 -0.3949
   50CHL1  H21A 3679   4.126   3.751   7.620  0.5693 -0.8750 -0.3737
   50CHL1  H21B 3680   4.015   3.848   7.730  0.8457  1.7445 -1.8976
   50CHL1  H21C 3681   3.996   3.861   7.560 -2.6764 -3.1107 -1.7709
   50CHL1   C22 3682   3.927   3.596   7.767 -0.0817  0.7667 -0.2362
   50CHL1  H22A 3683   3.835   3.537   7.783 -0.1614  0.8771 -0.2897
   50CHL1  H22B 3684   4.017   3.531   7.754 -0.7225 -0.3675  0.8650
   50CHL1   C23 3685   3.936   3.674   7.898  0.7164 -0.6627  0.5561
   50CHL1  H23A 3686   3.930   3.602   7.982 -0.1424 -0.5700  0.5766
   50CHL1  H23B 3687   4.040   3.712   7.896  0.9081 -1.1950  0.5373
   50CHL1   C24 3688   3.819   3.769   7.918  0.4896 -0.0956 -0.2126
   50CHL1  H24A 3689   3.816   3.846   7.838 -1.1342  0.2933  0.1956
   50CHL1  H24B 3690   3.718   3.724   7.904 -0.6871  2.7084 -1.0701
   50CHL1   C25 3691   3.824   3.840   8.054 -0.3942  0.4605 -0.0027
   50CHL1   H25 3692   3.854   3.764   8.129 -0.4469  0.7988  0.3619
   50CHL1   C26 3693   3.929   3.949   8.041 -0.4860 -0.3974 -0.8645
   50CHL1  H26A 3694   4.021   3.925   8.098 -1.0214 -1.4006 -0.3922
   50CHL1  H26B 3695   3.958   3.965   7.935  1.2542 -1.5117 -0.5880
   50CHL1  H26C 3696   3.896   4.036   8.102  2.3322 -1.4601  2.3801
   50CHL1   C27 3697   3.685   3.899   8.076  0.4501  0.1435 -0.3038
   50CHL1  H27A 3698   3.690   3.957   8.171 -0.3951 -0.5907  0.2040
   50CHL1  H27B 3699   3.644   3.976   8.007  0.2842  1.2628  1.0079
   50CHL1  H27C 3700   3.610   3.817   8.085  1.1249 -0.5715 -1.1309
   51CHL1    C3 3701   3.193   2.710   6.896  0.7799 -0.0999 -0.1028
   51CHL1    H3 3702   3.272   2.632   6.906  0.6815 -0.0523  1.1575
   51CHL1    O3 3703   3.155   2.728   6.761 -0.3997  0.1545 -0.7800
   51CHL1   H3' 3704   3.100   2.650   6.750 -0.4541  0.0188  0.3508
   51CHL1    C4 3705   3.064   2.685   6.972 -0.5375 -0.2712  0.3229
   51CHL1   H4A 3706   2.988   2.765   6.955 -0.2707 -0.1348 -0.2267
   51CHL1   H4B 3707   3.013   2.595   6.933 -3.3495  1.0368  0.7828
   51CHL1    C5 3708   3.090   2.670   7.123  0.5513  0.6676 -0.0000
   51CHL1    C6 3709   3.066   2.559   7.189  0.0134 -0.0273 -0.6404
   51CHL1    H6 3710   3.014   2.478   7.135  2.0027 -1.3146 -0.7079
   51CHL1    C7 3711   3.093   2.529   7.331 -0.2042 -0.0951 -0.0459
   51CHL1   H7A 3712   3.013   2.471   7.381  1.1133 -0.4506  1.6991
   51CHL1   H7B 3713   3.187   2.470   7.338 -0.1371 -0.2574 -1.9203
   51CHL1    C8 3714   3.113   2.656   7.411  0.4747 -0.9169 -0.5885
   51CHL1    H8 3715   3.013   2.692   7.439  1.6993  1.2113  1.1708
   51CHL1   C14 3716   3.188   2.616   7.544  0.0598  0.6181  0.8011
   51CHL1   H14 3717   3.278   2.564   7.506 -0.5490 -0.4249  0.7773
   51CHL1   C15 3718   3.125   2.510   7.642 -0.7054 -0.0681  0.5412
   51CHL1  H15A 3719   3.021   2.546   7.658 -0.8874 -1.2031  2.0453
   51CHL1  H15B 3720   3.110   2.408   7.599  0.1400 -0.0506  0.1880
   51CHL1   C16 3721   3.208   2.526   7.769  0.0533  0.1361  0.0228
   51CHL1  H16A 3722   3.148   2.558   7.857 -1.6737  1.0334 -1.4556
   51CHL1  H16B 3723   3.262   2.432   7.793 -0.3702 -0.3805 -0.9825
   51CHL1   C17 3724   3.307   2.643   7.734 -0.0065  0.0014 -0.1461
   51CHL1   H17 3725   3.400   2.595   7.696  0.3564 -0.3785  1.2122
   51CHL1   C13 3726   3.248   2.725   7.627  0.7883  0.4239  0.5956
   51CHL1   C18 3727   3.134   2.814   7.691 -0.4626 -0.8527  0.0618
   51CHL1  H18A 3728   3.200   2.887   7.743 -0.6239 -1.7313  1.5387
   51CHL1  H18B 3729   3.077   2.872   7.616 -2.4692 -0.7802  1.6012
   51CHL1  H18C 3730   3.065   2.771   7.767 -0.9448 -0.9163 -0.4122
   51CHL1   C12 3731   3.340   2.806   7.533  0.3655 -0.1770  0.2544
   51CHL1  H12A 3732   3.373   2.893   7.595 -1.1546  1.7538 -1.5517
   51CHL1  H12B 3733   3.429   2.750   7.500 -1.3192 -1.4574 -2.2088
   51CHL1   C11 3734   3.261   2.865   7.418  0.2698  0.9430  0.8565
   51CHL1  H11A 3735   3.180   2.937   7.441 -0.6266  0.8769 -1.8819
   51CHL1  H11B 3736   3.337   2.922   7.359  1.8649 -0.0213  1.9337
   51CHL1    C9 3737   3.208   2.743   7.330 -0.6155 -0.8667  0.2282
   51CHL1    H9 3738   3.299   2.683   7.309  1.2593  1.6018  1.0719
   51CHL1   C10 3739   3.156   2.789   7.191 -0.2655 -0.3643 -0.4696
   51CHL1   C19 3740   3.046   2.902   7.197  0.0579  0.1805  0.0393
   51CHL1  H19A 3741   3.080   3.002   7.233  1.0570  0.4406 -1.5422
   51CHL1  H19B 3742   2.995   2.917   7.099 -0.8635  1.8293  0.7574
   51CHL1  H19C 3743   2.961   2.869   7.260 -0.2943 -1.9408 -1.4997
   51CHL1    C1 3744   3.283   2.837   7.106  0.2696 -0.8290 -0.5057
   51CHL1   H1A 3745   3.310   2.937   7.146  0.1413  0.2255 -2.9931
   51CHL1   H1B 3746   3.374   2.778   7.131 -0.8243 -1.6420  1.7293
   51CHL1    C2 3747   3.262   2.834   6.955 -0.2091 -0.6833 -0.5538
   51CHL1   H2A 3748   3.361   2.831   6.904 -0.4218  0.4804 -1.0286
   51CHL1   H2B 3749   3.193   2.916   6.929 -0.2891  0.0328  1.7880
   51CHL1   C20 3750   3.370   2.708   7.865  0.5667 -0.7441  0.5452
   51CHL1   H20 3751   3.286   2.749   7.924  1.9108 -0.5804  2.3829
   51CHL1   C21 3752   3.482   2.811   7.847  0.1588 -0.5264 -0.2234
   51CHL1  H21A 3753   3.516   2.848   7.946 -1.0393  0.2919 -0.1151
   51CHL1  H21B 3754   3.439   2.893   7.786 -1.7578 -0.2584  1.4364
   51CHL1  H21C 3755   3.568   2.771   7.789  0.8712  0.7914 -0.0848
   51CHL1   C22 3756   3.424   2.591   7.950  0.0569  0.3995  0.8495
   51CHL1  H22A 3757   3.340   2.525   7.981  1.2948  0.0080  3.5621
   51CHL1  H22B 3758   3.487   2.524   7.887 -2.0132  0.4417 -1.3220
   51CHL1   C23 3759   3.492   2.638   8.078 -0.4317 -0.5496 -0.4031
   51CHL1  H23A 3760   3.593   2.670   8.044 -0.3840 -1.5281 -1.1760
   51CHL1  H23B 3761   3.450   2.733   8.119  3.8821  0.6960  1.4258
   51CHL1   C24 3762   3.501   2.523   8.178 -1.0466 -0.1659  0.4340
   51CHL1  H24A 3763   3.396   2.490   8.192 -1.8119  1.4306 -1.3372
   51CHL1  H24B 3764   3.550   2.438   8.125 -0.8130  1.6072 -2.2851
   51CHL1   C25 3765   3.570   2.547   8.313  0.2019  0.6676  0.6088
   51CHL1   H25 3766   3.504   2.611   8.375 -1.8795 -0.4867 -0.3407
   51CHL1   C26 3767   3.598   2.418   8.391 -0.0268 -0.3628 -0.1026
   51CHL1  H26A 3768   3.663   2.344   8.340  0.7250  1.5798 -2.0623
   51CHL1  H26B 3769   3.633   2.432   8.495  2.4707 -3.5273 -0.4536
   51CHL1  H26C 3770   3.500   2.366   8.400  0.0271 -0.7639 -1.7215
   51CHL1   C27 3771   3.706   2.622   8.300  0.0957  0.0829 -0.2742
   51CHL1  H27A 3772   3.706   2.718   8.243 -2.6505  0.1094 -0.2923
   51CHL1  H27B 3773   3.742   2.650   8.401 -0.4648  0.5056 -0.1886
   51CHL1  H27C 3774   3.778   2.564   8.239 -0.8322  1.5430 -2.8863
   52CHL1    C3 3775   5.520   3.773   7.010 -0.1032 -0.1040 -0.1304
   52CHL1    H3 3776   5.626   3.779   7.043 -0.2545 -1.1710  0.5933
   52CHL1    O3 3777   5.522   3.773   6.870  0.6502 -0.2948  0.0381
   52CHL1   H3' 3778   5.532   3.863   6.840  0.7177 -0.1158  0.5896
   52CHL1    C4 3779   5.476   3.638   7.067 -0.2086 -0.0901  0.2766
   52CHL1   H4A 3780   5.377   3.610   7.023 -0.3675 -1.2582  1.3489
   52CHL1   H4B 3781   5.541   3.558   7.027  0.2113 -0.7039  2.1669
   52CHL1    C5 3782   5.492   3.639   7.221  0.5059 -0.8666  0.5265
   52CHL1    C6 3783   5.563   3.547   7.285 -0.0675  0.1873  0.1007
   52CHL1    H6 3784   5.616   3.466   7.233 -1.2783 -1.2878  1.1177
   52CHL1    C7 3785   5.573   3.542   7.436 -0.2196  0.7285  1.1770
   52CHL1   H7A 3786   5.547   3.436   7.457  0.2330  0.3212 -0.2296
   52CHL1   H7B 3787   5.678   3.571   7.457 -0.1082  0.9665  0.3309
   52CHL1    C8 3788   5.472   3.638   7.509 -0.2910  0.2420 -0.3037
   52CHL1    H8 3789   5.377   3.583   7.522  0.9833 -1.8277  0.4573
   52CHL1   C14 3790   5.511   3.667   7.651  0.0327  0.1853  0.2604
   52CHL1   H14 3791   5.597   3.738   7.649 -0.0341  0.2382 -1.4431
   52CHL1   C15 3792   5.554   3.546   7.731  0.1195  0.7333 -0.0350
   52CHL1  H15A 3793   5.477   3.467   7.718  0.2216  0.6983 -0.4164
   52CHL1  H15B 3794   5.650   3.502   7.698  0.6747  2.2001 -0.4308
   52CHL1   C16 3795   5.548   3.605   7.873 -0.4211 -0.0753 -0.3566
   52CHL1  H16A 3796   5.492   3.545   7.949 -0.0256  2.0718  1.7019
   52CHL1  H16B 3797   5.647   3.628   7.917 -0.8591  1.5934 -0.2331
   52CHL1   C17 3798   5.486   3.747   7.873 -0.6928 -0.4556  0.0500
   52CHL1   H17 3799   5.567   3.824   7.866 -0.0893 -0.9917  1.0140
   52CHL1   C13 3800   5.408   3.739   7.735  0.0494  0.2815 -0.2006
   52CHL1   C18 3801   5.278   3.656   7.763  0.6558 -0.5368  0.2481
   52CHL1  H18A 3802   5.201   3.709   7.822 -1.5105  0.0288 -2.9469
   52CHL1  H18B 3803   5.226   3.631   7.668  3.4028 -0.1981 -1.4060
   52CHL1  H18C 3804   5.294   3.559   7.816  2.0198  0.0726  0.9749
   52CHL1   C12 3805   5.359   3.871   7.665 -0.5770  0.3926 -0.5110
   52CHL1  H12A 3806   5.278   3.915   7.727  1.1924  2.8706  0.1041
   52CHL1  H12B 3807   5.440   3.946   7.676  0.0815 -0.4078  0.2071
   52CHL1   C11 3808   5.329   3.856   7.516  0.7353  0.5655 -0.3273
   52CHL1  H11A 3809   5.223   3.825   7.507  0.1630  2.5835 -0.7526
   52CHL1  H11B 3810   5.335   3.957   7.469 -0.2369  1.7425  1.9808
   52CHL1    C9 3811   5.438   3.767   7.439  0.0624  0.5460 -0.4427
   52CHL1    H9 3812   5.536   3.817   7.454 -0.9262  2.0342  1.2428
   52CHL1   C10 3813   5.411   3.754   7.285 -0.1406  0.4736 -0.3389
   52CHL1   C19 3814   5.262   3.710   7.267  0.8297 -0.1578  0.3534
   52CHL1  H19A 3815   5.247   3.610   7.312  0.6568 -0.2107  0.1816
   52CHL1  H19B 3816   5.192   3.788   7.304  0.4491  0.0892 -0.8419
   52CHL1  H19C 3817   5.237   3.703   7.159 -2.0617 -1.1647  1.0439
   52CHL1    C1 3818   5.441   3.891   7.215 -0.2073 -0.1151 -0.7161
   52CHL1   H1A 3819   5.366   3.963   7.256  0.2146 -1.0518  1.7665
   52CHL1   H1B 3820   5.541   3.917   7.256 -0.7647  0.0366  0.5773
   52CHL1    C2 3821   5.437   3.889   7.061  0.3462  0.8613  0.6546
   52CHL1   H2A 3822   5.460   3.989   7.018  0.2225  0.5554 -0.1296
   52CHL1   H2B 3823   5.330   3.874   7.037  0.1644  1.1325  1.2672
   52CHL1   C20 3824   5.404   3.783   8.002 -0.9508  0.8998 -0.5157
   52CHL1   H20 3825   5.317   3.716   8.018  1.2483 -1.4212  2.3243
   52CHL1   C21 3826   5.362   3.930   7.992 -0.5997  0.4268  0.0267
   52CHL1  H21A 3827   5.441   3.979   7.931 -0.7099  0.6581  0.0716
   52CHL1  H21B 3828   5.337   3.986   8.085 -1.5505  0.5678 -0.3101
   52CHL1  H21C 3829   5.267   3.932   7.936 -0.1101  0.4687 -0.7987
   52CHL1   C22 3830   5.466   3.771   8.143 -0.1950  0.2632 -0.0019
   52CHL1  H22A 3831   5.499   3.666   8.158 -2.3492  0.0325  3.7266
   52CHL1  H22B 3832   5.559   3.831   8.151 -0.4719  0.6222  0.5585
   52CHL1   C23 3833   5.370   3.801   8.266 -0.0698 -1.2677  0.8376
   52CHL1  H23A 3834   5.353   3.910   8.282 -0.0287 -0.8334 -1.7223
   52CHL1  H23B 3835   5.273   3.751   8.245 -1.0026 -0.0622  2.2068
   52CHL1   C24 3836   5.424   3.721   8.384  1.1065  1.0255 -0.8791
   52CHL1  H24A 3837   5.444   3.615   8.357  1.7942  1.5211 -2.3621
   52CHL1  H24B 3838   5.527   3.761   8.394  1.8331 -0.2709 -2.7841
   52CHL1   C25 3839   5.334   3.717   8.506  0.4726  0.0088  0.2862
   52CHL1   H25 3840   5.235   3.693   8.462  1.6785 -2.3973 -1.2093
   52CHL1   C26 3841   5.371   3.594   8.584  0.5110  0.5459  0.1623
   52CHL1  H26A 3842   5.468   3.600   8.638 -0.3764  0.5913  1.7830
   52CHL1  H26B 3843   5.289   3.570   8.656  0.0503 -2.0379 -1.1669
   52CHL1  H26C 3844   5.380   3.508   8.515  0.5519  0.5523  0.1601
   52CHL1   C27 3845   5.324   3.844   8.589  0.7475  0.5500 -0.2461
   52CHL1  H27A 3846   5.296   3.932   8.528  0.0676  2.3366  2.5981
   52CHL1  H27B 3847   5.259   3.839   8.679  0.9027  1.8362 -0.0625
   52CHL1  H27C 3848   5.425   3.873   8.626  1.2046  0.1400 -1.1341
   53CHL1    C3 3849   1.330   0.297   6.852  0.1922 -0.0402  0.5543
   53CHL1    H3 3850   1.275   0.389   6.882  1.7358  1.2620 -0.4810
   53CHL1    O3 3851   1.349   0.298   6.714  0.1476 -0.0255 -0.2689
   53CHL1   H3' 3852   1.265   0.283   6.670  0.1829  1.3560 -0.8379
   53CHL1    C4 3853   1.469   0.309   6.914  0.1433  0.0898 -0.7798
   53CHL1   H4A 3854   1.538   0.226   6.889  1.2956  0.4264  1.1806
   53CHL1   H4B 3855   1.517   0.401   6.873 -1.3896  0.9924 -0.6226
   53CHL1    C5 3856   1.461   0.311   7.063  0.0018 -0.1406 -0.1044
   53CHL1    C6 3857   1.515   0.411   7.134 -0.6709  0.2278 -0.3236
   53CHL1    H6 3858   1.574   0.494   7.094 -0.3762 -0.4028 -1.2239
   53CHL1    C7 3859   1.507   0.412   7.283  0.4871 -0.0380  0.3706
   53CHL1   H7A 3860   1.597   0.458   7.328  0.5829 -1.1304  1.3176
   53CHL1   H7B 3861   1.424   0.478   7.316  0.0059  0.3245 -1.5287
   53CHL1    C8 3862   1.474   0.270   7.344  0.6532  0.2643  0.0578
   53CHL1    H8 3863   1.558   0.197   7.336 -0.2418 -0.7770  0.0795
   53CHL1   C14 3864   1.444   0.294   7.499  0.0638  0.1782  0.2178
   53CHL1   H14 3865   1.365   0.371   7.503  0.7227  0.9031 -0.5964
   53CHL1   C15 3866   1.560   0.349   7.588  0.2526  0.5990 -0.0073
   53CHL1  H15A 3867   1.662   0.316   7.557 -0.9393 -2.9413 -0.4067
   53CHL1  H15B 3868   1.581   0.458   7.580 -0.4475  0.8817  1.8534
   53CHL1   C16 3869   1.523   0.310   7.730 -0.5246  0.4479 -0.3271
   53CHL1  H16A 3870   1.613   0.253   7.760 -0.7193 -0.3305 -1.2278
   53CHL1  H16B 3871   1.513   0.397   7.799  0.2930  0.3209 -0.0517
   53CHL1   C17 3872   1.392   0.227   7.723 -0.1412  0.3978 -0.1638
   53CHL1   H17 3873   1.313   0.304   7.736 -1.0641 -0.6875  0.7187
   53CHL1   C13 3874   1.399   0.169   7.576  0.5169 -0.1315 -0.4214
   53CHL1   C18 3875   1.510   0.056   7.564  0.8972  0.8830 -0.7419
   53CHL1  H18A 3876   1.562   0.045   7.466  0.0218  0.2610 -1.1380
   53CHL1  H18B 3877   1.591   0.085   7.634 -0.2215  2.4847 -0.0975
   53CHL1  H18C 3878   1.470  -0.042   7.598  1.7683  0.8569  0.2329
   53CHL1   C12 3879   1.273   0.124   7.504  0.4941 -0.3631 -0.5522
   53CHL1  H12A 3880   1.233   0.029   7.545 -1.0518 -0.0341 -1.2779
   53CHL1  H12B 3881   1.192   0.200   7.514  1.3527  0.3985  0.9210
   53CHL1   C11 3882   1.296   0.090   7.354  0.3103 -0.4224  0.1679
   53CHL1  H11A 3883   1.362   0.001   7.350 -0.9827 -1.4398  0.8435
   53CHL1  H11B 3884   1.193   0.064   7.321 -0.4567  1.9758  0.5428
   53CHL1    C9 3885   1.356   0.212   7.279 -0.0019  0.2583 -0.1294
   53CHL1    H9 3886   1.279   0.292   7.282 -0.4969 -0.0657 -2.7051
   53CHL1   C10 3887   1.376   0.197   7.131 -0.7550  0.1689  0.3403
   53CHL1   C19 3888   1.449   0.061   7.115 -0.3551 -0.0528  0.0804
   53CHL1  H19A 3889   1.380  -0.023   7.138 -0.1837  0.6841  3.5229
   53CHL1  H19B 3890   1.488   0.040   7.013  0.8378  2.1989  0.0444
   53CHL1  H19C 3891   1.539   0.053   7.180  0.3195 -2.3903 -1.0641
   53CHL1    C1 3892   1.239   0.181   7.054  0.5759 -0.7307  0.3308
   53CHL1   H1A 3893   1.179   0.096   7.093 -1.4346  0.7597  0.5841
   53CHL1   H1B 3894   1.180   0.270   7.084 -1.6611 -1.8161 -0.7371
   53CHL1    C2 3895   1.255   0.179   6.903 -0.5630 -0.1016  0.0991
   53CHL1   H2A 3896   1.152   0.182   6.861 -0.1621 -2.4236 -1.1044
   53CHL1   H2B 3897   1.318   0.091   6.880 -0.8632 -1.1101  2.8540
   53CHL1   C20 3898   1.375   0.128   7.834 -0.3426  0.2928  0.1806
   53CHL1   H20 3899   1.428   0.035   7.808  0.2966  1.4025 -2.6334
   53CHL1   C21 3900   1.222   0.109   7.848  0.0712  0.4573  0.2712
   53CHL1  H21A 3901   1.176   0.085   7.749  1.1580 -0.8007  0.0501
   53CHL1  H21B 3902   1.176   0.201   7.890  0.6133  0.8843 -0.0679
   53CHL1  H21C 3903   1.198   0.029   7.922 -0.0580 -0.3008 -0.5686
   53CHL1   C22 3904   1.442   0.174   7.969  0.0963  0.7337 -0.2387
   53CHL1  H22A 3905   1.552   0.185   7.961  0.1812 -1.3464 -2.5575
   53CHL1  H22B 3906   1.405   0.274   8.001  0.4613  0.9153 -0.3805
   53CHL1   C23 3907   1.423   0.075   8.083 -0.4231 -0.0090  1.3011
   53CHL1  H23A 3908   1.313   0.065   8.091 -0.6282  0.1908 -1.0078
   53CHL1  H23B 3909   1.461  -0.025   8.055 -1.3131 -0.7957  2.8187
   53CHL1   C24 3910   1.476   0.127   8.212  0.0480 -0.0341 -0.8126
   53CHL1  H24A 3911   1.584   0.156   8.209 -0.1236  0.7906  0.7718
   53CHL1  H24B 3912   1.427   0.223   8.238 -1.1126 -0.4527 -1.3954
   53CHL1   C25 3913   1.475   0.022   8.321  0.3372  0.9533 -0.5150
   53CHL1   H25 3914   1.531  -0.070   8.291  0.4524  0.8580 -0.0085
   53CHL1   C26 3915   1.554   0.061   8.444 -0.0782 -0.6214  0.2357
   53CHL1  H26A 3916   1.558  -0.027   8.511 -0.6474  0.2595  1.4543
   53CHL1  H26B 3917   1.657   0.088   8.413 -0.4691  0.9538  0.2617
   53CHL1  H26C 3918   1.502   0.140   8.502 -1.8411 -0.1244 -1.9251
   53CHL1   C27 3919   1.336  -0.020   8.360  0.0298 -0.7610 -0.0923
   53CHL1  H27A 3920   1.287   0.067   8.409  1.0455  0.8553 -1.9025
   53CHL1  H27B 3921   1.276  -0.068   8.279 -1.6671  1.1008  0.0347
   53CHL1  H27C 3922   1.349  -0.100   8.437 -0.6289 -1.3359 -0.5721
   54CHL1    C3 3923   1.693   2.094   7.040  0.0256  0.0518  0.5100
   54CHL1    H3 3924   1.607   2.163   7.056 -1.1236 -0.7902 -1.7640
   54CHL1    O3 3925   1.714   2.091   6.899 -0.3647 -0.0588 -0.5565
   54CHL1   H3' 3926   1.735   2.001   6.875  1.2154 -0.0965  0.8194
   54CHL1    C4 3927   1.821   2.159   7.092 -0.4629  0.3350 -0.0232
   54CHL1   H4A 3928   1.908   2.098   7.060  0.2180  2.6568 -2.7521
   54CHL1   H4B 3929   1.826   2.257   7.039 -2.6846 -0.7451 -2.3306
   54CHL1    C5 3930   1.817   2.174   7.241 -0.5091  0.5633  0.7105
   54CHL1    C6 3931   1.840   2.296   7.296 -0.0930 -0.0274  0.6190
   54CHL1    H6 3932   1.876   2.370   7.223 -1.8110  0.3706  0.1376
   54CHL1    C7 3933   1.827   2.327   7.443 -0.0257  0.3899  0.2960
   54CHL1   H7A 3934   1.908   2.398   7.470  0.1120  0.2907  0.1461
   54CHL1   H7B 3935   1.728   2.377   7.442  0.3357  1.1100 -0.3099
   54CHL1    C8 3936   1.822   2.200   7.526 -0.8327 -0.2947 -0.7012
   54CHL1    H8 3937   1.928   2.165   7.527  0.0590  2.3152 -0.3178
   54CHL1   C14 3938   1.784   2.241   7.666 -0.0184 -0.4924  0.1490
   54CHL1   H14 3939   1.679   2.275   7.654 -0.3555 -1.7561 -0.5425
   54CHL1   C15 3940   1.864   2.351   7.740 -0.2051 -0.7710  0.6003
   54CHL1  H15A 3941   1.968   2.334   7.707  0.2487 -0.1402  1.6736
   54CHL1  H15B 3942   1.851   2.454   7.701  2.3289 -0.5929  0.1923
   54CHL1   C16 3943   1.840   2.337   7.889 -0.2438 -0.4473  0.6025
   54CHL1  H16A 3944   1.944   2.324   7.925  0.3206  0.4391 -0.6525
   54CHL1  H16B 3945   1.803   2.430   7.939  0.1160  0.4959 -0.8602
   54CHL1   C17 3946   1.749   2.211   7.905 -0.2666  0.2537 -0.4332
   54CHL1   H17 3947   1.649   2.258   7.898 -0.0186  0.7610 -0.6257
   54CHL1   C13 3948   1.770   2.125   7.771 -1.1963  0.2565 -0.1141
   54CHL1   C18 3949   1.904   2.049   7.782  0.4713 -0.3005  0.3985
   54CHL1  H18A 3950   1.873   1.949   7.819  1.4931 -0.8771 -0.3012
   54CHL1  H18B 3951   1.950   2.024   7.684  0.0759 -1.2611  0.4472
   54CHL1  H18C 3952   1.971   2.095   7.858  0.2659  1.1761 -0.3012
   54CHL1   C12 3953   1.664   2.034   7.713  0.7349 -0.4322 -0.3764
   54CHL1  H12A 3954   1.650   1.939   7.770 -0.7891  0.1805  0.3153
   54CHL1  H12B 3955   1.565   2.083   7.697  0.8104 -0.0514  0.2837
   54CHL1   C11 3956   1.711   1.983   7.575  0.4264  0.5567 -1.1226
   54CHL1  H11A 3957   1.801   1.920   7.591 -0.5433 -0.7827 -0.8752
   54CHL1  H11B 3958   1.642   1.902   7.542  1.3881  0.2642 -2.5318
   54CHL1    C9 3959   1.731   2.096   7.466  0.4599  0.2401  0.1566
   54CHL1    H9 3960   1.633   2.146   7.454 -0.3955 -2.4112 -6.0165
   54CHL1   C10 3961   1.773   2.046   7.323  0.1383 -0.2526  0.4059
   54CHL1   C19 3962   1.893   1.960   7.336 -0.2772  0.2436  0.3277
   54CHL1  H19A 3963   1.967   2.011   7.401  0.5543  1.1931 -1.3563
   54CHL1  H19B 3964   1.855   1.866   7.383 -1.8340 -0.6087 -2.5016
   54CHL1  H19C 3965   1.943   1.938   7.239 -0.3115  1.2296  0.0858
   54CHL1    C1 3966   1.652   1.978   7.254  0.1318  0.4947 -0.0396
   54CHL1   H1A 3967   1.617   1.887   7.308  1.5458 -0.4547 -0.7009
   54CHL1   H1B 3968   1.568   2.049   7.265  0.9343  1.5030 -0.3457
   54CHL1    C2 3969   1.657   1.956   7.100  0.2903  0.1457  0.6227
   54CHL1   H2A 3970   1.552   1.932   7.072  0.7400 -0.0184 -0.9817
   54CHL1   H2B 3971   1.719   1.867   7.075 -2.7703 -2.2693  1.2239
   54CHL1   C20 3972   1.765   2.147   8.047 -0.0588  0.6552 -0.1883
   54CHL1   H20 3973   1.868   2.111   8.069  0.1601  1.3310 -0.0893
   54CHL1   C21 3974   1.670   2.021   8.037  0.1433  0.0708 -0.8833
   54CHL1  H21A 3975   1.720   1.934   7.989  2.0936  0.0639  1.0463
   54CHL1  H21B 3976   1.571   2.047   7.996 -0.3093  0.8404  0.6654
   54CHL1  H21C 3977   1.647   1.992   8.142 -1.5733 -3.0642 -2.0452
   54CHL1   C22 3978   1.732   2.241   8.161 -0.0366 -0.9448 -0.0296
   54CHL1  H22A 3979   1.762   2.190   8.255  0.3311 -1.4907 -0.4432
   54CHL1  H22B 3980   1.799   2.330   8.155 -2.0392  0.4580 -2.1723
   54CHL1   C23 3981   1.586   2.274   8.179 -1.1732 -0.1322  0.2933
   54CHL1  H23A 3982   1.544   2.286   8.077 -2.3007  1.3744  0.9120
   54CHL1  H23B 3983   1.544   2.176   8.212 -3.2797 -0.7284 -3.7807
   54CHL1   C24 3984   1.557   2.406   8.255  0.2042 -0.3921 -0.7884
   54CHL1  H24A 3985   1.613   2.488   8.203 -1.7957  0.8880 -0.9848
   54CHL1  H24B 3986   1.450   2.434   8.266  0.2258 -0.7974  0.5079
   54CHL1   C25 3987   1.609   2.400   8.404 -0.1955 -0.9893  0.1996
   54CHL1   H25 3988   1.720   2.396   8.408 -0.1713 -0.9547 -0.4895
   54CHL1   C26 3989   1.564   2.520   8.475  0.1915 -0.5779  0.1283
   54CHL1  H26A 3990   1.613   2.510   8.574 -2.6660  0.8768  1.7580
   54CHL1  H26B 3991   1.592   2.612   8.420  2.0104 -2.9503 -3.0226
   54CHL1  H26C 3992   1.455   2.528   8.496  0.2436 -0.9645  0.5599
   54CHL1   C27 3993   1.560   2.282   8.487 -0.5394 -0.7316  0.3430
   54CHL1  H27A 3994   1.612   2.277   8.585 -1.7335 -3.5215  0.8825
   54CHL1  H27B 3995   1.452   2.277   8.515 -0.1912 -0.0958  1.8546
   54CHL1  H27C 3996   1.582   2.189   8.432 -1.3330 -1.4597  1.2255
   55CHL1    C3 3997   1.080   4.191   7.121  0.4019 -0.4115  0.6988
   55CHL1    H3 3998   0.983   4.148   7.155 -0.7696  0.3982 -1.4774
   55CHL1    O3 3999   1.091   4.195   6.976  0.0200  0.0800  0.0478
   55CHL1   H3' 4000   1.181   4.218   6.954 -0.4207  0.9597 -0.8996
   55CHL1    C4 4001   1.077   4.337   7.174  0.1510 -0.3140 -0.1149
   55CHL1   H4A 4002   1.154   4.402   7.128 -1.0049  0.9320 -0.3220
   55CHL1   H4B 4003   0.982   4.376   7.131 -1.1310 -1.1365  1.9207
   55CHL1    C5 4004   1.082   4.329   7.324  0.6212 -0.1204  0.0024
   55CHL1    C6 4005   0.991   4.398   7.392 -0.0429 -0.6585  0.2209
   55CHL1    H6 4006   0.906   4.455   7.350  1.5218  1.2384 -0.4710
   55CHL1    C7 4007   1.004   4.415   7.541  0.6271 -0.2931  0.3724
   55CHL1   H7A 4008   0.986   4.521   7.567  0.6469 -0.8943  2.9787
   55CHL1   H7B 4009   0.918   4.366   7.590 -0.6039  1.0390 -0.4210
   55CHL1    C8 4010   1.139   4.377   7.608 -0.4304 -0.3675  0.2926
   55CHL1    H8 4011   1.202   4.468   7.597  0.2058 -0.5422  2.2919
   55CHL1   C14 4012   1.128   4.345   7.758  0.6910 -0.4729 -0.7334
   55CHL1   H14 4013   1.066   4.252   7.762 -2.2795  1.4784  1.7661
   55CHL1   C15 4014   1.048   4.446   7.848 -0.4757 -0.4548  0.1494
   55CHL1  H15A 4015   1.073   4.549   7.814  1.2016 -1.3247 -1.3320
   55CHL1  H15B 4016   0.941   4.429   7.821 -0.0319 -0.3880 -1.7552
   55CHL1   C16 4017   1.092   4.410   7.987 -0.3275  0.3143 -0.1760
   55CHL1  H16A 4018   1.135   4.497   8.041 -1.5156  1.1925 -0.6377
   55CHL1  H16B 4019   1.009   4.379   8.054  1.1600 -1.9625  0.6756
   55CHL1   C17 4020   1.195   4.296   7.973 -0.4921 -0.0544 -0.4263
   55CHL1   H17 4021   1.137   4.201   7.979 -0.5566  0.0737  1.2241
   55CHL1   C13 4022   1.262   4.312   7.827 -0.6713  0.7598  0.5335
   55CHL1   C18 4023   1.371   4.420   7.810  0.4460  0.0596 -0.8665
   55CHL1  H18A 4024   1.467   4.389   7.855  1.4298  2.7239 -1.0582
   55CHL1  H18B 4025   1.396   4.441   7.704 -0.4824  0.5771 -0.9958
   55CHL1  H18C 4026   1.328   4.501   7.873  0.3103 -0.1177 -0.7294
   55CHL1   C12 4027   1.318   4.185   7.756 -0.0233 -0.0050  0.1306
   55CHL1  H12A 4028   1.414   4.160   7.807 -0.6984  0.2261  1.5294
   55CHL1  H12B 4029   1.251   4.097   7.770  0.2217 -0.7254 -2.8438
   55CHL1   C11 4030   1.336   4.204   7.601  0.8279  0.1745  0.1939
   55CHL1  H11A 4031   1.420   4.274   7.580 -0.7195  2.5200  1.6192
   55CHL1  H11B 4032   1.368   4.107   7.557  1.2184  0.4677 -0.1793
   55CHL1    C9 4033   1.206   4.254   7.536 -0.1946  0.7732 -0.0551
   55CHL1    H9 4034   1.129   4.175   7.550 -1.3136  1.9914  0.8384
   55CHL1   C10 4035   1.209   4.258   7.378 -0.1398 -0.0321 -0.6395
   55CHL1   C19 4036   1.342   4.319   7.335  0.0689  0.2362 -0.0555
   55CHL1  H19A 4037   1.424   4.252   7.366  1.2118  1.9844  0.7709
   55CHL1  H19B 4038   1.353   4.333   7.225  0.4297 -1.3724 -0.2332
   55CHL1  H19C 4039   1.362   4.422   7.372  0.9758  0.1380 -0.2733
   55CHL1    C1 4040   1.207   4.110   7.328  0.7362 -0.0177 -0.7891
   55CHL1   H1A 4041   1.291   4.048   7.367  0.1209  0.1958  0.8817
   55CHL1   H1B 4042   1.109   4.077   7.369  0.2496  1.0142 -1.1007
   55CHL1    C2 4043   1.193   4.102   7.174  0.3211 -0.4362 -0.2595
   55CHL1   H2A 4044   1.170   3.994   7.160 -0.2907 -0.4779  0.9762
   55CHL1   H2B 4045   1.284   4.137   7.121 -0.2974 -1.3937 -1.9844
   55CHL1   C20 4046   1.284   4.274   8.098  1.0526  0.0688 -0.3404
   55CHL1   H20 4047   1.370   4.344   8.105  1.2990 -0.0711 -1.7388
   55CHL1   C21 4048   1.349   4.142   8.072  0.7719  1.0412  0.0371
   55CHL1  H21A 4049   1.438   4.169   8.011  0.0862  1.4941 -0.7827
   55CHL1  H21B 4050   1.282   4.067   8.024  1.3845  0.8487 -0.5296
   55CHL1  H21C 4051   1.387   4.103   8.169 -0.2448 -2.8350 -1.0367
   55CHL1   C22 4052   1.211   4.281   8.235 -0.2793 -0.0382 -1.2781
   55CHL1  H22A 4053   1.109   4.236   8.233 -0.7749  0.8402  1.9124
   55CHL1  H22B 4054   1.269   4.212   8.300 -3.9047 -1.0959  1.0300
   55CHL1   C23 4055   1.205   4.427   8.290 -0.4015  0.2767 -0.3414
   55CHL1  H23A 4056   1.279   4.490   8.235  0.8244  0.8380  1.8524
   55CHL1  H23B 4057   1.111   4.464   8.244 -0.7080  0.6954  0.5949
   55CHL1   C24 4058   1.221   4.443   8.441  0.3195 -0.1531  0.1389
   55CHL1  H24A 4059   1.180   4.541   8.472 -0.7893 -0.4099 -0.5087
   55CHL1  H24B 4060   1.163   4.362   8.491  2.1647 -1.0522  0.8845
   55CHL1   C25 4061   1.364   4.423   8.490  0.2843  0.1059 -0.4196
   55CHL1   H25 4062   1.407   4.336   8.434 -0.5389 -0.2801 -0.4563
   55CHL1   C26 4063   1.453   4.540   8.458 -0.5251 -0.0890  0.3660
   55CHL1  H26A 4064   1.561   4.521   8.476 -0.9030 -0.6627  2.0863
   55CHL1  H26B 4065   1.454   4.555   8.348  1.9054 -0.8440  0.2407
   55CHL1  H26C 4066   1.431   4.630   8.518  2.0046 -0.9874  2.7516
   55CHL1   C27 4067   1.368   4.378   8.632  0.4221 -0.6457 -0.1654
   55CHL1  H27A 4068   1.290   4.302   8.656  1.6948 -1.5763  1.1207
   55CHL1  H27B 4069   1.466   4.329   8.650  0.9549  0.7210  0.7423
   55CHL1  H27C 4070   1.363   4.457   8.710  1.0234  1.4071 -2.1819
   56CHL1    C3 4071   0.766   1.956   7.027 -0.8269 -0.0742  0.0959
   56CHL1    H3 4072   0.865   1.906   7.016 -0.9743 -0.3243 -0.0930
   56CHL1    O3 4073   0.714   1.981   6.902  0.3111  0.2209  0.0642
   56CHL1   H3' 4074   0.623   2.002   6.925  0.2190  1.6359 -1.5802
   56CHL1    C4 4075   0.667   1.851   7.090  0.0763 -0.4412 -0.1958
   56CHL1   H4A 4076   0.565   1.895   7.088  1.5513  3.2858  1.2357
   56CHL1   H4B 4077   0.677   1.764   7.022 -0.8045 -2.2010  1.8850
   56CHL1    C5 4078   0.706   1.825   7.233  0.6813 -0.0010 -0.2974
   56CHL1    C6 4079   0.728   1.697   7.276  0.6693  0.8504 -0.1120
   56CHL1    H6 4080   0.710   1.607   7.215  0.2555  1.3432 -0.7172
   56CHL1    C7 4081   0.751   1.664   7.422 -0.2229  0.2649  0.6873
   56CHL1   H7A 4082   0.683   1.584   7.458  4.4618 -4.2993  0.0489
   56CHL1   H7B 4083   0.850   1.619   7.443  0.8691  1.3549 -1.8712
   56CHL1    C8 4084   0.738   1.788   7.514 -0.1577  0.6842  0.0100
   56CHL1    H8 4085   0.631   1.810   7.535  0.3137  0.8781  2.3947
   56CHL1   C14 4086   0.801   1.774   7.654  0.2285  0.1312 -0.2890
   56CHL1   H14 4087   0.908   1.770   7.627  0.0348  2.2232 -1.4806
   56CHL1   C15 4088   0.768   1.648   7.732 -0.0849  0.2904 -0.2819
   56CHL1  H15A 4089   0.658   1.630   7.735 -0.0253 -0.1464 -0.6115
   56CHL1  H15B 4090   0.815   1.559   7.686 -1.0025  0.2252 -1.1203
   56CHL1   C16 4091   0.816   1.673   7.872 -0.3803 -0.2123  0.3832
   56CHL1  H16A 4092   0.731   1.641   7.936  0.4148  0.2178  1.6992
   56CHL1  H16B 4093   0.907   1.614   7.899 -0.6928 -0.3396  1.1820
   56CHL1   C17 4094   0.855   1.825   7.876 -0.2537  0.5682  0.0901
   56CHL1   H17 4095   0.965   1.826   7.862 -0.0651 -1.2151  1.2895
   56CHL1   C13 4096   0.782   1.886   7.757  1.4648 -0.2145 -0.3120
   56CHL1   C18 4097   0.628   1.896   7.782  0.2517  0.2925  0.1486
   56CHL1  H18A 4098   0.580   1.818   7.845  0.0666  0.4131  0.1587
   56CHL1  H18B 4099   0.616   1.998   7.825  1.6793  0.9137 -0.8701
   56CHL1  H18C 4100   0.564   1.898   7.691  0.0318 -1.7975  0.2307
   56CHL1   C12 4101   0.849   2.009   7.699 -0.4536  0.2751 -0.4136
   56CHL1  H12A 4102   0.830   2.098   7.763  0.4139  1.5205 -1.8511
   56CHL1  H12B 4103   0.958   2.016   7.680 -0.1567  0.8318  1.3758
   56CHL1   C11 4104   0.782   2.038   7.566  0.1791 -0.2962  0.8615
   56CHL1  H11A 4105   0.676   2.059   7.588 -0.1408  0.8968 -1.6182
   56CHL1  H11B 4106   0.823   2.133   7.527 -0.0916  0.6393  2.8031
   56CHL1    C9 4107   0.787   1.925   7.461  0.6903  0.4705  0.6099
   56CHL1    H9 4108   0.894   1.903   7.437  0.3119 -0.9861  0.1845
   56CHL1   C10 4109   0.727   1.950   7.318  0.1268  0.3167 -0.2978
   56CHL1   C19 4110   0.586   2.009   7.342 -0.1052  0.0662 -0.4745
   56CHL1  H19A 4111   0.583   2.103   7.401 -3.1908 -1.4097  1.8704
   56CHL1  H19B 4112   0.541   2.050   7.249 -0.4950  0.5484 -0.0751
   56CHL1  H19C 4113   0.514   1.943   7.394 -1.9989  0.1839 -2.8381
   56CHL1    C1 4114   0.821   2.050   7.246  0.6821  0.6362 -0.0688
   56CHL1   H1A 4115   0.838   2.146   7.298 -4.3475  2.3472 -1.3039
   56CHL1   H1B 4116   0.920   2.002   7.230 -0.3223 -1.3963 -0.4035
   56CHL1    C2 4117   0.780   2.088   7.103 -0.4136 -0.3468 -0.6294
   56CHL1   H2A 4118   0.846   2.160   7.051 -2.2225  1.4138 -0.5583
   56CHL1   H2B 4119   0.685   2.146   7.109  1.0469  1.9585  1.0110
   56CHL1   C20 4120   0.827   1.885   8.021  0.3027 -0.0232 -0.8343
   56CHL1   H20 4121   0.724   1.856   8.052  1.1294 -1.7988  0.3043
   56CHL1   C21 4122   0.850   2.037   8.020 -0.5941 -0.0658 -0.1219
   56CHL1  H21A 4123   0.949   2.049   7.969 -1.2940 -2.7581 -2.2626
   56CHL1  H21B 4124   0.843   2.089   8.118  1.9457 -0.0884  0.1128
   56CHL1  H21C 4125   0.768   2.076   7.957 -1.3315  2.5964  2.3931
   56CHL1   C22 4126   0.923   1.823   8.128  0.3377  0.0095 -0.1444
   56CHL1  H22A 4127   0.945   1.717   8.104 -0.4262 -0.4020  0.9408
   56CHL1  H22B 4128   1.024   1.870   8.118  1.6172 -2.7263 -0.5438
   56CHL1   C23 4129   0.860   1.847   8.267  0.4171  0.5827 -0.6918
   56CHL1  H23A 4130   0.888   1.953   8.288 -2.7445  1.6645 -1.6760
   56CHL1  H23B 4131   0.749   1.839   8.264  0.4130  0.1524  0.5007
   56CHL1   C24 4132   0.913   1.756   8.382  0.5558 -0.5714  0.5362
   56CHL1  H24A 4133   0.874   1.656   8.351  0.1073 -0.0538 -0.5899
   56CHL1  H24B 4134   1.023   1.763   8.395  0.2977  0.1753  2.6324
   56CHL1   C25 4135   0.863   1.778   8.526  0.3337 -0.0234  0.0814
   56CHL1   H25 4136   0.755   1.800   8.512  0.2640 -0.2930  0.1908
   56CHL1   C26 4137   0.881   1.646   8.610 -0.3644 -0.7365  0.3266
   56CHL1  H26A 4138   0.986   1.615   8.592 -0.0165  2.3759 -3.8054
   56CHL1  H26B 4139   0.815   1.563   8.576 -0.3188 -1.3149  1.6055
   56CHL1  H26C 4140   0.849   1.666   8.714  2.9752 -1.1112  1.4963
   56CHL1   C27 4141   0.928   1.902   8.585  0.1007 -0.1633 -0.0028
   56CHL1  H27A 4142   1.037   1.881   8.590 -0.4975 -2.8957  2.9259
   56CHL1  H27B 4143   0.930   1.987   8.513  2.0814 -0.1182  0.0569
   56CHL1  H27C 4144   0.893   1.942   8.683 -0.2819  2.0802 -1.0298
   57SAPC     N 4145   1.271   4.807  10.591 -0.1205 -1.0130  0.5070
   57SAPC   C12 4146   1.201   4.818  10.720  0.1087  0.5946 -0.3930
   57SAPC  H12A 4147   1.245   4.744  10.786 -3.2842 -0.0673  1.2263
   57SAPC  H12B 4148   1.096   4.796  10.709 -0.1873  0.8566  1.6036
   57SAPC   C13 4149   1.262   4.662  10.537  0.2648  0.2927  0.3626
   57SAPC  H13A 4150   1.291   4.592  10.614 -1.7294 -2.2608 -1.0999
   57SAPC  H13B 4151   1.159   4.642  10.511  0.2565 -1.1031  1.3970
   57SAPC  H13C 4152   1.328   4.652  10.451  0.1256 -0.5760  0.3472
   57SAPC   C14 4153   1.216   4.898  10.486  0.2187  0.5492  0.0738
   57SAPC  H14A 4154   1.287   4.915  10.406 -0.4807  0.5225 -0.5547
   57SAPC  H14B 4155   1.120   4.879  10.441  0.1300  1.3881 -0.0908
   57SAPC  H14C 4156   1.204   4.993  10.535  0.1666  2.2006 -2.9913
   57SAPC   C15 4157   1.420   4.838  10.597 -0.3687 -0.4512 -0.5918
   57SAPC  H15A 4158   1.459   4.844  10.497 -0.3464 -0.6317 -0.5940
   57SAPC  H15B 4159   1.438   4.926  10.657  0.4816 -0.4858 -0.7980
   57SAPC  H15C 4160   1.468   4.768  10.664  0.1455 -1.7224 -2.2663
   57SAPC   C11 4161   1.188   4.955  10.792 -0.1616  0.8399  0.2074
   57SAPC  H11A 4162   1.289   5.001  10.798 -1.0136  2.9462 -1.0718
   57SAPC  H11B 4163   1.143   4.930  10.890 -2.3497 -1.6075 -1.3760
   57SAPC     P 4164   1.103   5.194  10.732  0.4483  0.0216  0.6128
   57SAPC   O13 4165   0.993   5.235  10.822 -0.1169 -0.4903 -0.6063
   57SAPC   O14 4166   1.238   5.231  10.769  0.6369 -0.1178 -0.1226
   57SAPC   O12 4167   1.104   5.035  10.712  0.6966  1.0574  0.0925
   57SAPC   O11 4168   1.063   5.239  10.582 -0.4045 -0.5353 -0.4714
   57SAPC    C1 4169   0.999   5.362  10.549 -0.2748  0.1555  0.1337
   57SAPC    HA 4170   1.003   5.429  10.638  0.5777  1.1213 -0.6151
   57SAPC    HB 4171   1.063   5.400  10.466 -0.1225 -0.4165 -0.0118
   57SAPC    C2 4172   0.861   5.345  10.492  0.6538  0.6939  0.7342
   57SAPC    HS 4173   0.799   5.288  10.564  2.1131 -1.0262  0.6566
   57SAPC   O21 4174   0.863   5.279  10.365  0.3612 -0.3229  0.2411
   57SAPC   C21 4175   0.855   5.149  10.356  0.5035 -0.4492 -0.1085
   57SAPC   O22 4176   0.851   5.069  10.444 -0.6401  0.1685 -0.4539
   57SAPC   C22 4177   0.852   5.116  10.204 -0.2617 -0.2679 -0.0208
   57SAPC   H2R 4178   0.751   5.082  10.174 -1.3638  0.1384  3.0321
   57SAPC   H2S 4179   0.871   5.207  10.142 -1.9079 -0.2545 -0.5314
   57SAPC    C3 4180   0.794   5.486  10.483 -0.1833 -0.0979  0.5250
   57SAPC    HX 4181   0.781   5.532  10.583  0.6798  0.9405  0.1642
   57SAPC    HY 4182   0.693   5.462  10.443 -0.3250 -1.0629  1.4260
   57SAPC   O31 4183   0.875   5.573  10.400 -0.1376 -0.6013 -0.2771
   57SAPC   C31 4184   0.808   5.653  10.317  0.4370 -0.1229 -0.8347
   57SAPC   O32 4185   0.687   5.665  10.306 -0.1942  0.2155  0.0129
   57SAPC   C32 4186   0.908   5.729  10.253  0.3216 -0.2622  0.6754
   57SAPC   H2X 4187   1.009   5.683  10.242  1.2384  2.0211 -0.8968
   57SAPC   H2Y 4188   0.925   5.821  10.313  2.3182 -0.6074  0.6930
   57SAPC   C23 4189   0.960   5.014  10.169 -1.2717  0.3804 -0.4151
   57SAPC   H3R 4190   0.933   4.916  10.214 -2.1609  1.0960  0.6472
   57SAPC   H3S 4191   1.061   5.042  10.205 -0.7697 -1.6598 -0.1693
   57SAPC   C24 4192   0.970   4.988  10.017  0.6010  0.1120  0.8285
   57SAPC   H4R 4193   0.872   4.950   9.982  1.6053 -0.3991 -1.5227
   57SAPC   H4S 4194   1.036   4.900  10.004 -0.0750 -0.5666  1.8882
   57SAPC   C25 4195   1.028   5.102   9.939  0.3117  0.2611 -0.6849
   57SAPC   H5R 4196   1.112   5.158   9.983  0.2660 -1.1667  1.2815
   57SAPC   C26 4197   0.980   5.137   9.814 -0.8394 -0.2566  0.1355
   57SAPC   H6R 4198   1.039   5.212   9.759 -0.5760 -0.9459 -0.5283
   57SAPC   C27 4199   0.865   5.082   9.733  0.2572  0.3677 -0.0124
   57SAPC   H7R 4200   0.812   5.013   9.802 -1.6285  0.4942 -1.3029
   57SAPC   H7S 4201   0.885   5.022   9.642  1.8512  0.2390  0.4146
   57SAPC   C28 4202   0.764   5.183   9.687 -0.4369 -0.4152 -0.3926
   57SAPC   H8R 4203   0.737   5.250   9.769  0.1591 -0.2376 -0.3345
   57SAPC   C29 4204   0.711   5.197   9.561 -1.2045 -0.0413 -0.2577
   57SAPC   H9R 4205   0.629   5.270   9.555 -1.0268  0.2513  0.7765
   57SAPC  C210 4206   0.729   5.115   9.434 -0.5336 -0.0959  0.6010
   57SAPC  H10R 4207   0.660   5.149   9.352  2.6066 -0.1606 -2.1744
   57SAPC  H10S 4208   0.694   5.011   9.453 -0.5095 -0.0935  0.6543
   57SAPC  C211 4209   0.865   5.107   9.371 -0.5442 -0.2509  0.0846
   57SAPC  H11R 4210   0.950   5.128   9.438 -0.9993 -2.9434  1.5936
   57SAPC  C212 4211   0.892   5.067   9.242 -0.4009 -0.3941 -0.3352
   57SAPC  H12R 4212   0.997   5.057   9.211 -0.5986 -0.8881 -0.8382
   57SAPC  C213 4213   0.783   5.042   9.141 -0.0136 -0.0731  0.1506
   57SAPC  H13R 4214   0.757   5.144   9.105 -1.2793 -0.5538 -0.3299
   57SAPC  H13S 4215   0.686   5.007   9.184  0.1599 -0.0600  0.5543
   57SAPC  C214 4216   0.811   4.959   9.013  0.0007  0.2342  0.8574
   57SAPC  H14R 4217   0.776   4.855   9.010 -0.1300  0.3044 -2.7026
   57SAPC  C215 4218   0.889   5.006   8.908 -0.3376  0.5158 -0.4594
   57SAPC  H15R 4219   0.914   4.933   8.830 -0.2332  0.3919 -0.3087
   57SAPC  C216 4220   0.952   5.136   8.892 -0.2318 -0.1007 -0.1717
   57SAPC  H16R 4221   0.933   5.196   8.984 -0.5080  0.2573 -0.4652
   57SAPC  H16S 4222   0.905   5.181   8.802  1.5328  1.4506 -0.3613
   57SAPC  C217 4223   1.109   5.132   8.900  0.5074 -1.1397 -0.9738
   57SAPC  H17R 4224   1.147   5.078   8.811 -0.4357 -0.3116 -1.9068
   57SAPC  H17S 4225   1.148   5.080   8.990  0.8102  0.7953  0.0578
   57SAPC  C218 4226   1.156   5.276   8.893 -0.5216 -0.1465 -0.4515
   57SAPC  H18R 4227   1.105   5.333   8.974 -2.3163 -0.9831 -0.9598
   57SAPC  H18S 4228   1.147   5.321   8.792  0.4126 -1.3337 -1.0642
   57SAPC  C219 4229   1.311   5.281   8.923 -0.5083 -0.0554 -0.9644
   57SAPC  H19R 4230   1.353   5.198   8.862 -0.2149  0.1890 -1.0994
   57SAPC  H19S 4231   1.330   5.251   9.028 -0.3249 -0.7202 -1.1884
   57SAPC  C220 4232   1.386   5.419   8.913 -0.7574  0.3137 -0.6054
   57SAPC  H20R 4233   1.494   5.401   8.899 -0.9629 -0.9852 -0.5151
   57SAPC  H20S 4234   1.359   5.477   9.004 -1.4435 -1.6537  0.4736
   57SAPC  H20T 4235   1.345   5.461   8.819  0.4412 -1.2401 -1.8357
   57SAPC   C33 4236   0.878   5.790  10.113  0.1298  0.3409  0.0320
   57SAPC   H3X 4237   0.963   5.851  10.075  0.9420 -0.4229  0.5974
   57SAPC   H3Y 4238   0.793   5.862  10.112 -0.4000 -0.2904 -2.5571
   57SAPC   C34 4239   0.866   5.673  10.010 -0.1628 -0.8953 -0.4774
   57SAPC   H4X 4240   0.786   5.607  10.051 -1.3624  0.0629 -1.2088
   57SAPC   H4Y 4241   0.953   5.606  10.019 -0.2613 -0.5689  3.8121
   57SAPC   C35 4242   0.853   5.721   9.860 -0.4935 -0.3573 -0.2993
   57SAPC   H5X 4243   0.952   5.753   9.823 -0.1363 -0.0561  0.8876
   57SAPC   H5Y 4244   0.779   5.804   9.854  1.8653  2.3073  4.2569
   57SAPC   C36 4245   0.799   5.605   9.779 -0.1047 -0.5291  0.2223
   57SAPC   H6X 4246   0.696   5.587   9.816 -0.0391 -1.1369  0.1143
   57SAPC   H6Y 4247   0.858   5.516   9.809  3.1847  1.6037  0.2773
   57SAPC   C37 4248   0.786   5.633   9.626 -1.1644  0.1920 -0.4304
   57SAPC   H7X 4249   0.730   5.729   9.619 -1.8190 -0.1632 -0.0698
   57SAPC   H7Y 4250   0.724   5.555   9.577 -0.3179  0.2252 -1.5878
   57SAPC   C38 4251   0.917   5.642   9.546  0.2574  0.1559 -0.8646
   57SAPC   H8X 4252   0.993   5.688   9.613 -1.8593 -0.3190  1.9692
   57SAPC   H8Y 4253   0.892   5.720   9.471  0.4295  0.8861 -0.1671
   57SAPC   C39 4254   0.967   5.509   9.494  0.2176  0.3342 -0.3194
   57SAPC   H9X 4255   0.974   5.426   9.567  1.3235 -1.0251 -1.9309
   57SAPC   H9Y 4256   1.072   5.535   9.468 -0.2072  3.3159  0.7334
   57SAPC  C310 4257   0.892   5.477   9.362  0.3872 -0.2685  0.1746
   57SAPC  H10X 4258   0.786   5.459   9.388  0.1665  0.7256  0.0072
   57SAPC  H10Y 4259   0.937   5.379   9.334 -0.3474 -0.7877  0.7883
   57SAPC  C311 4260   0.927   5.574   9.239  0.1894  0.4208 -0.5926
   57SAPC  H11X 4261   1.035   5.561   9.216 -0.5447 -1.1143 -3.4266
   57SAPC  H11Y 4262   0.897   5.678   9.262 -2.6397  0.2751 -3.2693
   57SAPC  C312 4263   0.837   5.541   9.120 -0.3318 -0.0205 -0.0257
   57SAPC  H12X 4264   0.732   5.574   9.133 -0.2778  1.0261 -2.1325
   57SAPC  H12Y 4265   0.840   5.433   9.098  0.2649  0.3537 -1.8810
   57SAPC  C313 4266   0.885   5.622   8.996  0.3748  0.2812  0.6503
   57SAPC  H13X 4267   0.973   5.572   8.951  0.5277  0.1081  1.1346
   57SAPC  H13Y 4268   0.906   5.729   9.019  0.0172  0.4043  0.4085
   57SAPC  C314 4269   0.776   5.633   8.894 -0.6243  0.1180 -0.0245
   57SAPC  H14X 4270   0.687   5.685   8.936  0.5031  1.4961  0.6938
   57SAPC  H14Y 4271   0.749   5.532   8.858 -1.9564  0.7371 -0.8169
   57SAPC  C315 4272   0.838   5.702   8.775  0.4587 -0.4650 -0.1586
   57SAPC  H15X 4273   0.928   5.645   8.746 -0.1357 -1.8084  0.5928
   57SAPC  H15Y 4274   0.867   5.805   8.806  1.6693 -0.8529  0.0230
   57SAPC  C316 4275   0.761   5.714   8.639 -0.4595  0.1939  0.0364
   57SAPC  H16X 4276   0.751   5.611   8.598 -0.6145  0.1213  0.2535
   57SAPC  H16Y 4277   0.815   5.786   8.573 -1.9550  0.6757 -0.6878
   57SAPC  C317 4278   0.622   5.772   8.651 -0.5261 -0.2837 -0.0690
   57SAPC  H17X 4279   0.622   5.870   8.704 -0.1173  1.1680 -2.6279
   57SAPC  H17Y 4280   0.558   5.707   8.715 -2.2933  2.7317  1.3600
   57SAPC  C318 4281   0.553   5.798   8.520  0.5712  0.1358  0.2754
   57SAPC  H18X 4282   0.448   5.833   8.525  0.2581 -0.7913  0.3101
   57SAPC  H18Y 4283   0.553   5.710   8.453  1.7238  1.9833 -2.2566
   57SAPC  H18Z 4284   0.620   5.866   8.462  0.5183  1.4713  1.7714
   58SAPC     N 4285   3.765   3.440  10.781  0.6092 -0.2366  0.2921
   58SAPC   C12 4286   3.808   3.561  10.690  0.2473  0.3955 -0.3839
   58SAPC  H12A 4287   3.913   3.547  10.669 -0.0978 -2.3181 -0.4914
   58SAPC  H12B 4288   3.791   3.655  10.740  0.1904  0.5842 -0.7549
   58SAPC   C13 4289   3.788   3.311  10.711 -0.0920  0.0253  0.5465
   58SAPC  H13A 4290   3.757   3.221  10.762  1.0781  0.1220  1.4559
   58SAPC  H13B 4291   3.762   3.325  10.607  1.3651  3.2774  0.5524
   58SAPC  H13C 4292   3.894   3.293  10.701  0.3522  2.8896 -0.4360
   58SAPC   C14 4293   3.845   3.435  10.914  0.2662 -0.0118 -0.1615
   58SAPC  H14A 4294   3.835   3.526  10.972  1.4036  1.4472 -2.1953
   58SAPC  H14B 4295   3.808   3.360  10.982 -1.2333 -0.1423 -1.0985
   58SAPC  H14C 4296   3.951   3.418  10.900  0.3523 -0.4283  0.9295
   58SAPC   C15 4297   3.618   3.447  10.823  0.6746 -0.2823  0.1037
   58SAPC  H15A 4298   3.601   3.532  10.888  1.8274 -0.6838  0.9503
   58SAPC  H15B 4299   3.564   3.453  10.730  3.4784 -1.0290 -1.6329
   58SAPC  H15C 4300   3.603   3.352  10.871  2.3513 -1.5090 -1.7393
   58SAPC   C11 4301   3.726   3.569  10.558  0.1081 -0.5700 -0.4666
   58SAPC  H11A 4302   3.701   3.469  10.519 -1.4138 -0.9756  1.4449
   58SAPC  H11B 4303   3.799   3.615  10.489  1.0354 -1.1336  0.1348
   58SAPC     P 4304   3.477   3.648  10.516  0.1274  0.2725  0.4466
   58SAPC   O13 4305   3.385   3.557  10.592  0.2043 -0.9576 -0.5060
   58SAPC   O14 4306   3.435   3.789  10.496 -0.1280  0.1608  0.1033
   58SAPC   O12 4307   3.619   3.657  10.581 -0.2484  0.1380  0.2747
   58SAPC   O11 4308   3.500   3.575  10.375  0.2061 -0.4296  0.3279
   58SAPC    C1 4309   3.438   3.444  10.345 -0.0369 -0.0323  0.5683
   58SAPC    HA 4310   3.502   3.361  10.382  0.0771 -0.7112 -1.0907
   58SAPC    HB 4311   3.335   3.449  10.385 -0.0093  1.1050  0.5204
   58SAPC    C2 4312   3.435   3.429  10.195 -0.2019 -0.1129 -0.6403
   58SAPC    HS 4313   3.376   3.340  10.164 -0.5209  0.6852 -2.3937
   58SAPC   O21 4314   3.575   3.422  10.151 -0.1014 -0.0574  0.6170
   58SAPC   C21 4315   3.623   3.301  10.150  0.5110 -0.5304 -0.0254
   58SAPC   O22 4316   3.576   3.199  10.193  0.0381  0.2386 -0.0653
   58SAPC   C22 4317   3.750   3.303  10.065 -0.0984 -0.3116  0.1130
   58SAPC   H2R 4318   3.794   3.402  10.090  2.1614 -0.8576 -1.5797
   58SAPC   H2S 4319   3.822   3.223  10.094  0.7145 -0.8198 -3.1505
   58SAPC    C3 4320   3.358   3.546  10.122 -0.0952  0.4312 -0.5254
   58SAPC    HX 4321   3.408   3.641  10.150  0.8494 -0.3768  0.5569
   58SAPC    HY 4322   3.258   3.565  10.167 -0.7406  0.8868 -2.1167
   58SAPC   O31 4323   3.353   3.535   9.975  0.1686 -0.1187 -0.6106
   58SAPC   C31 4324   3.455   3.589   9.905  0.2548  0.1849  0.1193
   58SAPC   O32 4325   3.552   3.650   9.944 -0.0864 -0.2138  0.6380
   58SAPC   C32 4326   3.438   3.543   9.750 -0.2024  0.1734  0.0492
   58SAPC   H2X 4327   3.334   3.569   9.722 -0.7603 -1.9990 -0.0190
   58SAPC   H2Y 4328   3.454   3.433   9.751 -0.2934  0.1611  0.7317
   58SAPC   C23 4329   3.712   3.297   9.915 -0.3112  0.4187 -0.6293
   58SAPC   H3R 4330   3.641   3.381   9.900  0.5299  0.8232 -2.4657
   58SAPC   H3S 4331   3.660   3.201   9.898  2.0791 -1.0122 -0.0751
   58SAPC   C24 4332   3.825   3.335   9.814 -0.3859 -0.2764  0.3831
   58SAPC   H4R 4333   3.920   3.283   9.841  0.4205  1.2517  0.5182
   58SAPC   H4S 4334   3.829   3.445   9.828 -2.1410 -0.0052 -1.0270
   58SAPC   C25 4335   3.775   3.306   9.677 -0.5010  0.7886  0.4446
   58SAPC   H5R 4336   3.668   3.312   9.655 -0.5122 -0.3331  0.1970
   58SAPC   C26 4337   3.852   3.280   9.567  0.0983 -0.1228  0.0133
   58SAPC   H6R 4338   3.796   3.241   9.480  0.4572  0.3685 -0.4462
   58SAPC   C27 4339   4.000   3.291   9.549 -0.1818  0.8631  0.3952
   58SAPC   H7R 4340   4.012   3.261   9.443 -0.9659 -2.5126  1.2258
   58SAPC   H7S 4341   4.060   3.224   9.614  2.5888  3.5668  0.7709
   58SAPC   C28 4342   4.053   3.435   9.564 -0.0140 -0.2260  0.6572
   58SAPC   H8R 4343   4.014   3.487   9.652 -0.3596 -0.1883  0.4828
   58SAPC   C29 4344   4.138   3.510   9.481  0.2773  0.3100 -0.7084
   58SAPC   H9R 4345   4.161   3.616   9.500 -1.3047  0.7725 -1.2911
   58SAPC  C210 4346   4.210   3.448   9.356  0.3013  0.2133  0.2853
   58SAPC  H10R 4347   4.173   3.500   9.264 -0.8250  0.5996  0.9408
   58SAPC  H10S 4348   4.183   3.341   9.341 -1.5601  0.9164 -1.7772
   58SAPC  C211 4349   4.358   3.471   9.367 -0.8823 -0.2370 -0.2851
   58SAPC  H11R 4350   4.394   3.566   9.410  0.4995 -0.0205 -1.8802
   58SAPC  C212 4351   4.455   3.389   9.312  0.1265  0.0052 -0.7250
   58SAPC  H12R 4352   4.558   3.418   9.336 -0.6120 -0.1787  2.8568
   58SAPC  C213 4353   4.429   3.256   9.240  0.6117 -0.1683 -0.1968
   58SAPC  H13R 4354   4.351   3.272   9.163  2.9365  1.7199 -2.2457
   58SAPC  H13S 4355   4.384   3.194   9.321  0.4121 -0.2349 -0.3591
   58SAPC  C214 4356   4.542   3.185   9.168  0.4305 -0.0509 -0.1913
   58SAPC  H14R 4357   4.646   3.201   9.201  0.4339 -1.0249  0.2820
   58SAPC  C215 4358   4.543   3.114   9.057  0.3947 -0.0409  0.2520
   58SAPC  H15R 4359   4.636   3.065   9.025  0.9892  1.2830 -0.0983
   58SAPC  C216 4360   4.428   3.069   8.973  0.3855  0.2655  0.3224
   58SAPC  H16R 4361   4.342   3.138   8.980 -0.0034 -0.1903  0.0967
   58SAPC  H16S 4362   4.382   2.976   9.014  0.6284  0.8936  2.0495
   58SAPC  C217 4363   4.463   3.050   8.822  0.3017 -1.0120  0.3043
   58SAPC  H17R 4364   4.393   2.970   8.787 -0.1107 -1.5672  2.3298
   58SAPC  H17S 4365   4.567   3.014   8.805  0.9071  1.4969 -1.6805
   58SAPC  C218 4366   4.439   3.178   8.747 -0.3824 -0.2445  0.5493
   58SAPC  H18R 4367   4.495   3.263   8.793  1.4061 -1.9531  1.6133
   58SAPC  H18S 4368   4.329   3.190   8.753 -0.3649 -0.6307  1.7934
   58SAPC  C219 4369   4.488   3.163   8.593 -0.1497  0.0574  0.2002
   58SAPC  H19R 4370   4.451   3.246   8.529 -0.8071 -0.9265 -0.7093
   58SAPC  H19S 4371   4.453   3.072   8.540  2.0868 -0.0484 -1.1379
   58SAPC  C220 4372   4.636   3.174   8.578 -0.5696  0.1750  0.1091
   58SAPC  H20R 4373   4.681   3.255   8.639 -1.2275  1.9282 -1.6570
   58SAPC  H20S 4374   4.670   3.187   8.473 -1.8899  1.5945 -0.1501
   58SAPC  H20T 4375   4.687   3.083   8.616  1.0375  2.2162  3.0425
   58SAPC   C33 4376   3.527   3.597   9.642  0.5811  0.8580  0.2419
   58SAPC   H3X 4377   3.633   3.579   9.668  0.9958  2.0190 -0.5976
   58SAPC   H3Y 4378   3.521   3.707   9.632  0.4470  0.7588 -0.8253
   58SAPC   C34 4379   3.483   3.527   9.512 -0.0614 -0.3792  0.0521
   58SAPC   H4X 4380   3.380   3.562   9.490 -0.6333 -0.5338  2.3593
   58SAPC   H4Y 4381   3.470   3.418   9.534  2.3402 -0.9899 -1.3624
   58SAPC   C35 4382   3.584   3.558   9.402  0.2249  0.1245 -0.5777
   58SAPC   H5X 4383   3.557   3.498   9.312  0.2495  0.3769 -0.7529
   58SAPC   H5Y 4384   3.688   3.528   9.424 -0.3513 -0.0221  2.1613
   58SAPC   C36 4385   3.577   3.704   9.363 -0.3730  0.0666  0.7450
   58SAPC   H6X 4386   3.642   3.763   9.432 -0.5113  0.5240  0.4895
   58SAPC   H6Y 4387   3.473   3.741   9.350 -0.0398  1.4264  1.7888
   58SAPC   C37 4388   3.647   3.725   9.228 -0.3247 -0.3517  0.6014
   58SAPC   H7X 4389   3.661   3.833   9.208  0.1113 -0.6433 -0.7972
   58SAPC   H7Y 4390   3.592   3.685   9.140  1.9563 -2.7844  0.2108
   58SAPC   C38 4391   3.786   3.663   9.220  0.7035  0.3783  0.0423
   58SAPC   H8X 4392   3.792   3.554   9.243  1.2157  0.7639  1.7627
   58SAPC   H8Y 4393   3.847   3.710   9.300  2.9963  0.0102 -1.4407
   58SAPC   C39 4394   3.853   3.695   9.084  0.0869  0.3881 -0.3934
   58SAPC   H9X 4395   3.840   3.800   9.049  0.1573 -0.6011 -3.5345
   58SAPC   H9Y 4396   3.807   3.643   8.998  1.8728 -0.3667 -0.9190
   58SAPC  C310 4397   4.003   3.663   9.085  0.0186 -0.7547  0.3446
   58SAPC  H10X 4398   4.019   3.568   9.141  1.0186 -1.4344 -1.0766
   58SAPC  H10Y 4399   4.051   3.746   9.142  2.6742 -2.3418  0.4642
   58SAPC  C311 4400   4.072   3.646   8.943  0.6819  0.5405  0.0869
   58SAPC  H11X 4401   4.042   3.735   8.884 -1.7183 -2.3582 -3.2010
   58SAPC  H11Y 4402   4.039   3.552   8.895 -0.6519 -0.1059  2.2099
   58SAPC  C312 4403   4.228   3.638   8.957  0.7840 -0.3933 -0.1865
   58SAPC  H12X 4404   4.258   3.539   8.998  0.0803  0.8247  3.5076
   58SAPC  H12Y 4405   4.265   3.723   9.019  0.4795 -1.3585  1.3469
   58SAPC  C313 4406   4.311   3.677   8.832  0.1496  0.1898 -0.0545
   58SAPC  H13X 4407   4.285   3.780   8.800 -1.9079 -0.5054 -0.7326
   58SAPC  H13Y 4408   4.287   3.615   8.742 -0.9491 -0.2409  0.5168
   58SAPC  C314 4409   4.463   3.673   8.862 -0.6345  0.2401 -1.0117
   58SAPC  H14X 4410   4.472   3.705   8.968 -2.5060  0.0716 -0.7972
   58SAPC  H14Y 4411   4.517   3.742   8.794  0.7354  0.8749  0.6621
   58SAPC  C315 4412   4.527   3.531   8.846 -0.1449  0.0241 -0.0588
   58SAPC  H15X 4413   4.512   3.498   8.742  0.2897  2.0764 -0.7998
   58SAPC  H15Y 4414   4.474   3.466   8.919 -1.9794 -0.3070 -1.6361
   58SAPC  C316 4415   4.677   3.537   8.870 -0.1570 -0.4718  0.5144
   58SAPC  H16X 4416   4.717   3.603   8.789 -3.4369  0.3331 -0.5364
   58SAPC  H16Y 4417   4.708   3.431   8.860  1.5958  0.0546  0.0106
   58SAPC  C317 4418   4.722   3.605   8.996 -0.2077  0.2529  0.1509
   58SAPC  H17X 4419   4.677   3.552   9.083 -1.3430 -1.1406 -1.2646
   58SAPC  H17Y 4420   4.687   3.711   8.997 -1.3751 -0.1193  3.1049
   58SAPC  C318 4421   4.873   3.600   9.021 -0.1142 -0.3395  0.3013
   58SAPC  H18X 4422   4.899   3.623   9.127 -1.3755 -2.8048  1.1800
   58SAPC  H18Y 4423   4.927   3.672   8.956  0.2839 -1.7954 -0.9988
   58SAPC  H18Z 4424   4.909   3.498   8.996  1.2372  0.1390  0.2011
   59SAPC     N 4425   4.970   4.932  11.435  0.0421 -0.4576 -0.3445
   59SAPC   C12 4426   5.019   4.824  11.345 -0.7688  0.7813 -0.3008
   59SAPC  H12A 4427   4.966   4.731  11.360  2.7055 -1.4187 -1.2134
   59SAPC  H12B 4428   5.123   4.800  11.362 -1.2426 -1.5217 -0.4869
   59SAPC   C13 4429   5.028   4.909  11.569  0.1398  0.1382 -0.3843
   59SAPC  H13A 4430   5.136   4.913  11.561  0.3282 -3.3630 -0.5500
   59SAPC  H13B 4431   4.996   4.990  11.632  1.3175 -0.5499  1.1308
   59SAPC  H13C 4432   4.993   4.820  11.619  2.7720 -0.5245  0.3476
   59SAPC   C14 4433   5.010   5.069  11.374 -0.1882 -0.1169  0.2552
   59SAPC  H14A 4434   4.992   5.061  11.268  1.8430  0.3427 -0.1372
   59SAPC  H14B 4435   4.936   5.139  11.411 -0.1013  0.9209 -1.4976
   59SAPC  H14C 4436   5.109   5.098  11.404  0.2918 -0.2806 -1.1585
   59SAPC   C15 4437   4.821   4.928  11.441 -0.1498 -0.0971 -0.0073
   59SAPC  H15A 4438   4.782   5.003  11.508  0.6220 -0.0855  0.4324
   59SAPC  H15B 4439   4.782   4.947  11.342  0.5007  0.7591 -0.1014
   59SAPC  H15C 4440   4.799   4.828  11.475  1.9001 -1.1437 -1.6777
   59SAPC   C11 4441   5.007   4.853  11.185  0.5201  0.0583  0.1811
   59SAPC  H11A 4442   5.041   4.762  11.131 -1.2245 -0.1819 -0.5609
   59SAPC  H11B 4443   5.063   4.943  11.153 -0.9555  0.8589 -0.1965
   59SAPC     P 4444   4.821   4.984  11.056  0.2290  0.1612  0.1771
   59SAPC   O13 4445   4.673   4.987  11.045 -0.0391  0.5961  0.7620
   59SAPC   O14 4446   4.879   5.114  11.091  0.1510 -0.7116 -0.5467
   59SAPC   O12 4447   4.866   4.874  11.158  0.2039  0.2507  0.2194
   59SAPC   O11 4448   4.876   4.937  10.920 -0.0039  0.2593  0.3533
   59SAPC    C1 4449   4.849   4.807  10.866 -0.9850  0.2056 -0.1606
   59SAPC    HA 4450   4.949   4.758  10.866 -0.2841  1.5461  1.7798
   59SAPC    HB 4451   4.784   4.738  10.924 -0.8823 -1.9023 -2.4545
   59SAPC    C2 4452   4.817   4.817  10.715  0.3075 -0.3606  0.5900
   59SAPC    HS 4453   4.821   4.714  10.674 -0.5798 -0.5676  1.0154
   59SAPC   O21 4454   4.907   4.909  10.640 -0.4721  0.2553  0.5693
   59SAPC   C21 4455   5.002   4.845  10.572 -0.0895 -0.2642  0.0153
   59SAPC   O22 4456   5.014   4.725  10.562 -0.0859 -0.1290  0.8861
   59SAPC   C22 4457   5.084   4.957  10.512  0.5222 -0.0555 -0.3109
   59SAPC   H2R 4458   5.031   5.042  10.466  0.6879  0.9191  1.2767
   59SAPC   H2S 4459   5.127   5.008  10.601  0.0431  1.6463 -1.0556
   59SAPC    C3 4460   4.669   4.874  10.700 -1.0698  1.0820  0.4399
   59SAPC    HX 4461   4.660   4.983  10.720  1.4320  1.7482 -1.7783
   59SAPC    HY 4462   4.617   4.807  10.772 -0.4489 -0.5802 -0.6433
   59SAPC   O31 4463   4.605   4.832  10.580  0.0745  0.0559 -0.1169
   59SAPC   C31 4464   4.616   4.887  10.468  0.6029  0.4362 -0.5995
   59SAPC   O32 4465   4.666   4.996  10.441  0.1982  0.0179  0.1708
   59SAPC   C32 4466   4.537   4.790  10.374  0.1978 -0.7650 -0.5204
   59SAPC   H2X 4467   4.436   4.783  10.421 -0.3610  2.7472 -1.0763
   59SAPC   H2Y 4468   4.589   4.692  10.370 -1.1753 -1.5116 -0.7055
   59SAPC   C23 4469   5.197   4.894  10.422 -0.6983 -0.5202  0.6476
   59SAPC   H3R 4470   5.154   4.849  10.330  3.5222 -0.8587 -1.3102
   59SAPC   H3S 4471   5.246   4.817  10.485  2.6208 -0.2247 -1.4270
   59SAPC   C24 4472   5.311   4.997  10.393  0.1238 -0.2216  0.6160
   59SAPC   H4R 4473   5.350   5.023  10.494 -0.0904 -3.0489  1.4785
   59SAPC   H4S 4474   5.263   5.091  10.358  1.3228  0.7545  1.5527
   59SAPC   C25 4475   5.405   4.938  10.293  0.5573  0.0974 -0.4543
   59SAPC   H5R 4476   5.479   4.868  10.336  0.5792  0.1420 -0.4221
   59SAPC   C26 4477   5.392   4.950  10.159 -0.1424  0.1022  0.4542
   59SAPC   H6R 4478   5.470   4.910  10.093 -0.9933 -0.9834  0.0765
   59SAPC   C27 4479   5.284   5.014  10.079 -0.0048 -0.0228 -0.1063
   59SAPC   H7R 4480   5.315   5.102  10.018 -2.4243 -1.4330 -3.5608
   59SAPC   H7S 4481   5.211   5.062  10.147  1.2387  0.7748  0.6811
   59SAPC   C28 4482   5.219   4.911   9.995 -0.0931  0.9068  0.3885
   59SAPC   H8R 4483   5.147   4.845  10.046 -0.2738  0.9143  0.1497
   59SAPC   C29 4484   5.246   4.883   9.862 -0.0487  0.3748 -0.1337
   59SAPC   H9R 4485   5.191   4.810   9.801 -2.7524  1.9450  0.3290
   59SAPC  C210 4486   5.352   4.954   9.778  0.0817  0.8050 -0.0488
   59SAPC  H10R 4487   5.437   4.886   9.754 -0.3263  0.3897 -0.3139
   59SAPC  H10S 4488   5.414   5.021   9.841  0.7310 -0.8219  1.0695
   59SAPC  C211 4489   5.310   5.028   9.658 -0.4066  0.8825 -0.1181
   59SAPC  H11R 4490   5.300   5.136   9.675 -0.3120  1.2001 -1.9848
   59SAPC  C212 4491   5.295   4.981   9.536  0.3175  0.4518  0.1794
   59SAPC  H12R 4492   5.253   5.052   9.463  1.3803  0.4200 -0.4753
   59SAPC  C213 4493   5.311   4.839   9.489 -0.3162  0.5103 -0.9587
   59SAPC  H13R 4494   5.381   4.773   9.545 -1.2994  0.8691  0.7414
   59SAPC  H13S 4495   5.363   4.844   9.391 -1.4344 -0.6782 -1.6362
   59SAPC  C214 4496   5.183   4.761   9.478 -0.6593  0.1636 -0.4064
   59SAPC  H14R 4497   5.119   4.764   9.568 -0.6413  0.5985 -0.4036
   59SAPC  C215 4498   5.136   4.693   9.374  0.0622 -0.1551  0.3665
   59SAPC  H15R 4499   5.035   4.651   9.384  0.3314 -1.1709 -1.0458
   59SAPC  C216 4500   5.202   4.684   9.243 -0.0567 -0.2529  0.0003
   59SAPC  H16R 4501   5.268   4.595   9.227 -0.2692 -0.6078  1.0958
   59SAPC  H16S 4502   5.275   4.767   9.232 -1.8155  1.0901 -2.1038
   59SAPC  C217 4503   5.131   4.710   9.107 -0.3922 -0.1041 -0.6061
   59SAPC  H17R 4504   5.088   4.812   9.115 -3.9932 -1.5547 -0.5478
   59SAPC  H17S 4505   5.041   4.649   9.087 -0.8813  0.4269 -0.0728
   59SAPC  C218 4506   5.218   4.693   8.990 -0.2315 -0.0423  0.6765
   59SAPC  H18R 4507   5.275   4.599   9.002 -0.7463 -0.1772  2.2869
   59SAPC  H18S 4508   5.280   4.783   8.972 -1.5923  1.0468  1.2710
   59SAPC  C219 4509   5.133   4.690   8.863  0.0906 -0.0628 -0.3454
   59SAPC  H19R 4510   5.036   4.639   8.879 -0.4721  0.5290 -1.8059
   59SAPC  H19S 4511   5.183   4.622   8.791 -0.4231 -1.2433  0.3974
   59SAPC  C220 4512   5.118   4.828   8.799 -1.2190 -0.8975 -0.7418
   59SAPC  H20R 4513   5.061   4.883   8.878  0.8778 -0.2173  0.3239
   59SAPC  H20S 4514   5.042   4.846   8.719 -1.8903 -0.3389  0.0080
   59SAPC  H20T 4515   5.217   4.867   8.767 -1.8727  1.5423  0.0330
   59SAPC   C33 4516   4.522   4.843  10.226 -0.2861  0.3804  0.2324
   59SAPC   H3X 4517   4.517   4.953  10.218  0.5158  0.3041 -1.8562
   59SAPC   H3Y 4518   4.418   4.825  10.194 -0.1841  0.1660  0.0166
   59SAPC   C34 4519   4.638   4.796  10.135  0.6366  0.1789 -0.2430
   59SAPC   H4X 4520   4.646   4.685  10.131  0.1505  0.1465 -0.3109
   59SAPC   H4Y 4521   4.734   4.834  10.177  0.5690  0.7233 -0.5770
   59SAPC   C35 4522   4.627   4.844   9.987  0.9949 -0.1936 -0.5235
   59SAPC   H5X 4523   4.629   4.954   9.971  1.3650 -0.3451 -1.5406
   59SAPC   H5Y 4524   4.522   4.828   9.955 -0.1759  0.8990  2.5181
   59SAPC   C36 4525   4.725   4.766   9.888 -0.1841 -0.2882  0.6425
   59SAPC   H6X 4526   4.712   4.657   9.908  2.2679 -0.3068  2.4386
   59SAPC   H6Y 4527   4.827   4.793   9.923  0.1310  0.9321 -1.1884
   59SAPC   C37 4528   4.695   4.803   9.743  0.1314 -0.3786  0.1041
   59SAPC   H7X 4529   4.677   4.913   9.746 -1.4747 -0.6263  0.4367
   59SAPC   H7Y 4530   4.603   4.756   9.700  0.2461  0.4733 -1.0927
   59SAPC   C38 4531   4.813   4.773   9.648 -0.0779 -0.6476 -0.2437
   59SAPC   H8X 4532   4.857   4.674   9.670 -0.6888 -0.8081  0.2665
   59SAPC   H8Y 4533   4.893   4.847   9.668 -1.1169 -0.1142  2.0785
   59SAPC   C39 4534   4.770   4.769   9.502 -0.2943  0.2412 -0.4049
   59SAPC   H9X 4535   4.689   4.694   9.489 -1.3435  1.4519 -1.0629
   59SAPC   H9Y 4536   4.856   4.740   9.439 -1.3375 -0.3161 -1.5962
   59SAPC  C310 4537   4.722   4.907   9.450  0.2891 -0.0587  0.7090
   59SAPC  H10X 4538   4.798   4.986   9.469  1.4394 -0.6842 -1.0947
   59SAPC  H10Y 4539   4.629   4.929   9.507 -1.9897 -0.2157 -2.8005
   59SAPC  C311 4540   4.673   4.899   9.307  1.1242  0.0607 -0.1706
   59SAPC  H11X 4541   4.591   4.972   9.292  1.2168 -0.1494 -1.8099
   59SAPC  H11Y 4542   4.627   4.800   9.284  2.7879 -1.1358  1.4860
   59SAPC  C312 4543   4.782   4.928   9.208 -0.4994 -0.1513  0.1804
   59SAPC  H12X 4544   4.846   4.838   9.223 -0.3844 -0.1799 -0.4791
   59SAPC  H12Y 4545   4.839   5.015   9.246 -1.1211  0.1642  0.3890
   59SAPC  C313 4546   4.746   4.931   9.053  0.4118 -0.7629  0.0481
   59SAPC  H13X 4547   4.701   4.834   9.020  2.6841 -2.0191  0.5365
   59SAPC  H13Y 4548   4.839   4.944   8.995 -0.4499  0.8643 -0.9975
   59SAPC  C314 4549   4.637   5.041   9.030 -0.2105 -0.2115 -0.1883
   59SAPC  H14X 4550   4.689   5.137   9.051  0.9798 -0.4210 -2.0631
   59SAPC  H14Y 4551   4.549   5.011   9.092 -1.3244  0.6621 -1.3051
   59SAPC  C315 4552   4.585   5.046   8.883  0.4559 -0.7894 -0.8685
   59SAPC  H15X 4553   4.568   4.944   8.843 -0.5042 -0.0989 -2.2824
   59SAPC  H15Y 4554   4.672   5.092   8.831 -0.3781 -0.7732 -2.2945
   59SAPC  C316 4555   4.461   5.131   8.869  0.0260  0.0024  0.9300
   59SAPC  H16X 4556   4.392   5.087   8.944  0.1469  0.3181  1.2230
   59SAPC  H16Y 4557   4.420   5.126   8.765 -0.4239 -0.8100  1.1395
   59SAPC  C317 4558   4.485   5.280   8.883 -0.1277 -0.8322  0.1897
   59SAPC  H17X 4559   4.531   5.289   8.984  0.9378 -0.1326 -0.3444
   59SAPC  H17Y 4560   4.389   5.337   8.883  1.0945  1.3242 -1.5986
   59SAPC  C318 4561   4.578   5.341   8.773 -0.0083 -0.0579 -0.1877
   59SAPC  H18X 4562   4.682   5.303   8.769 -0.0043  0.1749 -3.2244
   59SAPC  H18Y 4563   4.579   5.451   8.788  0.8909 -0.1600  0.5226
   59SAPC  H18Z 4564   4.530   5.318   8.676 -0.7110  1.8075 -0.2923
   60SAPC     N 4565   6.370   3.792  10.861 -0.1859  0.0059  0.1117
   60SAPC   C12 4566   6.414   3.653  10.852 -0.2331  0.4051 -0.5785
   60SAPC  H12A 4567   6.367   3.590  10.926  2.4996  0.3168  1.1124
   60SAPC  H12B 4568   6.520   3.638  10.867  0.2639  0.6071 -3.4589
   60SAPC   C13 4569   6.430   3.864  10.985  0.5382  0.2060 -0.2789
   60SAPC  H13A 4570   6.538   3.870  10.978  0.6800 -1.1809  0.6393
   60SAPC  H13B 4571   6.397   3.963  11.013  1.7150 -0.2132  2.7783
   60SAPC  H13C 4572   6.396   3.809  11.071  2.2728 -0.5493 -0.0417
   60SAPC   C14 4573   6.439   3.874  10.748 -0.2707 -0.0754 -0.1144
   60SAPC  H14A 4574   6.422   3.827  10.653  1.1490  0.4483 -0.6389
   60SAPC  H14B 4575   6.401   3.975  10.745  1.1518  0.4839  0.0523
   60SAPC  H14C 4576   6.545   3.887  10.767 -0.6662  2.2917  0.5591
   60SAPC   C15 4577   6.224   3.817  10.869  0.2672 -1.0198  0.3994
   60SAPC  H15A 4578   6.176   3.777  10.958  1.0672  0.1951  1.4039
   60SAPC  H15B 4579   6.209   3.924  10.873  0.7486 -0.8928 -0.9642
   60SAPC  H15C 4580   6.168   3.784  10.783  0.4381  0.1064 -0.1496
   60SAPC   C11 4581   6.371   3.578  10.720 -0.2823 -1.0111 -0.1719
   60SAPC  H11A 4582   6.405   3.628  10.627 -4.0983 -0.5680 -1.4031
   60SAPC  H11B 4583   6.262   3.573  10.699 -0.0853 -1.2405 -1.1483
   60SAPC     P 4584   6.574   3.437  10.677 -0.1330  0.5135 -0.4407
   60SAPC   O13 4585   6.660   3.536  10.743 -0.4125 -0.1943  0.3363
   60SAPC   O14 4586   6.619   3.301  10.707 -0.0015  0.0596  0.1539
   60SAPC   O12 4587   6.426   3.450  10.730 -0.2505  0.1550 -0.3769
   60SAPC   O11 4588   6.566   3.468  10.518 -0.5663 -0.6126 -0.4986
   60SAPC    C1 4589   6.482   3.385  10.439 -0.3737  0.9787 -0.0286
   60SAPC    HA 4590   6.521   3.362  10.337  1.7538  0.5862  0.8505
   60SAPC    HB 4591   6.479   3.286  10.489 -2.5221  0.7410 -0.5708
   60SAPC    C2 4592   6.343   3.447  10.411 -0.1577 -0.7502  0.5968
   60SAPC    HS 4593   6.296   3.465  10.510  1.6926  0.3330  1.3117
   60SAPC   O21 4594   6.259   3.357  10.340  0.5516 -0.7698  0.2983
   60SAPC   C21 4595   6.127   3.376  10.350  0.3064 -0.2516 -0.1566
   60SAPC   O22 4596   6.075   3.469  10.411  0.6507 -0.0106  0.5571
   60SAPC   C22 4597   6.055   3.261  10.284  0.4646  0.3790 -0.0345
   60SAPC   H2R 4598   6.021   3.175  10.345  1.0142 -1.5192 -2.2988
   60SAPC   H2S 4599   5.957   3.308  10.261  0.1702 -0.0291  0.3670
   60SAPC    C3 4600   6.363   3.585  10.335  0.1827  0.1927  0.4242
   60SAPC    HX 4601   6.432   3.654  10.388  0.6949 -0.2870  0.3876
   60SAPC    HY 4602   6.267   3.639  10.319 -0.3444 -1.3582 -1.9243
   60SAPC   O31 4603   6.403   3.556  10.202 -0.3986 -0.0897 -0.7842
   60SAPC   C31 4604   6.496   3.640  10.157 -0.2332 -0.4236 -0.3827
   60SAPC   O32 4605   6.555   3.723  10.219  0.2626 -0.1431  0.7039
   60SAPC   C32 4606   6.518   3.602  10.010  0.0378  0.5664  0.2588
   60SAPC   H2X 4607   6.420   3.619   9.961 -0.3588 -0.4545  0.6841
   60SAPC   H2Y 4608   6.549   3.496   9.999  0.1551  0.8225 -2.2169
   60SAPC   C23 4609   6.137   3.199  10.161 -0.1465  0.6219 -0.7352
   60SAPC   H3R 4610   6.072   3.120  10.116  0.0954 -0.1802  0.2845
   60SAPC   H3S 4611   6.234   3.150  10.183 -0.6463  0.0931  0.3410
   60SAPC   C24 4612   6.153   3.311  10.057  0.0150  0.1431 -0.4512
   60SAPC   H4R 4613   6.209   3.402  10.088 -1.1523  0.7782 -0.1730
   60SAPC   H4S 4614   6.050   3.347  10.033  0.2823  1.2517  0.0409
   60SAPC   C25 4615   6.215   3.250   9.937  0.5375  0.3914 -0.3304
   60SAPC   H5R 4616   6.289   3.173   9.960 -0.5362 -0.4103  0.4895
   60SAPC   C26 4617   6.180   3.275   9.805 -0.8049 -0.1572 -0.4277
   60SAPC   H6R 4618   6.229   3.225   9.720 -1.6990  1.5008 -1.9418
   60SAPC   C27 4619   6.081   3.381   9.751 -0.1548  0.9686  0.3245
   60SAPC   H7R 4620   6.050   3.461   9.822  0.0409  1.4140 -0.0800
   60SAPC   H7S 4621   5.991   3.321   9.730  0.7077 -0.2253  0.0143
   60SAPC   C28 4622   6.133   3.450   9.628  0.4441  0.5289 -0.9476
   60SAPC   H8R 4623   6.195   3.539   9.645 -0.4222  1.6820 -3.5806
   60SAPC   C29 4624   6.122   3.393   9.498 -1.0795  0.3563 -0.3206
   60SAPC   H9R 4625   6.147   3.454   9.410  2.8269  0.5048  0.7773
   60SAPC  C210 4626   6.054   3.261   9.467 -0.1470  0.2335  0.2538
   60SAPC  H10R 4627   6.024   3.260   9.360  0.7840 -0.8281 -0.0058
   60SAPC  H10S 4628   5.961   3.263   9.527  1.0965  1.0979  2.2029
   60SAPC  C211 4629   6.139   3.141   9.500 -0.3713  0.2508 -0.8119
   60SAPC  H11R 4630   6.131   3.102   9.602  0.8175  2.1398  0.0181
   60SAPC  C212 4631   6.235   3.095   9.419 -0.4026  0.1724  0.4429
   60SAPC  H12R 4632   6.295   3.008   9.450 -3.1300 -2.2016 -0.6382
   60SAPC  C213 4633   6.277   3.130   9.277 -0.9312 -0.0202 -0.3722
   60SAPC  H13R 4634   6.387   3.143   9.284 -1.0702  1.2491 -0.2628
   60SAPC  H13S 4635   6.238   3.228   9.240  0.1013  1.1078  1.4015
   60SAPC  C214 4636   6.237   3.026   9.185  0.1823  1.1091 -0.3263
   60SAPC  H14R 4637   6.212   2.928   9.229  0.9752  2.0109  2.2060
   60SAPC  C215 4638   6.234   3.037   9.053 -0.4800 -0.5498 -0.1372
   60SAPC  H15R 4639   6.192   2.955   8.992 -0.2149 -1.0008  0.2847
   60SAPC  C216 4640   6.290   3.155   8.977 -0.1098  0.3305  0.5402
   60SAPC  H16R 4641   6.400   3.154   8.990 -0.1085 -0.7729  0.5238
   60SAPC  H16S 4642   6.249   3.250   9.016  0.4045  1.4023 -1.4779
   60SAPC  C217 4643   6.282   3.153   8.824  0.0338 -0.2907 -0.5916
   60SAPC  H17R 4644   6.349   3.232   8.783  0.4841 -0.5162 -0.2915
   60SAPC  H17S 4645   6.182   3.187   8.789  0.4353  1.6122  0.0414
   60SAPC  C218 4646   6.313   3.022   8.753 -0.6954 -0.0009  0.0290
   60SAPC  H18R 4647   6.237   2.946   8.780  0.5094 -1.3391 -0.2336
   60SAPC  H18S 4648   6.415   2.987   8.781 -0.2407  1.2317 -0.0567
   60SAPC  C219 4649   6.305   3.030   8.600 -0.5277 -0.6023  0.0447
   60SAPC  H19R 4650   6.400   3.075   8.563 -0.3991  0.0333  1.1188
   60SAPC  H19S 4651   6.218   3.098   8.591 -0.7383 -0.7254  1.0886
   60SAPC  C220 4652   6.279   2.900   8.524  0.0482  0.5194  0.0206
   60SAPC  H20R 4653   6.262   2.924   8.417 -1.2993 -1.2891 -0.1933
   60SAPC  H20S 4654   6.189   2.845   8.559 -1.9289  2.4286 -1.9751
   60SAPC  H20T 4655   6.362   2.828   8.542 -0.3144  0.3260  0.9566
   60SAPC   C33 4656   6.628   3.694   9.934  0.6467  0.0732 -0.3164
   60SAPC   H3X 4657   6.725   3.695   9.988  0.3123 -1.7890  0.3631
   60SAPC   H3Y 4658   6.585   3.795   9.918  1.1401  0.7421  2.3449
   60SAPC   C34 4659   6.680   3.634   9.806 -0.6479  0.7010 -0.2479
   60SAPC   H4X 4660   6.690   3.524   9.815 -0.5530  0.8019  0.8478
   60SAPC   H4Y 4661   6.783   3.669   9.785 -0.0394 -1.9762 -1.9241
   60SAPC   C35 4662   6.594   3.660   9.673  0.0076 -0.3300 -0.6835
   60SAPC   H5X 4663   6.579   3.768   9.651  0.9714 -0.3521 -1.4605
   60SAPC   H5Y 4664   6.496   3.618   9.705 -0.4740  1.0921 -0.2321
   60SAPC   C36 4665   6.635   3.584   9.547  0.3138 -0.6001  0.4787
   60SAPC   H6X 4666   6.648   3.478   9.575  1.9795 -0.1084  1.6718
   60SAPC   H6Y 4667   6.731   3.621   9.503 -0.8020 -0.0034 -1.5231
   60SAPC   C37 4668   6.525   3.593   9.437  1.0229 -0.4876  0.4040
   60SAPC   H7X 4669   6.522   3.693   9.388  0.2100 -0.8036 -0.2029
   60SAPC   H7Y 4670   6.426   3.558   9.473  0.2162 -2.3422 -3.3038
   60SAPC   C38 4671   6.546   3.515   9.299  0.2418 -0.5021 -0.3608
   60SAPC   H8X 4672   6.468   3.548   9.226  1.2647  0.3598 -1.0879
   60SAPC   H8Y 4673   6.535   3.406   9.314 -1.3372 -0.3333 -0.2100
   60SAPC   C39 4674   6.685   3.552   9.244  0.1607 -0.1985  0.1761
   60SAPC   H9X 4675   6.758   3.496   9.307  1.1462 -1.2680 -1.8619
   60SAPC   H9Y 4676   6.711   3.660   9.243  3.1529 -0.8595  0.3788
   60SAPC  C310 4677   6.702   3.505   9.098 -0.4438  0.2171 -0.6556
   60SAPC  H10X 4678   6.801   3.535   9.056  0.1723 -0.6022  0.1767
   60SAPC  H10Y 4679   6.629   3.559   9.034 -2.1479  0.9902  1.8545
   60SAPC  C311 4680   6.685   3.351   9.073  1.0723 -0.5463  0.0702
   60SAPC  H11X 4681   6.602   3.310   9.134  0.3086 -0.5456 -0.9652
   60SAPC  H11Y 4682   6.777   3.298   9.107  1.6129  0.6207  0.4488
   60SAPC  C312 4683   6.641   3.315   8.931 -0.3828  0.4037  0.5959
   60SAPC  H12X 4684   6.545   3.368   8.915 -0.3328  0.7612  1.4871
   60SAPC  H12Y 4685   6.634   3.205   8.916  0.4516  0.8836 -4.0556
   60SAPC  C313 4686   6.730   3.357   8.812 -0.8361  0.5415 -0.9051
   60SAPC  H13X 4687   6.824   3.299   8.802 -0.9518  0.1995 -0.0036
   60SAPC  H13Y 4688   6.750   3.466   8.813  1.6601  0.1122 -0.6427
   60SAPC  C314 4689   6.668   3.324   8.666  0.7505 -0.2426  0.6760
   60SAPC  H14X 4690   6.560   3.350   8.661  0.5566 -0.8898  1.3745
   60SAPC  H14Y 4691   6.666   3.213   8.657  0.1725 -0.1701 -0.1437
   60SAPC  C315 4692   6.738   3.401   8.547 -0.0754  0.6498  0.4554
   60SAPC  H15X 4693   6.847   3.401   8.569 -0.1707 -2.4515  1.1887
   60SAPC  H15Y 4694   6.697   3.504   8.547 -1.9167 -0.0388 -1.4950
   60SAPC  C316 4695   6.708   3.327   8.423 -0.6741 -0.1810 -0.1270
   60SAPC  H16X 4696   6.600   3.328   8.398 -0.5633  0.9236 -0.5720
   60SAPC  H16Y 4697   6.723   3.217   8.425  1.3008  0.0713  0.2586
   60SAPC  C317 4698   6.785   3.387   8.303 -0.1148  0.3006  0.3274
   60SAPC  H17X 4699   6.893   3.384   8.326 -0.5125 -1.4269  2.1222
   60SAPC  H17Y 4700   6.762   3.494   8.323 -0.6366  0.2256  0.1501
   60SAPC  C318 4701   6.734   3.328   8.166  0.2172  0.0536 -0.4341
   60SAPC  H18X 4702   6.624   3.338   8.171  0.2448  0.8602 -1.2646
   60SAPC  H18Y 4703   6.754   3.219   8.160  1.1930  0.1503  0.9023
   60SAPC  H18Z 4704   6.765   3.392   8.080  3.0483 -1.7011 -0.7878
   61SAPC     N 4705   6.661   2.391  11.062 -0.4517 -0.3239  0.7057
   61SAPC   C12 4706   6.717   2.442  10.925  0.4238 -0.4244 -0.3565
   61SAPC  H12A 4707   6.658   2.528  10.897  2.4962  1.3403  0.5506
   61SAPC  H12B 4708   6.699   2.369  10.847  1.0452  1.0813 -1.9349
   61SAPC   C13 4709   6.516   2.423  11.059  1.0301  0.3632  0.7293
   61SAPC  H13A 4710   6.463   2.375  10.979 -1.1199 -0.0587  2.3730
   61SAPC  H13B 4711   6.467   2.388  11.149 -2.5515 -1.5816 -1.8835
   61SAPC  H13C 4712   6.479   2.521  11.032 -1.3852 -0.8056 -0.3623
   61SAPC   C14 4713   6.690   2.243  11.077 -0.0822  0.0910  0.2023
   61SAPC  H14A 4714   6.658   2.208  11.175  0.6035 -2.1801 -0.3512
   61SAPC  H14B 4715   6.639   2.171  11.014 -0.7727 -0.9127  1.8582
   61SAPC  H14C 4716   6.796   2.224  11.077 -0.2909 -1.2266  1.3502
   61SAPC   C15 4717   6.724   2.467  11.171  0.1346  0.0409  0.0007
   61SAPC  H15A 4718   6.683   2.564  11.194  1.4671  0.5626  0.1905
   61SAPC  H15B 4719   6.703   2.416  11.264 -0.6782  0.1541 -0.1104
   61SAPC  H15C 4720   6.830   2.470  11.154  0.1506 -2.5483 -0.6836
   61SAPC   C11 4721   6.869   2.486  10.909  0.2562  0.0535 -0.2273
   61SAPC  H11A 4722   6.891   2.580  10.964 -2.4646 -1.3946  3.5812
   61SAPC  H11B 4723   6.884   2.503  10.800  0.8096  0.2040 -0.1265
   61SAPC     P 4724   7.014   2.270  10.862  0.3110  0.0382 -0.7804
   61SAPC   O13 4725   7.160   2.275  10.869  0.4724 -0.2528  0.2807
   61SAPC   O14 4726   6.941   2.143  10.895 -0.6441  0.2343 -0.0738
   61SAPC   O12 4727   6.949   2.385  10.957 -0.3854 -0.6957  1.3083
   61SAPC   O11 4728   6.980   2.316  10.717  0.1930 -0.8556 -0.1033
   61SAPC    C1 4729   6.863   2.306  10.636 -0.4185 -0.4938  0.1176
   61SAPC    HA 4730   6.829   2.200  10.632 -0.5266 -0.5314  1.7301
   61SAPC    HB 4731   6.784   2.365  10.687  0.3328  0.9150 -0.3220
   61SAPC    C2 4732   6.884   2.362  10.493  0.0134 -0.3519 -0.5448
   61SAPC    HS 4733   6.782   2.362  10.450 -0.9194 -2.7442  1.5222
   61SAPC   O21 4734   6.968   2.269  10.422  0.2355 -0.2533 -0.2379
   61SAPC   C21 4735   6.912   2.165  10.367  0.1274  0.1408  0.3835
   61SAPC   O22 4736   6.793   2.142  10.358 -0.1829 -0.1199 -0.0302
   61SAPC   C22 4737   7.008   2.089  10.271 -0.4054  0.4092 -0.4408
   61SAPC   H2R 4738   6.938   2.060  10.190 -1.8313 -1.6452  1.4681
   61SAPC   H2S 4739   7.076   2.164  10.226 -0.6494  0.1255 -1.2932
   61SAPC    C3 4740   6.934   2.508  10.498 -0.1356 -0.7465  0.5458
   61SAPC    HX 4741   7.011   2.517  10.577 -0.2066 -0.0776  0.5413
   61SAPC    HY 4742   6.840   2.560  10.526 -0.7206 -1.4076 -0.1519
   61SAPC   O31 4743   6.985   2.547  10.369  0.7096 -0.1576 -0.2712
   61SAPC   C31 4744   7.118   2.532  10.350  0.2515 -0.3836 -0.4247
   61SAPC   O32 4745   7.197   2.492  10.433 -0.0444  0.3415  0.2721
   61SAPC   C32 4746   7.156   2.585  10.213 -0.3267 -0.5717  0.8696
   61SAPC   H2X 4747   7.256   2.632  10.219 -0.7177  0.8461 -2.3932
   61SAPC   H2Y 4748   7.096   2.677  10.199  0.3274 -0.3323 -0.4293
   61SAPC   C23 4749   7.088   1.957  10.332  0.4807  0.7089 -0.1677
   61SAPC   H3R 4750   7.012   1.882  10.362  1.3916  0.3364  1.2570
   61SAPC   H3S 4751   7.149   2.001  10.413  1.0074  0.3753 -0.3833
   61SAPC   C24 4752   7.186   1.893  10.236  0.2622  0.4733  0.1739
   61SAPC   H4R 4753   7.131   1.884  10.140 -2.3014  0.8412  1.5397
   61SAPC   H4S 4754   7.188   1.793  10.285  1.0416  0.7229  0.6630
   61SAPC   C25 4755   7.314   1.965  10.222  1.0370  0.1499  0.3325
   61SAPC   H5R 4756   7.372   1.967  10.316 -0.1488 -0.1323  1.0898
   61SAPC   C26 4757   7.348   2.044  10.114  0.8285  0.1682 -0.1746
   61SAPC   H6R 4758   7.443   2.100  10.116 -0.4664  2.4090  0.0773
   61SAPC   C27 4759   7.265   2.067   9.992  0.9506 -0.0651 -0.3873
   61SAPC   H7R 4760   7.311   2.154   9.941 -0.8387  0.4160 -1.2107
   61SAPC   H7S 4761   7.167   2.107  10.024  0.6765 -0.7404 -0.3722
   61SAPC   C28 4762   7.247   1.950   9.899  0.6509 -0.4820 -0.4774
   61SAPC   H8R 4763   7.179   1.868   9.928  2.2307 -2.4740 -2.2727
   61SAPC   C29 4764   7.319   1.926   9.784 -0.2105 -0.5130  0.1545
   61SAPC   H9R 4765   7.291   1.842   9.719  0.3823  0.5228 -1.4974
   61SAPC  C210 4766   7.420   2.016   9.716 -0.6738  0.0378  0.1556
   61SAPC  H10R 4767   7.487   2.059   9.794  1.3599 -0.1174 -1.4452
   61SAPC  H10S 4768   7.362   2.098   9.670 -1.3890 -0.8345 -0.5039
   61SAPC  C211 4769   7.504   1.931   9.612  0.9625 -0.3543  0.4088
   61SAPC  H11R 4770   7.528   1.830   9.646  1.9873 -0.2935 -0.1408
   61SAPC  C212 4771   7.534   1.966   9.488 -0.3741  0.0450  0.3119
   61SAPC  H12R 4772   7.566   1.901   9.406  1.7636  3.6999 -1.9091
   61SAPC  C213 4773   7.487   2.100   9.428  0.2090  0.0403  1.0740
   61SAPC  H13R 4774   7.565   2.177   9.409 -0.1312 -0.1380 -1.1179
   61SAPC  H13S 4775   7.423   2.167   9.490 -3.2270 -1.9026 -0.2174
   61SAPC  C214 4776   7.393   2.086   9.306 -0.2856 -0.7662  0.3230
   61SAPC  H14R 4777   7.286   2.107   9.314 -0.4789 -1.2589 -0.8442
   61SAPC  C215 4778   7.433   2.061   9.181 -0.0610 -0.0140  0.1240
   61SAPC  H15R 4779   7.359   2.051   9.101  0.8608  2.8478 -1.1737
   61SAPC  C216 4780   7.577   2.034   9.157  0.4720  0.0809 -0.7737
   61SAPC  H16R 4781   7.641   2.043   9.247  1.1419 -0.7191 -1.1669
   61SAPC  H16S 4782   7.616   2.108   9.084  1.3617  0.4200  0.0522
   61SAPC  C217 4783   7.607   1.888   9.104 -0.1372 -0.4602 -0.6673
   61SAPC  H17R 4784   7.561   1.881   9.003 -0.0691 -1.0421 -0.6585
   61SAPC  H17S 4785   7.552   1.806   9.156 -0.2101 -0.4298 -0.6960
   61SAPC  C218 4786   7.757   1.865   9.094 -0.1747  0.3505 -0.1302
   61SAPC  H18R 4787   7.810   1.944   9.036  1.7667 -0.5269  0.3826
   61SAPC  H18S 4788   7.781   1.766   9.048 -2.1184 -0.0199 -0.3654
   61SAPC  C219 4789   7.829   1.867   9.227  0.8250  0.0049 -0.2770
   61SAPC  H19R 4790   7.781   1.815   9.313  1.7757 -0.8763 -0.2708
   61SAPC  H19S 4791   7.834   1.974   9.257 -0.5695 -0.4149  1.5182
   61SAPC  C220 4792   7.963   1.795   9.223  0.1195 -0.3743 -0.3151
   61SAPC  H20R 4793   8.019   1.815   9.316  0.6784 -1.3396 -0.4282
   61SAPC  H20S 4794   8.028   1.834   9.141  1.1969  1.2236  1.2611
   61SAPC  H20T 4795   7.952   1.688   9.193 -0.3810 -0.4540  0.1463
   61SAPC   C33 4796   7.135   2.480  10.105  0.7295  0.0908 -0.2521
   61SAPC   H3X 4797   7.035   2.432  10.100  0.5221  0.3848  1.0087
   61SAPC   H3Y 4798   7.206   2.396  10.124 -0.8864 -1.3040 -0.1968
   61SAPC   C34 4799   7.178   2.523   9.963 -0.3459  0.8471 -0.0745
   61SAPC   H4X 4800   7.125   2.618   9.941  0.1822  0.9006 -1.1484
   61SAPC   H4Y 4801   7.151   2.439   9.896 -0.4728  0.7114  0.1459
   61SAPC   C35 4802   7.328   2.540   9.948  0.6010  0.4366  0.0281
   61SAPC   H5X 4803   7.378   2.461  10.008  1.1587 -0.2407 -1.3099
   61SAPC   H5Y 4804   7.347   2.635  10.003  0.1123 -0.6343  2.0866
   61SAPC   C36 4805   7.367   2.541   9.799  0.4154 -0.7390 -0.4892
   61SAPC   H6X 4806   7.282   2.586   9.742  0.5251 -0.6046 -0.5460
   61SAPC   H6Y 4807   7.376   2.436   9.765 -2.2643 -0.0624 -3.5209
   61SAPC   C37 4808   7.512   2.593   9.775  0.2504  0.2282 -0.1020
   61SAPC   H7X 4809   7.583   2.563   9.855 -0.6885 -2.0522 -0.0697
   61SAPC   H7Y 4810   7.505   2.703   9.762  2.4927  0.2450 -1.4439
   61SAPC   C38 4811   7.573   2.549   9.640  0.3480  0.8255  0.1700
   61SAPC   H8X 4812   7.607   2.444   9.627 -0.2258  0.6191  0.3422
   61SAPC   H8Y 4813   7.668   2.604   9.622  0.5754  0.0755 -1.0234
   61SAPC   C39 4814   7.487   2.579   9.517  0.6074  0.0112  0.7032
   61SAPC   H9X 4815   7.488   2.688   9.495 -1.5334 -0.1918 -0.5246
   61SAPC   H9Y 4816   7.379   2.563   9.537 -0.0302  2.6687 -0.4853
   61SAPC  C310 4817   7.544   2.519   9.389  0.5747  0.3094  0.4535
   61SAPC  H10X 4818   7.522   2.411   9.396  0.1757  0.5224  3.0417
   61SAPC  H10Y 4819   7.654   2.533   9.381  0.5907 -0.4279 -0.7791
   61SAPC  C311 4820   7.473   2.561   9.262  0.0950 -0.2937 -0.1230
   61SAPC  H11X 4821   7.498   2.666   9.236 -1.2082  0.0664  0.0261
   61SAPC  H11Y 4822   7.362   2.565   9.269  0.1843  0.2085  1.1643
   61SAPC  C312 4823   7.490   2.472   9.137  0.0539 -0.5116  0.0764
   61SAPC  H12X 4824   7.422   2.384   9.133  0.1967 -0.6776  1.1980
   61SAPC  H12Y 4825   7.593   2.434   9.156  1.4994  1.9494 -2.4600
   61SAPC  C313 4826   7.504   2.546   9.002 -0.0349 -0.8215  0.6751
   61SAPC  H13X 4827   7.582   2.625   9.008  0.3968 -1.0917 -1.0406
   61SAPC  H13Y 4828   7.414   2.598   8.963  0.3440 -0.2006  0.6303
   61SAPC  C314 4829   7.542   2.468   8.876 -0.0389  0.2595 -0.1925
   61SAPC  H14X 4830   7.523   2.520   8.780  0.4807  3.5191  1.4104
   61SAPC  H14Y 4831   7.466   2.387   8.873 -1.9115  1.9749 -0.1697
   61SAPC  C315 4832   7.684   2.417   8.866  0.5200  0.0065  0.6318
   61SAPC  H15X 4833   7.687   2.314   8.906  0.0484 -0.2155  0.0982
   61SAPC  H15Y 4834   7.757   2.478   8.923  1.6635  1.2842 -2.1577
   61SAPC  C316 4835   7.736   2.417   8.722 -0.5127  0.1783 -0.6981
   61SAPC  H16X 4836   7.844   2.394   8.711 -0.6986 -0.7028 -0.7383
   61SAPC  H16Y 4837   7.715   2.512   8.668 -2.4607 -1.0446 -2.1685
   61SAPC  C317 4838   7.671   2.308   8.629 -0.5466  0.2613  0.1210
   61SAPC  H17X 4839   7.561   2.315   8.642 -0.7265 -0.7534 -0.8736
   61SAPC  H17Y 4840   7.701   2.206   8.659 -0.7618  0.1720  0.0334
   61SAPC  C318 4841   7.715   2.330   8.484  0.0238 -0.5731  0.2148
   61SAPC  H18X 4842   7.641   2.289   8.412  0.3228 -0.8850  0.0854
   61SAPC  H18Y 4843   7.815   2.283   8.477  0.2913 -0.1985  1.3264
   61SAPC  H18Z 4844   7.719   2.440   8.472  2.2626 -0.9823 -3.3173
   62SAPC     N 4845   5.951   0.427  10.927  0.7003 -0.1080 -0.1780
   62SAPC   C12 4846   5.890   0.551  10.881 -0.9411  0.2334  0.1533
   62SAPC  H12A 4847   5.833   0.598  10.959  0.6817 -0.2778  1.6684
   62SAPC  H12B 4848   5.824   0.523  10.800  0.7703 -2.1447 -0.4731
   62SAPC   C13 4849   6.079   0.437  11.010 -0.3186 -0.2735 -0.5430
   62SAPC  H13A 4850   6.150   0.500  10.958 -0.4151  2.1028  2.0731
   62SAPC  H13B 4851   6.062   0.475  11.109 -0.9868 -0.7718 -0.4594
   62SAPC  H13C 4852   6.120   0.337  11.018 -3.2433 -1.4513  0.3375
   62SAPC   C14 4853   5.850   0.356  11.013  0.4925  0.4037  1.1880
   62SAPC  H14A 4854   5.902   0.268  11.048 -1.5005 -1.5049 -0.5381
   62SAPC  H14B 4855   5.820   0.423  11.093  0.2862 -0.3601  1.7529
   62SAPC  H14C 4856   5.770   0.323  10.948  0.1221  2.4498  0.5616
   62SAPC   C15 4857   5.992   0.334  10.822 -0.1463  0.3810  0.6896
   62SAPC  H15A 4858   6.065   0.380  10.757 -0.4507  2.4246  1.7554
   62SAPC  H15B 4859   6.018   0.240  10.869 -1.0871  0.3934  1.2461
   62SAPC  H15C 4860   5.911   0.318  10.753  1.1761 -2.0166 -0.3695
   62SAPC   C11 4861   5.988   0.665  10.823 -0.8687 -1.0001  0.1378
   62SAPC  H11A 4862   6.043   0.703  10.912 -1.3452  1.4637 -0.5834
   62SAPC  H11B 4863   5.928   0.750  10.784 -0.0604 -1.1802 -1.5100
   62SAPC     P 4864   6.230   0.650  10.708  0.4607 -0.2413  0.5538
   62SAPC   O13 4865   6.286   0.608  10.835 -0.2625 -0.3217 -0.6677
   62SAPC   O14 4866   6.279   0.587  10.584 -0.2380 -0.0581 -0.1233
   62SAPC   O12 4867   6.081   0.624  10.719 -0.2580  0.3623 -0.6277
   62SAPC   O11 4868   6.233   0.803  10.689 -0.0867 -0.3685 -0.0824
   62SAPC    C1 4869   6.139   0.881  10.620  0.9206 -0.9595  0.3284
   62SAPC    HA 4870   6.035   0.847  10.641  0.1317  1.7620  1.0709
   62SAPC    HB 4871   6.139   0.986  10.657  0.8712 -0.1564 -1.8650
   62SAPC    C2 4872   6.165   0.904  10.467 -0.3405 -0.2623 -0.4518
   62SAPC    HS 4873   6.172   0.803  10.420 -1.5380 -0.7438  0.3759
   62SAPC   O21 4874   6.282   0.979  10.455  0.0125 -0.4739 -0.4029
   62SAPC   C21 4875   6.356   0.975  10.350 -0.1798 -1.0153  0.9485
   62SAPC   O22 4876   6.347   0.898  10.258 -0.5355  0.0379 -0.5791
   62SAPC   C22 4877   6.471   1.077  10.357  0.7890  0.3317  0.1634
   62SAPC   H2R 4878   6.465   1.142  10.447  3.6403 -0.0780  0.7059
   62SAPC   H2S 4879   6.552   1.006  10.385  1.3881  1.2325  0.7832
   62SAPC    C3 4880   6.047   0.984  10.401 -0.2498 -0.8580 -0.1094
   62SAPC    HX 4881   6.040   1.083  10.452  1.1809 -0.3452 -0.8800
   62SAPC    HY 4882   5.962   0.918  10.428 -1.3744  0.5237 -0.2471
   62SAPC   O31 4883   6.054   1.001  10.257 -0.1338 -0.3072 -0.5376
   62SAPC   C31 4884   6.065   0.882  10.191 -0.3369 -0.1494 -0.4155
   62SAPC   O32 4885   6.048   0.774  10.239  0.6033 -0.2085  0.2418
   62SAPC   C32 4886   6.087   0.906  10.038  0.4960  0.8370  0.0017
   62SAPC   H2X 4887   6.183   0.960  10.024  0.8565  1.2936  3.7572
   62SAPC   H2Y 4888   6.013   0.983  10.007 -1.1790  0.0447  1.9426
   62SAPC   C23 4889   6.499   1.147  10.226 -0.2096 -0.1098 -1.0803
   62SAPC   H3R 4890   6.449   1.087  10.147 -0.1280 -1.1459 -0.3576
   62SAPC   H3S 4891   6.607   1.152  10.202 -0.3950 -0.0166 -1.9166
   62SAPC   C24 4892   6.443   1.283  10.222 -0.2511 -0.9323 -0.5663
   62SAPC   H4R 4893   6.475   1.340  10.132  0.4613 -0.7112 -0.1735
   62SAPC   H4S 4894   6.499   1.339  10.300 -1.1327 -1.8757  0.7485
   62SAPC   C25 4895   6.297   1.295  10.263 -0.1720 -0.0640  0.2634
   62SAPC   H5R 4896   6.268   1.276  10.367  0.1492 -0.4790  0.2825
   62SAPC   C26 4897   6.198   1.340  10.186  0.2832  0.1712 -0.1275
   62SAPC   H6R 4898   6.094   1.353  10.219 -0.3387  1.2899 -2.3669
   62SAPC   C27 4899   6.215   1.382  10.041  0.6514  0.7502 -0.5831
   62SAPC   H7R 4900   6.319   1.377  10.004  0.9304  1.1106  0.1429
   62SAPC   H7S 4901   6.182   1.488  10.036  1.0011  0.8773 -0.1642
   62SAPC   C28 4902   6.125   1.302   9.949 -0.2876  0.4320  0.7429
   62SAPC   H8R 4903   6.019   1.330   9.939 -1.4894 -4.2625 -1.0794
   62SAPC   C29 4904   6.170   1.214   9.855  0.1656 -0.2249 -0.0692
   62SAPC   H9R 4905   6.092   1.169   9.792 -1.2507 -0.3882  1.7521
   62SAPC  C210 4906   6.313   1.182   9.842  0.2143  0.2747  0.6801
   62SAPC  H10R 4907   6.362   1.163   9.940  0.5868  0.5457  0.5470
   62SAPC  H10S 4908   6.364   1.267   9.792  1.4925 -0.9837 -0.1964
   62SAPC  C211 4909   6.328   1.048   9.774 -0.6362  0.0302  0.6232
   62SAPC  H11R 4910   6.361   0.960   9.832 -2.3152 -0.9331  0.1688
   62SAPC  C212 4911   6.303   1.031   9.641  0.0817  0.3060 -0.7921
   62SAPC  H12R 4912   6.322   0.929   9.604 -0.2373 -0.5067  1.2586
   62SAPC  C213 4913   6.255   1.128   9.538  0.1587 -0.7043 -0.9522
   62SAPC  H13R 4914   6.259   1.234   9.574 -3.2631 -1.5673  2.1895
   62SAPC  H13S 4915   6.145   1.121   9.526 -0.3725  1.1258  2.2684
   62SAPC  C214 4916   6.319   1.124   9.405 -0.1879 -0.2067  0.6190
   62SAPC  H14R 4917   6.259   1.065   9.335 -0.4082  1.7490 -0.8711
   62SAPC  C215 4918   6.431   1.180   9.367  1.0356 -0.1211  0.6001
   62SAPC  H15R 4919   6.471   1.167   9.265  1.1982  0.8168  0.5371
   62SAPC  C216 4920   6.524   1.264   9.452  0.1520 -0.3640  0.0434
   62SAPC  H16R 4921   6.632   1.250   9.430  0.1094 -1.1769  0.3600
   62SAPC  H16S 4922   6.519   1.230   9.557 -0.1752  1.0357  0.4987
   62SAPC  C217 4923   6.493   1.412   9.436  0.3306  0.2749  0.4987
   62SAPC  H17R 4924   6.396   1.433   9.385  1.3643 -0.1735 -1.7363
   62SAPC  H17S 4925   6.575   1.457   9.376  0.0572  3.0160  2.1334
   62SAPC  C218 4926   6.470   1.480   9.569  0.1236 -0.8123  0.8064
   62SAPC  H18R 4927   6.383   1.427   9.613  2.2718 -2.6597  3.0408
   62SAPC  H18S 4928   6.443   1.585   9.545 -0.1015 -0.6845  1.6212
   62SAPC  C219 4929   6.585   1.482   9.668 -0.2650  0.1636  0.1155
   62SAPC  H19R 4930   6.668   1.549   9.637 -0.3305  0.0842 -0.2304
   62SAPC  H19S 4931   6.615   1.378   9.693 -0.0938  0.4254  1.0139
   62SAPC  C220 4932   6.537   1.532   9.802  1.0926  0.4408 -0.0115
   62SAPC  H20R 4933   6.447   1.473   9.828 -0.4754  2.8397  0.1707
   62SAPC  H20S 4934   6.501   1.637   9.792  1.9342  0.4805 -3.0473
   62SAPC  H20T 4935   6.615   1.527   9.881  1.1355  0.1279 -0.0757
   62SAPC   C33 4936   6.081   0.784   9.945 -0.4509  0.8329 -0.1188
   62SAPC   H3X 4937   6.009   0.708   9.981 -0.3635  0.9299  0.2600
   62SAPC   H3Y 4938   6.183   0.741   9.942 -0.0241  1.5463  2.4811
   62SAPC   C34 4939   6.035   0.828   9.803  0.3260  0.1468 -0.3878
   62SAPC   H4X 4940   6.117   0.898   9.777  2.9096 -2.4449  0.5232
   62SAPC   H4Y 4941   5.937   0.880   9.799  0.6280  0.6461 -1.5382
   62SAPC   C35 4942   6.026   0.709   9.706 -0.0206  0.5849  0.0084
   62SAPC   H5X 4943   5.948   0.632   9.727 -0.5603  0.7914 -1.1845
   62SAPC   H5Y 4944   6.116   0.646   9.715 -1.1436 -1.0402  0.0706
   62SAPC   C36 4945   6.009   0.757   9.556 -0.1489  0.9689 -0.3091
   62SAPC   H6X 4946   6.097   0.824   9.544  0.9317 -0.2211  0.8493
   62SAPC   H6Y 4947   5.915   0.815   9.541  0.3673  1.7195 -0.6946
   62SAPC   C37 4948   6.013   0.643   9.459 -0.0768  0.5702  0.3095
   62SAPC   H7X 4949   5.932   0.575   9.491  0.9151 -1.3002 -0.9851
   62SAPC   H7Y 4950   6.111   0.595   9.482  0.6405  0.8361 -2.0594
   62SAPC   C38 4951   5.995   0.680   9.311  0.1290 -0.7985  0.4279
   62SAPC   H8X 4952   6.078   0.748   9.280  0.9985 -2.0786 -0.0717
   62SAPC   H8Y 4953   5.898   0.732   9.298  0.6260  0.1709  0.4922
   62SAPC   C39 4954   5.993   0.555   9.213  0.7066 -0.0123 -0.6326
   62SAPC   H9X 4955   5.950   0.460   9.253 -0.3541  0.2690 -1.0869
   62SAPC   H9Y 4956   6.097   0.532   9.183 -0.7840 -3.0004 -3.7216
   62SAPC  C310 4957   5.931   0.574   9.075  1.1576 -1.3405  0.0828
   62SAPC  H10X 4958   5.949   0.680   9.046 -0.5442 -1.4356 -1.3800
   62SAPC  H10Y 4959   5.821   0.562   9.082  0.9962 -0.3789 -0.7289
   62SAPC  C311 4960   5.990   0.486   8.971 -0.5788  0.9028  0.2536
   62SAPC  H11X 4961   5.977   0.381   9.004 -0.8227 -0.4867 -3.8994
   62SAPC  H11Y 4962   6.099   0.509   8.966 -0.5721  0.9775  0.8048
   62SAPC  C312 4963   5.931   0.507   8.829  0.0610 -0.3353 -0.0730
   62SAPC  H12X 4964   5.932   0.616   8.809 -2.3170 -0.7321 -2.6093
   62SAPC  H12Y 4965   5.823   0.481   8.837  0.1892 -0.7127  0.5131
   62SAPC  C313 4966   6.011   0.444   8.716 -0.0305 -0.0769 -0.5274
   62SAPC  H13X 4967   5.977   0.338   8.713 -0.9379  0.1939 -0.0515
   62SAPC  H13Y 4968   6.120   0.458   8.735 -0.2593  1.6320 -0.4307
   62SAPC  C314 4969   5.966   0.509   8.585  0.6688  0.1044 -0.2689
   62SAPC  H14X 4970   5.984   0.618   8.594  0.0864  0.1863 -0.0599
   62SAPC  H14Y 4971   5.856   0.498   8.577  0.7538  0.4738 -2.0757
   62SAPC  C315 4972   6.038   0.477   8.455 -1.0336  0.1074  0.7396
   62SAPC  H15X 4973   6.034   0.371   8.420  1.2530  0.7771 -1.7554
   62SAPC  H15Y 4974   6.146   0.499   8.468 -1.0874  1.6391 -1.2087
   62SAPC  C316 4975   6.014   0.575   8.327  0.3610 -0.2499  0.2594
   62SAPC  H16X 4976   6.051   0.675   8.360  0.9544 -0.5161  0.4036
   62SAPC  H16Y 4977   5.905   0.580   8.307  0.4999  1.1745 -0.2160
   62SAPC  C317 4978   6.089   0.529   8.192  0.0797  0.1650 -0.0921
   62SAPC  H17X 4979   6.194   0.554   8.220 -0.5293  1.6645  0.9280
   62SAPC  H17Y 4980   6.068   0.596   8.106  0.6490 -0.2112 -0.5344
   62SAPC  C318 4981   6.079   0.377   8.151 -0.2500  0.0861  0.0101
   62SAPC  H18X 4982   6.148   0.321   8.219 -0.5560 -0.5442 -0.1949
   62SAPC  H18Y 4983   6.108   0.368   8.044 -0.4218 -0.6335  0.0158
   62SAPC  H18Z 4984   5.975   0.342   8.171  0.4503 -1.2320  1.4358
   63SAPC     N 4985   4.306   6.397   6.119 -0.3380 -0.2485 -0.1113
   63SAPC   C12 4986   4.347   6.525   6.191 -0.1394  0.7195  0.8015
   63SAPC  H12A 4987   4.360   6.608   6.124  2.1019  0.4489  0.8536
   63SAPC  H12B 4988   4.448   6.510   6.226  0.1768 -3.2187 -1.4812
   63SAPC   C13 4989   4.330   6.276   6.206 -0.6042  0.3494  0.5614
   63SAPC  H13A 4990   4.436   6.255   6.213 -0.7642 -1.0223 -0.9334
   63SAPC  H13B 4991   4.297   6.288   6.308 -2.9251 -2.2442  0.1785
   63SAPC  H13C 4992   4.294   6.185   6.160  1.1749 -0.1867  0.1785
   63SAPC   C14 4993   4.162   6.397   6.081 -0.6257 -0.1108 -0.2050
   63SAPC  H14A 4994   4.139   6.481   6.017 -3.5093 -2.1961 -1.9699
   63SAPC  H14B 4995   4.137   6.314   6.018  1.3030  0.2745 -1.5314
   63SAPC  H14C 4996   4.093   6.396   6.164 -0.4825  0.0854 -0.0824
   63SAPC   C15 4997   4.396   6.386   5.995  0.4368  0.6507  0.1634
   63SAPC  H15A 4998   4.501   6.370   6.017  0.4041  0.8688  0.4836
   63SAPC  H15B 4999   4.379   6.298   5.935  1.5129  1.0443 -0.7426
   63SAPC  H15C 5000   4.379   6.451   5.910 -2.0573 -0.4458 -0.2246
   63SAPC   C11 5001   4.260   6.572   6.309  0.0732 -0.0427  1.0506
   63SAPC  H11A 5002   4.311   6.658   6.357 -2.2978  0.4929  2.7660
   63SAPC  H11B 5003   4.247   6.495   6.388  1.5210 -1.9919 -0.5707
   63SAPC     P 5004   3.997   6.615   6.343 -0.0736 -0.1741 -0.2972
   63SAPC   O13 5005   3.905   6.721   6.299  0.4392 -0.0354  0.2160
   63SAPC   O14 5006   3.938   6.483   6.342 -0.6324 -0.0381 -0.0840
   63SAPC   O12 5007   4.132   6.621   6.269  0.5498  0.2693 -0.5800
   63SAPC   O11 5008   4.041   6.650   6.492  0.3839  0.4117 -0.4561
   63SAPC    C1 5009   4.070   6.788   6.518  0.3768 -0.0607 -0.1689
   63SAPC    HA 5010   4.160   6.822   6.463 -0.1592  0.3223 -0.8174
   63SAPC    HB 5011   3.984   6.854   6.494 -0.4520 -1.4748 -1.1172
   63SAPC    C2 5012   4.101   6.808   6.672  0.7584  0.2697 -0.6473
   63SAPC    HS 5013   4.181   6.738   6.701 -0.0304 -0.3861 -0.0450
   63SAPC   O21 5014   3.980   6.805   6.761  0.0024  0.2470  0.0918
   63SAPC   C21 5015   3.948   6.688   6.802  0.2025 -0.3971 -0.4209
   63SAPC   O22 5016   4.004   6.581   6.790 -0.2773 -0.5397  0.3606
   63SAPC   C22 5017   3.819   6.707   6.887 -0.2625 -0.3773 -0.3489
   63SAPC   H2R 5018   3.852   6.659   6.981 -1.5878  1.1570  0.9238
   63SAPC   H2S 5019   3.799   6.810   6.922 -0.1374 -0.8757  1.2134
   63SAPC    C3 5020   4.176   6.944   6.686 -0.4214 -0.1511  0.7150
   63SAPC    HX 5021   4.102   7.025   6.668 -1.4290 -0.8511  1.6171
   63SAPC    HY 5022   4.248   6.949   6.602 -3.4068 -1.6410 -2.0270
   63SAPC   O31 5023   4.242   6.960   6.813  0.3565 -0.1745 -0.1878
   63SAPC   C31 5024   4.268   7.082   6.846 -0.5630 -0.5904 -0.5897
   63SAPC   O32 5025   4.241   7.182   6.782  0.6322 -0.1949 -0.1282
   63SAPC   C32 5026   4.357   7.093   6.971 -0.2481  0.1024  0.5032
   63SAPC   H2X 5027   4.441   7.158   6.938  1.0138 -0.7070  2.0706
   63SAPC   H2Y 5028   4.410   6.995   6.983 -0.2833 -0.2227 -1.6514
   63SAPC   C23 5029   3.690   6.630   6.845 -0.1550  0.3848  0.6279
   63SAPC   H3R 5030   3.736   6.540   6.799  0.2366  0.4808  0.8292
   63SAPC   H3S 5031   3.626   6.678   6.768 -0.5437 -2.4208 -0.8719
   63SAPC   C24 5032   3.599   6.588   6.965 -1.4451  0.1155  0.0177
   63SAPC   H4R 5033   3.506   6.543   6.922 -2.9872  0.2208  3.0899
   63SAPC   H4S 5034   3.581   6.681   7.023 -2.8686  0.3651 -0.7832
   63SAPC   C25 5035   3.674   6.488   7.052  0.4759 -0.1745 -0.3811
   63SAPC   H5R 5036   3.688   6.387   7.009  1.5932 -0.4063  0.5138
   63SAPC   C26 5037   3.689   6.496   7.188  0.5417  0.3425  0.3499
   63SAPC   H6R 5038   3.736   6.408   7.236  0.7524 -0.7494 -1.7818
   63SAPC   C27 5039   3.659   6.600   7.288 -0.0289 -0.6012  0.0288
   63SAPC   H7R 5040   3.584   6.546   7.350 -0.6639  0.1087 -0.1158
   63SAPC   H7S 5041   3.617   6.684   7.229 -0.2113 -0.4081  0.4354
   63SAPC   C28 5042   3.779   6.647   7.362 -0.6486 -0.6595 -0.3809
   63SAPC   H8R 5043   3.872   6.651   7.304 -0.3426 -0.1581  0.1398
   63SAPC   C29 5044   3.796   6.662   7.496  0.5414  0.0739  0.5522
   63SAPC   H9R 5045   3.898   6.690   7.525  0.6009  2.2547 -1.5958
   63SAPC  C210 5046   3.692   6.637   7.609  0.3988  0.0565 -0.6481
   63SAPC  H10R 5047   3.625   6.554   7.578 -0.6319  1.2403 -1.6577
   63SAPC  H10S 5048   3.630   6.725   7.636 -0.9963 -0.8890 -0.7014
   63SAPC  C211 5049   3.758   6.587   7.733  0.6075  0.7008 -0.7693
   63SAPC  H11R 5050   3.858   6.547   7.713 -0.1530  0.0523 -3.5265
   63SAPC  C212 5051   3.694   6.576   7.848  0.0697  0.3199 -0.9847
   63SAPC  H12R 5052   3.752   6.535   7.932  0.5191  2.0946 -0.4222
   63SAPC  C213 5053   3.549   6.604   7.876 -0.5955 -0.0593 -0.2985
   63SAPC  H13R 5054   3.490   6.510   7.866 -0.8495  0.3737 -3.3255
   63SAPC  H13S 5055   3.492   6.667   7.804 -0.2274  0.3732 -0.2160
   63SAPC  C214 5056   3.535   6.671   8.013 -0.3641  0.9622  0.8744
   63SAPC  H14R 5057   3.572   6.775   8.011  0.6611  0.5810 -0.3319
   63SAPC  C215 5058   3.477   6.630   8.133 -0.0105  0.2994 -0.0983
   63SAPC  H15R 5059   3.477   6.697   8.219  0.0353  1.0167 -0.6526
   63SAPC  C216 5060   3.415   6.493   8.166  0.7175 -0.1463  0.0793
   63SAPC  H16R 5061   3.496   6.426   8.200  0.6430  0.1538  0.8512
   63SAPC  H16S 5062   3.381   6.448   8.070  2.6648 -0.3206 -0.5467
   63SAPC  C217 5063   3.291   6.484   8.260 -0.5149 -0.4762  0.0030
   63SAPC  H17R 5064   3.326   6.501   8.365  0.2854 -0.7492 -0.2097
   63SAPC  H17S 5065   3.267   6.377   8.247  0.6634 -0.8426  0.7554
   63SAPC  C218 5066   3.166   6.572   8.227 -0.2047  0.6163  0.6019
   63SAPC  H18R 5067   3.140   6.538   8.124  0.1518  0.0891  0.6837
   63SAPC  H18S 5068   3.190   6.680   8.223 -2.3750  1.0636 -1.7427
   63SAPC  C219 5069   3.047   6.544   8.311  0.6921  0.3066 -0.8873
   63SAPC  H19R 5070   3.074   6.567   8.417  1.2328 -0.7914 -0.7777
   63SAPC  H19S 5071   3.021   6.436   8.311 -1.9712  0.8960  0.9734
   63SAPC  C220 5072   2.928   6.627   8.264  0.5112  0.3062 -0.2745
   63SAPC  H20R 5073   2.892   6.580   8.170  3.8821 -2.3338 -0.3248
   63SAPC  H20S 5074   2.966   6.730   8.246 -1.1873  1.0218  0.1472
   63SAPC  H20T 5075   2.848   6.625   8.341  0.2997 -3.5736 -0.5249
   63SAPC   C33 5076   4.275   7.122   7.094 -0.0768  0.1201  0.3780
   63SAPC   H3X 5077   4.200   7.040   7.105  1.3488 -0.8759  3.0681
   63SAPC   H3Y 5078   4.204   7.205   7.076  1.1853  1.3369  0.9919
   63SAPC   C34 5079   4.359   7.165   7.215 -0.1207  0.4390 -0.2979
   63SAPC   H4X 5080   4.445   7.222   7.174 -0.5040  0.7747 -0.6359
   63SAPC   H4Y 5081   4.405   7.075   7.260  0.4481 -0.0582 -1.8390
   63SAPC   C35 5082   4.271   7.254   7.309 -0.4210  0.0245  0.3616
   63SAPC   H5X 5083   4.174   7.200   7.314 -1.6580  2.3427  1.9488
   63SAPC   H5Y 5084   4.248   7.355   7.269  0.5699 -1.1887 -3.4936
   63SAPC   C36 5085   4.320   7.259   7.459 -0.6064 -0.3803 -0.2387
   63SAPC   H6X 5086   4.418   7.311   7.458  0.3161 -2.0841 -0.5993
   63SAPC   H6Y 5087   4.337   7.151   7.479 -0.2947 -0.8960 -3.0435
   63SAPC   C37 5088   4.216   7.322   7.552  0.0883 -0.6865 -0.2634
   63SAPC   H7X 5089   4.118   7.270   7.552 -0.0518 -0.4258  0.8213
   63SAPC   H7Y 5090   4.197   7.427   7.522  1.0170 -0.7430 -1.0923
   63SAPC   C38 5091   4.275   7.313   7.696 -0.0834 -0.5347 -0.5451
   63SAPC   H8X 5092   4.381   7.343   7.706 -0.0391 -1.6295  3.1965
   63SAPC   H8Y 5093   4.290   7.207   7.726  2.4562  0.3413  1.4231
   63SAPC   C39 5094   4.185   7.386   7.793 -0.8449  0.6635  0.1146
   63SAPC   H9X 5095   4.094   7.323   7.806  0.6205 -1.4901  0.0409
   63SAPC   H9Y 5096   4.156   7.482   7.744  0.9567  0.6100 -1.0674
   63SAPC  C310 5097   4.240   7.417   7.932  0.5324  0.2176 -0.1337
   63SAPC  H10X 5098   4.160   7.462   7.994  1.6333 -1.8448  2.8855
   63SAPC  H10Y 5099   4.312   7.501   7.917  1.6177 -1.0230 -2.0754
   63SAPC  C311 5100   4.293   7.282   7.994 -0.0781  0.1463 -0.4609
   63SAPC  H11X 5101   4.369   7.244   7.923  1.5635  1.9869  0.2731
   63SAPC  H11Y 5102   4.217   7.203   8.014  3.6747 -3.6052 -0.3631
   63SAPC  C312 5103   4.370   7.306   8.128 -0.2968  0.5850 -0.3645
   63SAPC  H12X 5104   4.302   7.341   8.208  1.0727 -1.4455  1.7472
   63SAPC  H12Y 5105   4.453   7.377   8.113  0.8132 -0.6625 -0.2358
   63SAPC  C313 5106   4.440   7.176   8.180 -0.0785 -0.2935  0.6493
   63SAPC  H13X 5107   4.505   7.134   8.100  1.4948  0.9566  1.2334
   63SAPC  H13Y 5108   4.367   7.094   8.194  2.5648 -2.8941 -0.1983
   63SAPC  C314 5109   4.513   7.208   8.310 -0.0850  0.1091 -0.4594
   63SAPC  H14X 5110   4.588   7.290   8.308 -1.0068  0.9636 -0.3197
   63SAPC  H14Y 5111   4.550   7.109   8.343 -0.7847  0.2864  0.8740
   63SAPC  C315 5112   4.418   7.252   8.421  0.3221  0.6235  0.6536
   63SAPC  H15X 5113   4.328   7.187   8.425  2.1597 -2.2402 -2.5494
   63SAPC  H15Y 5114   4.391   7.356   8.393 -2.4081 -0.2724 -0.1995
   63SAPC  C316 5115   4.464   7.246   8.570 -0.2279 -0.3090  0.1436
   63SAPC  H16X 5116   4.497   7.141   8.588  0.9585  0.2767  1.5115
   63SAPC  H16Y 5117   4.384   7.260   8.645  1.3095 -0.5331  1.8714
   63SAPC  C317 5118   4.565   7.349   8.605  0.5435 -1.2878 -0.9496
   63SAPC  H17X 5119   4.650   7.356   8.535  1.5178  0.3489  0.3531
   63SAPC  H17Y 5120   4.611   7.346   8.706 -0.8786 -0.5952 -0.2593
   63SAPC  C318 5121   4.505   7.488   8.618 -0.0188 -0.1586  0.4246
   63SAPC  H18X 5122   4.578   7.568   8.641 -0.2370  0.4753 -1.0811
   63SAPC  H18Y 5123   4.436   7.495   8.705 -0.9599  1.5687 -0.4454
   63SAPC  H18Z 5124   4.451   7.518   8.526 -1.3444 -3.2602  0.1149
   64SAPC     N 5125   5.862   6.766   5.994 -0.2866 -0.5076  0.8058
   64SAPC   C12 5126   5.938   6.784   6.126 -0.2030 -0.0000  0.5858
   64SAPC  H12A 5127   6.045   6.772   6.114 -0.4784 -0.5330 -1.6608
   64SAPC  H12B 5128   5.914   6.704   6.194 -0.9145  0.5293  0.9559
   64SAPC   C13 5129   5.717   6.787   6.023  0.3412  0.5465  0.6194
   64SAPC  H13A 5130   5.702   6.888   6.057 -0.5690  0.9485 -0.9137
   64SAPC  H13B 5131   5.655   6.757   5.939  1.7927  0.3058 -0.3953
   64SAPC  H13C 5132   5.695   6.734   6.114 -3.3790  2.4813  0.9540
   64SAPC   C14 5133   5.904   6.857   5.887 -0.2663 -0.0879  0.2868
   64SAPC  H14A 5134   5.881   6.959   5.913 -2.3209 -0.3344 -0.4804
   64SAPC  H14B 5135   6.011   6.847   5.877 -0.2828 -2.0389  1.8134
   64SAPC  H14C 5136   5.863   6.837   5.789 -1.5866 -2.2564  1.2356
   64SAPC   C15 5137   5.873   6.628   5.945 -0.1752 -0.1757 -0.2769
   64SAPC  H15A 5138   5.974   6.590   5.943  0.7607  2.2105  0.1251
   64SAPC  H15B 5139   5.804   6.560   5.992 -0.7069 -1.6157 -3.0248
   64SAPC  H15C 5140   5.850   6.612   5.841  1.0744 -2.2322 -0.2572
   64SAPC   C11 5141   5.927   6.924   6.191  0.5418 -0.1356 -1.0680
   64SAPC  H11A 5142   5.964   6.922   6.296  0.6912 -1.2661 -1.1401
   64SAPC  H11B 5143   5.818   6.943   6.201  1.0136  2.1505  0.0679
   64SAPC     P 5144   6.137   7.068   6.091 -0.0028 -0.5894 -0.3668
   64SAPC   O13 5145   6.204   6.938   6.073  0.0004 -0.3158  0.1558
   64SAPC   O14 5146   6.145   7.174   5.993  0.1549 -0.9237  0.6635
   64SAPC   O12 5147   5.981   7.030   6.104  0.8137 -0.1089 -0.6208
   64SAPC   O11 5148   6.172   7.130   6.232  0.4118  0.6880 -0.5484
   64SAPC    C1 5149   6.086   7.200   6.308  1.0226 -0.3991  0.0163
   64SAPC    HA 5150   6.041   7.281   6.247 -1.6462 -0.9985  1.1382
   64SAPC    HB 5151   6.010   7.131   6.350  1.2506 -0.8322 -0.2828
   64SAPC    C2 5152   6.155   7.256   6.429 -0.1270  0.4320 -0.4130
   64SAPC    HS 5153   6.249   7.295   6.386  1.3582 -3.0395 -0.4927
   64SAPC   O21 5154   6.184   7.155   6.526  0.1245 -0.0184  0.3176
   64SAPC   C21 5155   6.304   7.161   6.592  0.3933 -0.1081 -0.0428
   64SAPC   O22 5156   6.394   7.230   6.555  0.1764 -0.8369 -0.0978
   64SAPC   C22 5157   6.306   7.076   6.713  0.1961  0.2635  0.5164
   64SAPC   H2R 5158   6.214   7.016   6.730  1.0659 -0.7897  1.6144
   64SAPC   H2S 5159   6.378   6.993   6.694  0.0486  0.5868 -1.5279
   64SAPC    C3 5160   6.068   7.374   6.487 -0.6500  0.1941 -0.7923
   64SAPC    HX 5161   5.969   7.326   6.505  0.1696 -1.2706 -0.1540
   64SAPC    HY 5162   6.055   7.458   6.415 -3.3873  1.0427  0.6076
   64SAPC   O31 5163   6.115   7.431   6.609  0.2152 -0.1097 -0.6541
   64SAPC   C31 5164   6.016   7.452   6.705 -0.4719 -0.4213 -0.8143
   64SAPC   O32 5165   5.902   7.418   6.691 -0.2424 -0.0599 -0.2835
   64SAPC   C32 5166   6.076   7.534   6.818  0.5801  0.0781 -0.4209
   64SAPC   H2X 5167   6.058   7.642   6.799  0.6219  0.4151  1.3523
   64SAPC   H2Y 5168   6.186   7.516   6.819  0.5037 -0.4160  0.6907
   64SAPC   C23 5169   6.357   7.158   6.840 -0.2749  0.5504  0.7075
   64SAPC   H3R 5170   6.282   7.233   6.872  0.2696  0.7767  1.4639
   64SAPC   H3S 5171   6.446   7.217   6.809 -0.3406  1.4684  2.2267
   64SAPC   C24 5172   6.397   7.067   6.959  0.2567 -0.2937  0.3582
   64SAPC   H4R 5173   6.469   6.992   6.920  0.7005 -0.4646  1.4930
   64SAPC   H4S 5174   6.307   7.007   6.986  0.1151 -0.4829 -0.5381
   64SAPC   C25 5175   6.455   7.145   7.074  0.6749  0.0493  0.1607
   64SAPC   H5R 5176   6.449   7.254   7.065  2.0894  0.0695 -0.5747
   64SAPC   C26 5177   6.541   7.086   7.160 -0.0823 -0.3263  0.4303
   64SAPC   H6R 5178   6.574   7.135   7.253  1.2616 -0.4369  0.0266
   64SAPC   C27 5179   6.589   6.949   7.167 -1.1132  0.7899  0.3544
   64SAPC   H7R 5180   6.578   6.895   7.070 -1.3717 -1.3113  1.5150
   64SAPC   H7S 5181   6.529   6.895   7.243 -0.0250  1.2706  1.5811
   64SAPC   C28 5182   6.735   6.949   7.190  0.0787 -0.6316 -0.2105
   64SAPC   H8R 5183   6.780   7.013   7.113  0.0689 -1.1285 -0.6271
   64SAPC   C29 5184   6.812   6.881   7.269 -0.0299  0.0595 -0.5433
   64SAPC   H9R 5185   6.921   6.893   7.269  0.0102 -0.2661 -0.0575
   64SAPC  C210 5186   6.752   6.788   7.371 -0.3161  0.1897 -0.8177
   64SAPC  H10R 5187   6.725   6.695   7.315  1.1072 -0.6195 -0.1967
   64SAPC  H10S 5188   6.657   6.829   7.411 -1.0204  0.8941 -3.1277
   64SAPC  C211 5189   6.854   6.745   7.469 -0.7722  0.2674  0.6866
   64SAPC  H11R 5190   6.927   6.681   7.417  0.4270  2.4670 -0.3869
   64SAPC  C212 5191   6.855   6.752   7.604 -0.0606  0.2885  0.5450
   64SAPC  H12R 5192   6.937   6.706   7.663  0.4660  0.3182 -0.1616
   64SAPC  C213 5193   6.758   6.812   7.697 -0.0983 -0.2607 -1.0895
   64SAPC  H13R 5194   6.714   6.730   7.757  4.2301 -2.2898 -0.4970
   64SAPC  H13S 5195   6.673   6.862   7.645  1.1123  0.3703 -2.5039
   64SAPC  C214 5196   6.822   6.916   7.785  0.3308  0.2184 -0.3851
   64SAPC  H14R 5197   6.830   7.017   7.742  3.1063  1.1394  2.0940
   64SAPC  C215 5198   6.866   6.895   7.914  1.1372  0.1305  0.3421
   64SAPC  H15R 5199   6.933   6.972   7.957  1.8855 -0.2164 -0.1747
   64SAPC  C216 5200   6.864   6.760   7.984 -0.8812 -0.0513 -0.3312
   64SAPC  H16R 5201   6.834   6.681   7.912 -1.3892  1.7302 -2.1053
   64SAPC  H16S 5202   6.782   6.766   8.058  0.3700  0.0227  1.0734
   64SAPC  C217 5203   7.004   6.718   8.039  0.0711 -1.0651  0.6835
   64SAPC  H17R 5204   7.026   6.793   8.118  0.8731  1.0475 -1.4623
   64SAPC  H17S 5205   7.077   6.727   7.956  0.6387  0.8682  1.3578
   64SAPC  C218 5206   7.003   6.583   8.108  0.5545  0.3428 -0.1717
   64SAPC  H18R 5207   6.996   6.503   8.031  0.6556 -0.7527  0.9560
   64SAPC  H18S 5208   6.908   6.576   8.164 -2.0633  0.4867 -4.4270
   64SAPC  C219 5209   7.117   6.557   8.203  0.4212 -0.3973 -0.1323
   64SAPC  H19R 5210   7.098   6.455   8.243 -2.5624  0.2569  0.2709
   64SAPC  H19S 5211   7.113   6.628   8.288  2.0447  1.2031 -1.3603
   64SAPC  C220 5212   7.257   6.554   8.135 -0.6846 -0.2837  0.4253
   64SAPC  H20R 5213   7.234   6.480   8.055 -1.8312  1.4844 -0.9273
   64SAPC  H20S 5214   7.341   6.515   8.196 -0.2908 -0.8938 -0.4957
   64SAPC  H20T 5215   7.284   6.651   8.086 -2.2046 -0.6861 -1.2832
   64SAPC   C33 5216   6.018   7.507   6.957 -0.0739 -0.3586  1.3011
   64SAPC   H3X 5217   6.038   7.404   6.993  3.6842  0.3039  1.2969
   64SAPC   H3Y 5218   5.907   7.507   6.961 -0.0871  1.2127  1.0909
   64SAPC   C34 5219   6.072   7.596   7.067 -0.0556 -0.2975  0.4149
   64SAPC   H4X 5220   6.028   7.697   7.048  1.3933  1.0219  3.6724
   64SAPC   H4Y 5221   6.182   7.609   7.059 -0.0109  1.4199  2.9709
   64SAPC   C35 5222   6.007   7.561   7.208 -0.6072 -0.2071  0.0058
   64SAPC   H5X 5223   6.031   7.460   7.246 -0.7401 -1.0577 -2.0992
   64SAPC   H5Y 5224   5.897   7.567   7.191 -0.7378  2.8378  1.5948
   64SAPC   C36 5225   6.045   7.667   7.311 -0.3164  0.2480  0.4494
   64SAPC   H6X 5226   6.041   7.761   7.253 -2.6007  0.5355  1.0416
   64SAPC   H6Y 5227   6.144   7.645   7.357 -0.0648 -1.6782 -0.9433
   64SAPC   C37 5228   5.931   7.683   7.415  0.2212 -0.4862  0.0235
   64SAPC   H7X 5229   5.922   7.584   7.464  0.9051 -0.3622  0.4070
   64SAPC   H7Y 5230   5.832   7.713   7.376  0.6344 -0.4265 -0.9845
   64SAPC   C38 5231   5.987   7.786   7.525 -0.2115 -0.5730  0.7194
   64SAPC   H8X 5232   5.992   7.883   7.471  0.3440 -1.5434 -1.0162
   64SAPC   H8Y 5233   6.091   7.756   7.552 -0.5566  0.2312  3.0314
   64SAPC   C39 5234   5.910   7.788   7.658  0.4151 -0.1401  0.7316
   64SAPC   H9X 5235   5.801   7.792   7.637  0.6392  0.1362 -0.3707
   64SAPC   H9Y 5236   5.936   7.881   7.713  1.4901 -1.5153  2.6387
   64SAPC  C310 5237   5.919   7.660   7.739  0.1000 -0.4189 -0.2200
   64SAPC  H10X 5238   6.022   7.620   7.752 -0.8695 -2.5841  1.1427
   64SAPC  H10Y 5239   5.874   7.574   7.685 -0.7597 -0.1276  0.0191
   64SAPC  C311 5240   5.847   7.671   7.878  0.6765 -0.7741 -0.2552
   64SAPC  H11X 5241   5.740   7.698   7.865  1.4802  2.3764 -0.8184
   64SAPC  H11Y 5242   5.890   7.751   7.942  3.1847 -1.0841 -1.4549
   64SAPC  C312 5243   5.856   7.537   7.952 -0.4699 -0.3053  0.8637
   64SAPC  H12X 5244   5.962   7.505   7.960 -0.9461 -1.7401  1.6428
   64SAPC  H12Y 5245   5.798   7.463   7.893 -0.1432  0.0826  0.0370
   64SAPC  C313 5246   5.814   7.556   8.104 -0.3574 -0.0583 -0.0283
   64SAPC  H13X 5247   5.862   7.648   8.145  0.8856 -0.6354 -0.1508
   64SAPC  H13Y 5248   5.858   7.467   8.153 -0.9185 -0.8397 -0.9391
   64SAPC  C314 5249   5.671   7.558   8.138  0.4727  0.5260 -0.1607
   64SAPC  H14X 5250   5.620   7.459   8.133 -0.7636  1.2071 -2.0372
   64SAPC  H14Y 5251   5.622   7.614   8.055  0.7654  0.4075 -0.4121
   64SAPC  C315 5252   5.639   7.623   8.279  0.4038 -0.5820  0.3353
   64SAPC  H15X 5253   5.535   7.594   8.306 -0.0916  1.8020  1.1275
   64SAPC  H15Y 5254   5.652   7.733   8.269 -1.1974 -0.3721  0.4429
   64SAPC  C316 5255   5.722   7.564   8.406  1.3643  0.1263  0.4729
   64SAPC  H16X 5256   5.828   7.557   8.372  1.2023  1.4856 -0.3738
   64SAPC  H16Y 5257   5.698   7.458   8.427 -1.2922 -0.6934 -5.6833
   64SAPC  C317 5258   5.703   7.659   8.523 -0.4034 -0.0555  0.2317
   64SAPC  H17X 5259   5.597   7.657   8.555 -0.9634 -2.8784 -1.5941
   64SAPC  H17Y 5260   5.731   7.763   8.494 -0.5495  0.4823  1.9662
   64SAPC  C318 5261   5.801   7.620   8.633  0.0866 -0.3981 -0.0710
   64SAPC  H18X 5262   5.907   7.643   8.613 -0.1413 -0.1129 -0.9888
   64SAPC  H18Y 5263   5.773   7.520   8.672 -1.4194  0.1047  0.1956
   64SAPC  H18Z 5264   5.776   7.680   8.724  2.4514  0.0678  0.2961
   65SAPC     N 5265   6.751   2.235   5.676  0.0043 -0.1640 -0.3245
   65SAPC   C12 5266   6.721   2.281   5.818  0.3186 -0.0162  0.3243
   65SAPC  H12A 5267   6.693   2.385   5.826 -2.2668 -0.5756 -0.9643
   65SAPC  H12B 5268   6.815   2.285   5.872 -0.6318  2.2287  1.8967
   65SAPC   C13 5269   6.627   2.241   5.591 -0.2758 -0.5146 -0.1312
   65SAPC  H13A 5270   6.646   2.203   5.492  0.7686 -3.1716  1.0498
   65SAPC  H13B 5271   6.554   2.171   5.627 -0.5122 -0.5491 -0.6720
   65SAPC  H13C 5272   6.590   2.343   5.592 -0.5844 -0.6066 -1.3056
   65SAPC   C14 5273   6.845   2.335   5.614  0.4672  0.5227 -0.3215
   65SAPC  H14A 5274   6.940   2.358   5.661 -0.2195 -2.0998  2.5589
   65SAPC  H14B 5275   6.860   2.314   5.509 -1.4230 -2.8010  0.0038
   65SAPC  H14C 5276   6.793   2.429   5.600  0.7387  0.4867 -1.6390
   65SAPC   C15 5277   6.812   2.099   5.673  0.2306  0.4312 -0.4374
   65SAPC  H15A 5278   6.907   2.093   5.724 -0.9195 -2.3048  1.4989
   65SAPC  H15B 5279   6.750   2.036   5.735  2.2699 -0.2773  0.9236
   65SAPC  H15C 5280   6.801   2.050   5.577  0.8501  0.0322 -0.3059
   65SAPC   C11 5281   6.619   2.193   5.898  0.2128  0.0641  0.6151
   65SAPC  H11A 5282   6.636   2.220   6.004  0.2019 -0.9856  0.8932
   65SAPC  H11B 5283   6.652   2.087   5.886  3.1505  0.9883  0.3285
   65SAPC     P 5284   6.390   2.094   5.897  0.5166  0.1995 -0.1375
   65SAPC   O13 5285   6.242   2.120   5.876  0.3428 -0.3647 -0.0565
   65SAPC   O14 5286   6.451   1.973   5.842  0.1535 -0.3143  0.0107
   65SAPC   O12 5287   6.482   2.224   5.863  0.6207 -0.2323 -0.3758
   65SAPC   O11 5288   6.408   2.091   6.057 -0.6171 -0.2962  0.3929
   65SAPC    C1 5289   6.380   2.213   6.134  0.4592  0.2850 -0.3859
   65SAPC    HA 5290   6.387   2.302   6.068 -0.1348  3.1937  3.2701
   65SAPC    HB 5291   6.273   2.210   6.164 -0.1565  5.2775 -1.6398
   65SAPC    C2 5292   6.459   2.236   6.267  0.0101 -0.7460  0.2247
   65SAPC    HS 5293   6.554   2.289   6.244 -0.3760  0.7957  1.9794
   65SAPC   O21 5294   6.481   2.118   6.335  0.5452  0.2511  0.4083
   65SAPC   C21 5295   6.579   2.108   6.419 -0.1967  0.3694  0.3598
   65SAPC   O22 5296   6.650   2.203   6.445  0.2907  0.2287  0.5889
   65SAPC   C22 5297   6.576   1.979   6.496 -0.2652  0.1751 -0.2749
   65SAPC   H2R 5298   6.467   1.968   6.513  0.0754 -1.9086  0.6718
   65SAPC   H2S 5299   6.618   1.898   6.434 -0.1129 -2.7633  3.4659
   65SAPC    C3 5300   6.390   2.341   6.362 -0.0107 -0.0094  0.2767
   65SAPC    HX 5301   6.380   2.428   6.294 -0.1959 -0.1667  0.1075
   65SAPC    HY 5302   6.471   2.366   6.435  0.3658  0.0062 -0.1443
   65SAPC   O31 5303   6.265   2.285   6.417  0.1074 -0.0378 -0.1947
   65SAPC   C31 5304   6.217   2.351   6.515  0.0484  0.0409 -0.8323
   65SAPC   O32 5305   6.270   2.441   6.576 -0.2898 -0.0843 -0.3637
   65SAPC   C32 5306   6.078   2.294   6.546  0.0519 -0.2140 -0.1491
   65SAPC   H2X 5307   6.085   2.184   6.530 -2.1763 -0.1539 -1.8233
   65SAPC   H2Y 5308   6.003   2.341   6.480  0.2435 -0.2585 -0.3990
   65SAPC   C23 5309   6.646   1.991   6.632 -0.0896 -0.4283 -0.0175
   65SAPC   H3R 5310   6.583   2.046   6.704 -0.9990 -0.2370 -0.9403
   65SAPC   H3S 5311   6.734   2.057   6.619 -1.1961  0.6033 -2.7776
   65SAPC   C24 5312   6.693   1.858   6.695  0.9497 -0.3333 -0.5377
   65SAPC   H4R 5313   6.748   1.875   6.789  0.4844  1.9075 -0.6438
   65SAPC   H4S 5314   6.760   1.814   6.618  1.5008 -0.0669 -0.2040
   65SAPC   C25 5315   6.578   1.766   6.720 -0.1443 -0.2926 -0.6159
   65SAPC   H5R 5316   6.540   1.708   6.634 -1.0989 -1.5544  0.6367
   65SAPC   C26 5317   6.531   1.750   6.846  0.7069  0.1895  0.2149
   65SAPC   H6R 5318   6.451   1.675   6.847 -1.2395  2.2267  1.9500
   65SAPC   C27 5319   6.572   1.815   6.977 -0.2079 -0.0875  0.1343
   65SAPC   H7R 5320   6.500   1.897   6.998 -0.1386  0.6472 -2.3768
   65SAPC   H7S 5321   6.666   1.870   6.959 -1.2954  1.1235 -1.9959
   65SAPC   C28 5322   6.591   1.720   7.093 -0.1355  0.1394  0.0143
   65SAPC   H8R 5323   6.683   1.660   7.093 -0.5779 -0.7280  4.1727
   65SAPC   C29 5324   6.509   1.701   7.196  0.1196 -0.1936  0.1304
   65SAPC   H9R 5325   6.544   1.628   7.270  2.2338  2.3547  1.7757
   65SAPC  C210 5326   6.378   1.766   7.234  0.3044  0.3958 -0.0564
   65SAPC  H10R 5327   6.313   1.708   7.304 -0.3745  0.6343 -0.4803
   65SAPC  H10S 5328   6.315   1.756   7.143 -1.9708 -2.3680  1.7362
   65SAPC  C211 5329   6.377   1.909   7.290  0.3485 -1.1115  0.1161
   65SAPC  H11R 5330   6.329   1.985   7.226  2.2636 -0.9292 -1.1593
   65SAPC  C212 5331   6.430   1.951   7.406  0.3903 -0.5327 -0.9543
   65SAPC  H12R 5332   6.417   2.053   7.445  1.5516 -0.6746 -0.1704
   65SAPC  C213 5333   6.493   1.865   7.513  0.0249 -0.5836  0.3038
   65SAPC  H13R 5334   6.512   1.764   7.472 -1.5253 -0.9938  0.5469
   65SAPC  H13S 5335   6.416   1.851   7.592 -1.5087 -0.3201 -1.1164
   65SAPC  C214 5336   6.627   1.923   7.563  0.5878  0.8463  0.6046
   65SAPC  H14R 5337   6.675   1.997   7.496 -2.6203  0.3105 -2.3906
   65SAPC  C215 5338   6.686   1.878   7.675 -0.0099 -0.0173  0.3003
   65SAPC  H15R 5339   6.786   1.913   7.706  2.1071 -4.1959 -1.4361
   65SAPC  C216 5340   6.635   1.777   7.766  0.0743  0.4948 -0.2179
   65SAPC  H16R 5341   6.706   1.691   7.763 -0.6717 -0.0915 -1.4247
   65SAPC  H16S 5342   6.534   1.753   7.727 -0.1811  1.8834 -0.4321
   65SAPC  C217 5343   6.615   1.829   7.907  1.0771 -0.0732 -0.6211
   65SAPC  H17R 5344   6.580   1.742   7.967 -2.0473  1.6132  0.0791
   65SAPC  H17S 5345   6.532   1.902   7.901  0.9369 -0.3445 -2.0505
   65SAPC  C218 5346   6.727   1.906   7.981 -0.6568 -0.0397  1.3323
   65SAPC  H18R 5347   6.764   1.999   7.933 -0.5712  0.7480  2.8942
   65SAPC  H18S 5348   6.814   1.843   8.010  0.4019  0.7393 -0.1013
   65SAPC  C219 5349   6.676   1.938   8.121  0.6131  0.4296 -0.0547
   65SAPC  H19R 5350   6.637   1.852   8.180  0.9043  1.2842  1.4123
   65SAPC  H19S 5351   6.596   2.014   8.111  0.5094  0.4427  0.7935
   65SAPC  C220 5352   6.793   1.997   8.204  0.8826 -0.8073  0.2592
   65SAPC  H20R 5353   6.843   2.082   8.154 -2.0005 -0.0016 -1.3848
   65SAPC  H20S 5354   6.875   1.922   8.205  0.9823 -0.7074 -0.1523
   65SAPC  H20T 5355   6.779   2.018   8.312  2.5541  2.0879 -0.0233
   65SAPC   C33 5356   6.030   2.322   6.693  0.6337  1.0094  0.2868
   65SAPC   H3X 5357   5.919   2.310   6.696  0.7417 -0.2745 -0.5777
   65SAPC   H3Y 5358   6.052   2.419   6.743 -0.0328  1.5554 -0.4600
   65SAPC   C34 5359   6.076   2.210   6.784  0.1017 -0.6988 -0.3222
   65SAPC   H4X 5360   6.186   2.193   6.778  0.6066  1.8001  0.9676
   65SAPC   H4Y 5361   6.025   2.121   6.743 -0.4707 -1.8155  2.6698
   65SAPC   C35 5362   6.033   2.220   6.935 -0.3878  0.1026 -0.1751
   65SAPC   H5X 5363   5.922   2.220   6.943 -0.2718  2.1589  2.0334
   65SAPC   H5Y 5364   6.054   2.322   6.975 -2.8347  0.7366 -0.4265
   65SAPC   C36 5365   6.100   2.105   7.022  0.3433 -0.2823 -0.3337
   65SAPC   H6X 5366   6.210   2.118   7.023  0.2398  0.6970 -0.9559
   65SAPC   H6Y 5367   6.080   2.011   6.966 -2.2684 -1.0086  1.7003
   65SAPC   C37 5368   6.027   2.099   7.159  0.2885  0.3678 -0.1785
   65SAPC   H7X 5369   6.038   1.997   7.203 -0.7313  0.0473 -0.6556
   65SAPC   H7Y 5370   5.919   2.124   7.150 -0.0634 -0.9187  0.2284
   65SAPC   C38 5371   6.090   2.202   7.242  0.7762  0.7029  0.2121
   65SAPC   H8X 5372   6.113   2.291   7.179 -1.8268  0.5113 -1.0974
   65SAPC   H8Y 5373   6.186   2.163   7.281  1.2687  0.7667 -0.9156
   65SAPC   C39 5374   6.010   2.243   7.373 -0.1156 -0.0077 -0.0430
   65SAPC   H9X 5375   5.907   2.269   7.343  0.1062  3.5443  1.9975
   65SAPC   H9Y 5376   6.058   2.339   7.403  0.3264 -0.3060  0.2017
   65SAPC  C310 5377   6.020   2.150   7.491  0.5650  0.7004  0.1214
   65SAPC  H10X 5378   6.119   2.101   7.502 -0.5831 -1.8838 -0.8709
   65SAPC  H10Y 5379   5.957   2.063   7.464  0.1673  0.9384  0.2833
   65SAPC  C311 5380   5.973   2.221   7.621  0.0148  0.6999 -0.2755
   65SAPC  H11X 5381   5.979   2.332   7.613 -1.2245  0.7886 -0.0615
   65SAPC  H11Y 5382   6.033   2.182   7.706  1.2397 -0.9803 -1.8814
   65SAPC  C312 5383   5.830   2.194   7.658 -0.6536 -0.4882  0.6603
   65SAPC  H12X 5384   5.815   2.085   7.642  1.3266 -0.7670  0.5002
   65SAPC  H12Y 5385   5.760   2.254   7.596 -0.8184 -0.0570  1.2652
   65SAPC  C313 5386   5.777   2.230   7.797  0.3532  0.4098  0.4027
   65SAPC  H13X 5387   5.821   2.171   7.880  1.0914  0.9212  0.3810
   65SAPC  H13Y 5388   5.670   2.206   7.813  1.0955 -2.5031  1.1449
   65SAPC  C314 5389   5.798   2.385   7.814 -0.6462  0.1251  0.1713
   65SAPC  H14X 5390   5.761   2.449   7.731  1.3884  1.8252  0.5272
   65SAPC  H14Y 5391   5.908   2.398   7.818 -0.4170 -0.8028 -2.1807
   65SAPC  C315 5392   5.752   2.420   7.953  0.4346  0.5122  0.6773
   65SAPC  H15X 5393   5.771   2.338   8.025  0.6021 -0.6115 -0.6126
   65SAPC  H15Y 5394   5.641   2.430   7.951  0.5368  2.0510  1.9191
   65SAPC  C316 5395   5.820   2.541   8.009  0.4669 -0.0597  0.5546
   65SAPC  H16X 5396   5.833   2.623   7.935  1.8324 -1.1936 -0.4930
   65SAPC  H16Y 5397   5.923   2.520   8.043 -0.2323 -0.6968  2.3475
   65SAPC  C317 5398   5.747   2.602   8.130 -0.2003  0.2899  0.0240
   65SAPC  H17X 5399   5.641   2.615   8.098 -0.6261  2.4568  2.2010
   65SAPC  H17Y 5400   5.769   2.710   8.145 -1.1048  0.4230  0.4313
   65SAPC  C318 5401   5.780   2.525   8.262  0.3389 -0.0074  0.5041
   65SAPC  H18X 5402   5.890   2.530   8.276  0.6618 -3.2536 -0.4465
   65SAPC  H18Y 5403   5.753   2.417   8.267  0.0602  0.1471  2.8893
   65SAPC  H18Z 5404   5.733   2.561   8.355  1.3855  3.2995 -0.1963
   66SAPC     N 5405   3.408   0.651   6.095 -0.0565  0.5026 -0.3466
   66SAPC   C12 5406   3.269   0.668   6.163  0.4091  0.5034  0.2940
   66SAPC  H12A 5407   3.287   0.668   6.270  1.5543  0.9105  0.1038
   66SAPC  H12B 5408   3.213   0.576   6.162  0.6331  0.3419 -3.1096
   66SAPC   C13 5409   3.399   0.625   5.947  0.4870  0.0972 -0.0177
   66SAPC  H13A 5410   3.347   0.706   5.899  2.9255  1.9010  0.2671
   66SAPC  H13B 5411   3.502   0.609   5.917 -0.0397 -1.8338 -0.8918
   66SAPC  H13C 5412   3.336   0.539   5.929  0.5156  0.1424 -0.3392
   66SAPC   C14 5413   3.484   0.775   6.110  0.8929  0.3252 -0.2640
   66SAPC  H14A 5414   3.500   0.810   6.211 -2.2774 -0.7082  0.6591
   66SAPC  H14B 5415   3.581   0.761   6.065  0.8683 -0.9132  0.0717
   66SAPC  H14C 5416   3.431   0.856   6.061  2.0417  1.2760  0.0179
   66SAPC   C15 5417   3.482   0.543   6.164 -0.0305  0.4856 -0.6971
   66SAPC  H15A 5418   3.434   0.447   6.151 -2.1010  1.6107 -1.4474
   66SAPC  H15B 5419   3.577   0.522   6.117  0.8839  0.2660  1.1844
   66SAPC  H15C 5420   3.509   0.578   6.263  0.6863  2.9715 -1.7533
   66SAPC   C11 5421   3.179   0.792   6.132 -0.0915 -0.2741  0.5009
   66SAPC  H11A 5422   3.080   0.777   6.181 -0.4642  0.5401  0.0048
   66SAPC  H11B 5423   3.167   0.801   6.022 -0.5988 -3.2382  0.2797
   66SAPC     P 5424   3.239   1.045   6.105 -0.0232  0.2545  0.3024
   66SAPC   O13 5425   3.326   1.037   5.991 -0.4328  0.2876  0.2039
   66SAPC   O14 5426   3.096   1.079   6.073 -0.2721  1.0126  0.3617
   66SAPC   O12 5427   3.237   0.911   6.194  0.0375 -0.5860  0.3481
   66SAPC   O11 5428   3.285   1.151   6.212  0.9299  0.4548  0.0485
   66SAPC    C1 5429   3.414   1.187   6.254  0.7144 -0.2271  0.3616
   66SAPC    HA 5430   3.500   1.133   6.208  2.2634  0.7188  2.0753
   66SAPC    HB 5431   3.438   1.292   6.225  0.6226  0.0393  1.2483
   66SAPC    C2 5432   3.439   1.172   6.407 -0.4523 -0.3543 -0.3249
   66SAPC    HS 5433   3.408   1.068   6.432 -1.8165 -0.3375 -1.8986
   66SAPC   O21 5434   3.359   1.273   6.481 -0.1479  0.1522  0.2414
   66SAPC   C21 5435   3.300   1.237   6.589 -0.4128 -0.1610 -0.3711
   66SAPC   O22 5436   3.263   1.125   6.618  0.1649 -0.7059 -0.6898
   66SAPC   C22 5437   3.284   1.368   6.674  0.2081 -0.2910 -0.3834
   66SAPC   H2R 5438   3.225   1.438   6.612  0.3296  0.5621  0.4391
   66SAPC   H2S 5439   3.240   1.327   6.768 -2.3611 -1.2063 -1.9493
   66SAPC    C3 5440   3.585   1.179   6.453  0.9974  0.1153 -0.4480
   66SAPC    HX 5441   3.631   1.275   6.423 -0.9742  0.0641 -3.9932
   66SAPC    HY 5442   3.659   1.105   6.415 -2.7139 -3.5659 -0.9819
   66SAPC   O31 5443   3.598   1.177   6.594 -0.0037  0.6313 -0.0724
   66SAPC   C31 5444   3.581   1.055   6.650  0.4052 -0.1210  0.4561
   66SAPC   O32 5445   3.556   0.952   6.589  0.4382  0.4821 -0.0677
   66SAPC   C32 5446   3.610   1.056   6.800  0.3441 -0.7623 -0.0415
   66SAPC   H2X 5447   3.621   1.162   6.834 -1.5969 -0.4314 -0.3697
   66SAPC   H2Y 5448   3.702   0.996   6.818 -0.0575 -0.9486  1.4112
   66SAPC   C23 5449   3.415   1.447   6.709  0.4785  0.3645 -0.4426
   66SAPC   H3R 5450   3.464   1.489   6.619  2.5619 -0.0000  0.4849
   66SAPC   H3S 5451   3.488   1.375   6.754  0.7932 -0.5802 -2.4278
   66SAPC   C24 5452   3.405   1.565   6.811  0.3836 -0.2206 -0.2429
   66SAPC   H4R 5453   3.335   1.525   6.887  0.6183 -1.9178 -0.8820
   66SAPC   H4S 5454   3.348   1.648   6.766  1.8694  1.0205  0.1355
   66SAPC   C25 5455   3.544   1.606   6.860 -0.5082 -0.1832 -0.0879
   66SAPC   H5R 5456   3.625   1.580   6.790  1.2270  0.0943  1.7722
   66SAPC   C26 5457   3.572   1.644   6.984  0.3132 -0.1955  0.0474
   66SAPC   H6R 5458   3.678   1.668   7.004  0.0691  0.0592  1.0484
   66SAPC   C27 5459   3.470   1.662   7.094 -0.0043  0.2126  0.1476
   66SAPC   H7R 5460   3.371   1.674   7.047  0.2909  1.2944 -0.2183
   66SAPC   H7S 5461   3.499   1.752   7.154  1.2057  0.7533 -1.2227
   66SAPC   C28 5462   3.465   1.545   7.184  0.0710 -0.0032 -0.4006
   66SAPC   H8R 5463   3.412   1.456   7.147 -2.2343 -0.2521  3.2171
   66SAPC   C29 5464   3.514   1.539   7.310 -0.0074  0.0532  0.8420
   66SAPC   H9R 5465   3.507   1.447   7.370  2.3583  1.3206  3.1649
   66SAPC  C210 5466   3.587   1.654   7.378  0.6645 -0.4335 -0.2222
   66SAPC  H10R 5467   3.519   1.732   7.418  3.2199  2.0410 -0.5788
   66SAPC  H10S 5468   3.650   1.698   7.297 -0.8879 -0.0237 -1.2416
   66SAPC  C211 5469   3.680   1.602   7.490  0.1959  0.0655 -0.1325
   66SAPC  H11R 5470   3.777   1.561   7.459  0.4014  1.3448 -1.2805
   66SAPC  C212 5471   3.665   1.617   7.626 -0.0551 -0.1595 -0.1061
   66SAPC  H12R 5472   3.739   1.566   7.689  1.8014  0.9549 -1.3405
   66SAPC  C213 5473   3.558   1.683   7.708  0.3046 -0.3034  0.1279
   66SAPC  H13R 5474   3.467   1.696   7.645 -1.7987 -2.4946  2.6001
   66SAPC  H13S 5475   3.590   1.785   7.739 -0.3007 -1.5101  5.1067
   66SAPC  C214 5476   3.524   1.617   7.843  0.4520  0.2109  0.1257
   66SAPC  H14R 5477   3.426   1.569   7.855  0.6774 -0.0394  1.0125
   66SAPC  C215 5478   3.593   1.609   7.958 -1.1411  0.3344  0.4870
   66SAPC  H15R 5479   3.559   1.527   8.023  1.9174  0.4671  2.3136
   66SAPC  C216 5480   3.731   1.656   7.988  0.0473 -0.0719 -0.8621
   66SAPC  H16R 5481   3.774   1.722   7.909  2.0705 -0.4649 -0.1100
   66SAPC  H16S 5482   3.801   1.571   8.005 -1.1485 -1.0532 -0.7572
   66SAPC  C217 5483   3.732   1.750   8.114  0.9213 -0.2156 -0.0331
   66SAPC  H17R 5484   3.660   1.833   8.104  1.0996 -0.0707 -0.1240
   66SAPC  H17S 5485   3.832   1.797   8.107  0.6862  0.5333  1.4733
   66SAPC  C218 5486   3.695   1.678   8.249  0.3778  1.0202 -0.1922
   66SAPC  H18R 5487   3.715   1.569   8.240  1.6535  1.2915 -0.7905
   66SAPC  H18S 5488   3.586   1.699   8.259  0.3403  0.3843  0.8539
   66SAPC  C219 5489   3.763   1.738   8.372 -0.4701  0.2009 -0.4621
   66SAPC  H19R 5490   3.757   1.849   8.360  1.2532  0.4490  0.7192
   66SAPC  H19S 5491   3.871   1.712   8.381  0.1538  3.4003  2.7267
   66SAPC  C220 5492   3.691   1.710   8.507 -0.4099  0.1142  0.0720
   66SAPC  H20R 5493   3.668   1.601   8.514  1.6691 -0.4028 -0.8164
   66SAPC  H20S 5494   3.588   1.752   8.510 -1.7233 -2.9962  0.5757
   66SAPC  H20T 5495   3.742   1.748   8.597 -0.7246 -0.0536  0.3233
   66SAPC   C33 5496   3.494   0.988   6.871  0.3849 -0.2825 -0.1649
   66SAPC   H3X 5497   3.469   0.891   6.822 -0.6729 -0.2943  0.3768
   66SAPC   H3Y 5498   3.396   1.040   6.871  1.2066  1.2757 -0.6697
   66SAPC   C34 5499   3.535   0.946   7.012 -0.4533 -0.2726  0.3182
   66SAPC   H4X 5500   3.630   0.888   7.006  0.5398  1.2043  1.3892
   66SAPC   H4Y 5501   3.452   0.876   7.034  0.2751 -1.3167 -0.2520
   66SAPC   C35 5502   3.540   1.070   7.104 -0.0746 -0.1528 -0.3721
   66SAPC   H5X 5503   3.449   1.130   7.083 -1.1535 -1.3732  0.7027
   66SAPC   H5Y 5504   3.628   1.134   7.081 -0.1812 -0.1504 -0.7742
   66SAPC   C36 5505   3.536   1.032   7.254  0.1790 -0.6359 -0.2815
   66SAPC   H6X 5506   3.632   0.984   7.282  0.4287 -1.7556 -2.9412
   66SAPC   H6Y 5507   3.460   0.953   7.271  1.8520 -2.2223 -0.0409
   66SAPC   C37 5508   3.511   1.154   7.354  0.2296  0.3309  0.3743
   66SAPC   H7X 5509   3.419   1.208   7.324  0.0679 -1.1329 -1.9396
   66SAPC   H7Y 5510   3.596   1.222   7.333  0.7923  0.0370  1.6527
   66SAPC   C38 5511   3.501   1.115   7.500 -0.6972  0.3797 -0.1524
   66SAPC   H8X 5512   3.596   1.067   7.534 -0.4896  0.0361 -1.2055
   66SAPC   H8Y 5513   3.423   1.038   7.520 -1.4798  1.0084 -0.7989
   66SAPC   C39 5514   3.485   1.244   7.593 -0.2144 -0.1708 -0.2429
   66SAPC   H9X 5515   3.382   1.286   7.590 -0.3580 -0.3598  1.4147
   66SAPC   H9Y 5516   3.574   1.299   7.559  0.7993 -3.1403 -2.6319
   66SAPC  C310 5517   3.505   1.210   7.742 -0.7810 -0.3644  0.7503
   66SAPC  H10X 5518   3.526   1.303   7.799 -0.2078 -0.4674  0.7073
   66SAPC  H10Y 5519   3.585   1.134   7.747 -1.4135 -1.1138 -0.3070
   66SAPC  C311 5520   3.380   1.148   7.808 -0.1012 -0.2153 -0.3182
   66SAPC  H11X 5521   3.367   1.048   7.763  1.1865 -0.1238 -0.9271
   66SAPC  H11Y 5522   3.289   1.209   7.793 -0.4846 -0.8770 -0.6888
   66SAPC  C312 5523   3.390   1.118   7.955  0.7660  0.4624  0.0855
   66SAPC  H12X 5524   3.483   1.060   7.976 -0.0085 -0.5927  0.6393
   66SAPC  H12Y 5525   3.313   1.042   7.979  1.1123 -0.2112 -0.8831
   66SAPC  C313 5526   3.378   1.228   8.052 -0.0798 -0.1971 -0.3914
   66SAPC  H13X 5527   3.283   1.284   8.043 -0.9462 -1.5031  0.4443
   66SAPC  H13Y 5528   3.464   1.299   8.047 -0.9126  0.8202 -0.4342
   66SAPC  C314 5529   3.361   1.170   8.193 -0.8694 -0.8002 -0.4026
   66SAPC  H14X 5530   3.455   1.116   8.217 -0.6754  0.6827  2.3248
   66SAPC  H14Y 5531   3.270   1.107   8.193 -1.7617  0.4493  1.4065
   66SAPC  C315 5532   3.364   1.276   8.306  0.0992  0.3513  0.6233
   66SAPC  H15X 5533   3.280   1.347   8.293  0.3575  0.5948  0.2830
   66SAPC  H15Y 5534   3.463   1.324   8.318 -0.5037  1.1072  2.7818
   66SAPC  C316 5535   3.340   1.203   8.433  0.4724  0.0187 -0.1438
   66SAPC  H16X 5536   3.420   1.127   8.441  0.9703  0.5516 -0.0770
   66SAPC  H16Y 5537   3.242   1.151   8.417  1.8730 -2.4393 -1.0020
   66SAPC  C317 5538   3.331   1.299   8.561 -0.1091  0.1848 -0.4159
   66SAPC  H17X 5539   3.305   1.402   8.529  3.4996  1.7250  1.3976
   66SAPC  H17Y 5540   3.437   1.298   8.595  0.0349  1.1538 -0.8237
   66SAPC  C318 5541   3.221   1.249   8.662 -0.5569  0.6549 -1.2239
   66SAPC  H18X 5542   3.226   1.311   8.754  0.0443  0.3652 -1.0561
   66SAPC  H18Y 5543   3.244   1.145   8.694  1.1665  0.9654 -1.3896
   66SAPC  H18Z 5544   3.125   1.263   8.609 -0.3047  0.0934 -1.8403
   67SAPC     N 5545   5.587   3.176   6.162  0.4379 -0.1193 -0.3385
   67SAPC   C12 5546   5.528   3.228   6.291 -0.2427  1.2624  0.2287
   67SAPC  H12A 5547   5.539   3.146   6.360 -3.7601 -0.7372 -1.4493
   67SAPC  H12B 5548   5.424   3.250   6.271 -0.5658 -0.8064 -0.5213
   67SAPC   C13 5549   5.521   3.046   6.112 -0.0739 -0.2581 -0.0802
   67SAPC  H13A 5550   5.422   3.060   6.070  0.6849  1.8361 -1.2744
   67SAPC  H13B 5551   5.575   3.000   6.031  1.5527 -1.1459  1.4912
   67SAPC  H13C 5552   5.522   2.970   6.188  2.3847  0.8080  1.0030
   67SAPC   C14 5553   5.574   3.282   6.058  0.2052 -0.5450  0.1902
   67SAPC  H14A 5554   5.641   3.364   6.083 -0.6613  0.6002 -1.1465
   67SAPC  H14B 5555   5.605   3.249   5.960 -0.8343  0.3307 -0.4497
   67SAPC  H14C 5556   5.476   3.323   6.042 -0.2704 -2.2721 -1.5446
   67SAPC   C15 5557   5.734   3.143   6.180  0.0925  0.0477 -0.4189
   67SAPC  H15A 5558   5.766   3.057   6.237  1.1798  1.7463  1.6051
   67SAPC  H15B 5559   5.781   3.126   6.084  2.1371  2.9042  0.0410
   67SAPC  H15C 5560   5.790   3.221   6.229  2.4143 -1.2324 -0.9804
   67SAPC   C11 5561   5.579   3.363   6.351 -0.0117  0.5356  0.3253
   67SAPC  H11A 5562   5.521   3.386   6.443  1.7898 -1.7538  2.0873
   67SAPC  H11B 5563   5.556   3.447   6.282  1.2839  1.3157  0.8245
   67SAPC     P 5564   5.774   3.319   6.520  0.3653  0.0885 -0.0251
   67SAPC   O13 5565   5.914   3.277   6.499  0.5660  0.0748  0.0474
   67SAPC   O14 5566   5.749   3.425   6.621 -0.3394  0.1542 -0.5602
   67SAPC   O12 5567   5.711   3.359   6.383 -0.1258  0.2597  0.3805
   67SAPC   O11 5568   5.693   3.194   6.570 -0.2245  0.2684 -0.5302
   67SAPC    C1 5569   5.728   3.061   6.542  0.4397 -0.0467 -0.5169
   67SAPC    HA 5570   5.636   3.012   6.504 -0.7065  0.7853  1.1395
   67SAPC    HB 5571   5.811   3.052   6.468  2.4637 -1.7948  1.8711
   67SAPC    C2 5572   5.772   2.986   6.676  0.1933  0.5773 -0.2083
   67SAPC    HS 5573   5.766   2.877   6.655 -0.3076  0.5036  0.3132
   67SAPC   O21 5574   5.682   3.025   6.786 -0.5233  0.2398  0.7135
   67SAPC   C21 5575   5.642   2.933   6.869  0.7602  0.1117 -0.1430
   67SAPC   O22 5576   5.669   2.816   6.866 -0.8791  0.2773  0.3732
   67SAPC   C22 5577   5.568   3.002   6.990  0.0931 -0.1468  0.0553
   67SAPC   H2R 5578   5.547   3.109   6.968 -0.3151 -0.1884  0.2479
   67SAPC   H2S 5579   5.467   2.962   7.011  1.1900 -1.4766  3.0713
   67SAPC    C3 5580   5.916   3.027   6.721  0.6206 -0.0753  1.2478
   67SAPC    HX 5581   5.915   3.131   6.758 -2.0741 -0.1513  1.4660
   67SAPC    HY 5582   5.988   3.019   6.636 -1.0328  1.2200 -0.2991
   67SAPC   O31 5583   5.948   2.940   6.830  0.2950 -0.1895 -0.9310
   67SAPC   C31 5584   5.990   2.818   6.796  0.1580  0.4136  0.3409
   67SAPC   O32 5585   5.981   2.770   6.680 -0.7577  0.3714 -0.0435
   67SAPC   C32 5586   6.038   2.734   6.915  0.6236 -0.7766  0.3005
   67SAPC   H2X 5587   6.066   2.811   6.990 -0.0249 -0.2612  0.0253
   67SAPC   H2Y 5588   6.133   2.697   6.872  0.5799  0.2295 -0.6802
   67SAPC   C23 5589   5.661   2.989   7.112  0.5504 -0.1442 -0.1863
   67SAPC   H3R 5590   5.695   2.884   7.128 -0.3662 -0.1507  1.8877
   67SAPC   H3S 5591   5.599   3.002   7.203  2.3236 -1.6615  1.2854
   67SAPC   C24 5592   5.781   3.086   7.107 -0.1850  0.0954  0.0419
   67SAPC   H4R 5593   5.730   3.182   7.130  0.2011  0.2278  0.3487
   67SAPC   H4S 5594   5.820   3.062   7.006 -1.1385 -0.8254 -0.1251
   67SAPC   C25 5595   5.876   3.045   7.215  0.2654 -0.7705 -0.6551
   67SAPC   H5R 5596   5.936   2.958   7.186  0.6891 -0.4099 -0.8650
   67SAPC   C26 5597   5.891   3.105   7.337  0.4286 -0.5431 -0.0441
   67SAPC   H6R 5598   5.971   3.055   7.395  1.5076  0.0347 -1.0028
   67SAPC   C27 5599   5.822   3.226   7.394 -0.0526 -0.0722  0.0175
   67SAPC   H7R 5600   5.776   3.283   7.311  1.4601  0.1790 -0.6640
   67SAPC   H7S 5601   5.895   3.298   7.437  2.3274 -0.3724 -3.3265
   67SAPC   C28 5602   5.707   3.183   7.486 -0.2211 -0.0118  0.5564
   67SAPC   H8R 5603   5.620   3.146   7.429 -0.6462 -0.3804  1.4330
   67SAPC   C29 5604   5.715   3.175   7.620 -0.0906 -0.7454 -0.4230
   67SAPC   H9R 5605   5.633   3.124   7.673  0.7513 -0.4223  1.2423
   67SAPC  C210 5606   5.846   3.201   7.690  0.1404  0.1901  0.0034
   67SAPC  H10R 5607   5.829   3.194   7.800  0.9694 -1.6291  0.0362
   67SAPC  H10S 5608   5.879   3.306   7.677  0.3975  0.0987 -0.0732
   67SAPC  C211 5609   5.958   3.107   7.655  0.4023 -1.3878 -0.3843
   67SAPC  H11R 5610   5.937   3.031   7.579 -0.0182 -1.5525 -0.1098
   67SAPC  C212 5611   6.081   3.104   7.708  0.3984  0.7240  0.1210
   67SAPC  H12R 5612   6.154   3.026   7.682 -1.1471 -0.4131 -0.8596
   67SAPC  C213 5613   6.137   3.204   7.804 -1.3238 -0.1765  0.3402
   67SAPC  H13R 5614   6.090   3.165   7.897  0.2391 -3.1067 -0.0278
   67SAPC  H13S 5615   6.106   3.309   7.789 -4.0890 -1.2403 -2.1114
   67SAPC  C214 5616   6.286   3.182   7.822 -0.5760 -0.6457  0.8334
   67SAPC  H14R 5617   6.344   3.144   7.737 -3.1385  0.6697 -1.5653
   67SAPC  C215 5618   6.352   3.214   7.934 -0.5769 -0.0962 -0.1280
   67SAPC  H15R 5619   6.461   3.210   7.923 -0.6461  1.3140 -1.5533
   67SAPC  C216 5620   6.294   3.265   8.059  0.0786  0.2680  0.3712
   67SAPC  H16R 5621   6.192   3.300   8.030  1.1688  1.9211 -1.6026
   67SAPC  H16S 5622   6.356   3.348   8.099 -1.6638  1.5057  0.5694
   67SAPC  C217 5623   6.283   3.159   8.161  0.1784 -0.2481  0.2005
   67SAPC  H17R 5624   6.374   3.098   8.180  0.4462  0.0046 -0.2602
   67SAPC  H17S 5625   6.211   3.088   8.114 -0.4906  0.2006  0.5398
   67SAPC  C218 5626   6.226   3.215   8.290  0.0788  0.9467  0.2312
   67SAPC  H18R 5627   6.224   3.134   8.366 -2.1639  0.9193  0.1696
   67SAPC  H18S 5628   6.120   3.248   8.279  0.0440  0.8927  0.4036
   67SAPC  C219 5629   6.312   3.327   8.361 -0.1399 -0.3500 -0.4762
   67SAPC  H19R 5630   6.419   3.311   8.336  0.2980 -1.1371  1.7813
   67SAPC  H19S 5631   6.306   3.302   8.469  2.7332 -3.0987 -0.8812
   67SAPC  C220 5632   6.276   3.472   8.329 -0.2438  0.0224  0.6225
   67SAPC  H20R 5633   6.305   3.502   8.227  0.0911  0.4339  0.8378
   67SAPC  H20S 5634   6.341   3.538   8.390  1.4837 -3.1600  2.3615
   67SAPC  H20T 5635   6.166   3.487   8.340 -0.0882  0.9992  0.8578
   67SAPC   C33 5636   5.932   2.637   6.961 -0.0412 -0.4555 -0.1563
   67SAPC   H3X 5637   5.910   2.556   6.889  0.5731 -1.0243  0.2886
   67SAPC   H3Y 5638   5.837   2.694   6.966 -0.2816 -1.0296  3.1809
   67SAPC   C34 5639   5.974   2.571   7.095 -0.0647 -0.0578  0.5207
   67SAPC   H4X 5640   6.058   2.501   7.077 -0.4509 -0.3776 -0.0259
   67SAPC   H4Y 5641   5.892   2.513   7.141  0.4323 -2.2270 -1.2774
   67SAPC   C35 5642   6.019   2.683   7.197  0.1870  0.0305  0.0930
   67SAPC   H5X 5643   5.934   2.750   7.223  1.8412  2.3685 -0.4345
   67SAPC   H5Y 5644   6.099   2.750   7.161 -0.1279  1.1346  1.4194
   67SAPC   C36 5645   6.058   2.624   7.337 -0.0523  0.1143  0.5985
   67SAPC   H6X 5646   6.159   2.577   7.327 -0.3696 -0.9029  1.9811
   67SAPC   H6Y 5647   5.983   2.543   7.348 -0.8645  0.4534 -2.0267
   67SAPC   C37 5648   6.058   2.717   7.454 -0.0496  0.8512 -0.8734
   67SAPC   H7X 5649   5.964   2.775   7.460 -0.2456  0.6553 -1.9847
   67SAPC   H7Y 5650   6.144   2.785   7.438 -0.4397  1.9045  1.3411
   67SAPC   C38 5651   6.078   2.636   7.581 -0.2497 -0.0072 -0.3355
   67SAPC   H8X 5652   6.155   2.555   7.574 -0.0951  0.1189 -0.1288
   67SAPC   H8Y 5653   5.987   2.582   7.614  0.5984 -0.5002  1.2637
   67SAPC   C39 5654   6.116   2.718   7.702 -0.0604  0.1370  0.3530
   67SAPC   H9X 5655   6.024   2.758   7.751 -0.1067 -0.6080  0.8764
   67SAPC   H9Y 5656   6.188   2.799   7.677 -0.4451 -0.1841 -1.8172
   67SAPC  C310 5657   6.180   2.637   7.822 -0.1807 -0.2984  0.2552
   67SAPC  H10X 5658   6.277   2.595   7.787  0.2715 -0.3130  1.5214
   67SAPC  H10Y 5659   6.113   2.549   7.830 -2.7387  1.6337  0.7062
   67SAPC  C311 5660   6.197   2.720   7.947 -0.3677  0.2417 -0.8740
   67SAPC  H11X 5661   6.100   2.756   7.987 -1.4255 -0.7834 -2.4234
   67SAPC  H11Y 5662   6.247   2.814   7.917 -2.9257  2.6781  2.1564
   67SAPC  C312 5663   6.275   2.654   8.058 -0.5415  0.1939 -0.2731
   67SAPC  H12X 5664   6.308   2.730   8.132  2.3413  1.2346 -2.5333
   67SAPC  H12Y 5665   6.377   2.632   8.021  0.4361 -0.3814  2.6462
   67SAPC  C313 5666   6.220   2.526   8.114  0.3366  0.2910  0.2086
   67SAPC  H13X 5667   6.198   2.465   8.024  1.4394  1.9169 -1.1748
   67SAPC  H13Y 5668   6.129   2.545   8.175  1.0804 -0.0846  1.4674
   67SAPC  C314 5669   6.329   2.459   8.188 -0.2102  0.6708 -0.3644
   67SAPC  H14X 5670   6.372   2.515   8.274 -1.7499 -2.5496  2.6252
   67SAPC  H14Y 5671   6.408   2.430   8.115  1.0484 -0.7771  1.5104
   67SAPC  C315 5672   6.278   2.333   8.255 -0.5508  0.5492  0.4097
   67SAPC  H15X 5673   6.365   2.298   8.314 -1.1264 -1.4134  0.1412
   67SAPC  H15Y 5674   6.252   2.245   8.192  0.6097 -0.3910  1.2322
   67SAPC  C316 5675   6.160   2.342   8.347 -0.2090  0.3808  0.1692
   67SAPC  H16X 5676   6.144   2.236   8.376  2.2254 -0.0512  0.0419
   67SAPC  H16Y 5677   6.068   2.367   8.290 -0.2686  1.0807  0.5748
   67SAPC  C317 5678   6.183   2.430   8.468  0.5526  0.1981  0.2474
   67SAPC  H17X 5679   6.289   2.459   8.482  0.6499  0.4610 -0.9620
   67SAPC  H17Y 5680   6.157   2.375   8.561 -0.8411 -1.1322 -0.9027
   67SAPC  C318 5681   6.107   2.562   8.468 -0.0630 -0.9231 -0.0449
   67SAPC  H18X 5682   6.126   2.622   8.560 -0.8770  0.1700 -0.5680
   67SAPC  H18Y 5683   5.996   2.552   8.465 -0.0743 -0.9121  0.3145
   67SAPC  H18Z 5684   6.145   2.620   8.382 -0.6204 -0.6530 -0.1165
   68SAPC     N 5685   3.876   2.349   5.985 -0.4627 -0.7892  0.0144
   68SAPC   C12 5686   3.778   2.461   6.005  0.1713  0.2237  0.1089
   68SAPC  H12A 5687   3.802   2.551   5.951  1.1423 -1.5454 -2.5004
   68SAPC  H12B 5688   3.777   2.483   6.111  1.0113  0.5938  0.0456
   68SAPC   C13 5689   3.860   2.285   5.844  0.4806  0.1879  0.2889
   68SAPC  H13A 5690   3.769   2.228   5.853  0.0451  0.8071 -0.1204
   68SAPC  H13B 5691   3.845   2.349   5.758 -0.3746 -1.3141 -0.6926
   68SAPC  H13C 5692   3.935   2.211   5.824 -0.7726 -0.2341 -3.3355
   68SAPC   C14 5693   4.012   2.404   5.979  0.3815  0.0808  0.4120
   68SAPC  H14A 5694   4.051   2.441   6.073  1.1469  3.6881 -1.2046
   68SAPC  H14B 5695   4.080   2.331   5.938 -0.1387  1.1809 -2.5620
   68SAPC  H14C 5696   4.019   2.484   5.906 -0.4524 -0.8718 -0.7274
   68SAPC   C15 5697   3.866   2.243   6.092 -0.2807  0.6484  0.0868
   68SAPC  H15A 5698   3.766   2.203   6.093  0.6036 -1.6289  0.6467
   68SAPC  H15B 5699   3.934   2.161   6.074  1.5085  1.4679  2.7250
   68SAPC  H15C 5700   3.885   2.290   6.187  0.5093  0.7287 -0.1023
   68SAPC   C11 5701   3.628   2.435   5.963 -0.4388  0.1283  0.2803
   68SAPC  H11A 5702   3.625   2.424   5.852  1.3987  0.2084  0.2087
   68SAPC  H11B 5703   3.563   2.524   5.979 -0.8217 -0.3510  1.4426
   68SAPC     P 5704   3.521   2.326   6.168  0.2951  0.2232 -0.2543
   68SAPC   O13 5705   3.383   2.386   6.169 -0.0999  0.6755 -0.1835
   68SAPC   O14 5706   3.532   2.189   6.225 -0.1312 -0.0252  0.6656
   68SAPC   O12 5707   3.575   2.318   6.020  0.1779  0.3057  0.3566
   68SAPC   O11 5708   3.625   2.407   6.242  0.5810 -0.6474  1.0486
   68SAPC    C1 5709   3.580   2.493   6.344  0.2858 -0.2364  0.5215
   68SAPC    HA 5710   3.646   2.582   6.339  0.3912 -0.3895 -0.9645
   68SAPC    HB 5711   3.474   2.527   6.335 -0.3618 -2.4928 -0.7984
   68SAPC    C2 5712   3.604   2.436   6.487  0.2107 -0.8525  0.0779
   68SAPC    HS 5713   3.701   2.382   6.479  0.5752  0.0477 -1.7993
   68SAPC   O21 5714   3.486   2.355   6.516 -0.1206  0.5689 -0.2380
   68SAPC   C21 5715   3.517   2.227   6.554 -0.2084 -1.0514  0.3414
   68SAPC   O22 5716   3.631   2.178   6.546  0.2530  0.2231  0.5767
   68SAPC   C22 5717   3.383   2.150   6.573  0.5015 -0.4987  0.2923
   68SAPC   H2R 5718   3.322   2.210   6.645  0.9379  0.8382 -0.4330
   68SAPC   H2S 5719   3.330   2.157   6.476  1.1688 -2.1543 -0.2019
   68SAPC    C3 5720   3.629   2.547   6.587  0.7546  0.4013 -0.4687
   68SAPC    HX 5721   3.545   2.620   6.591  3.0382  2.9769  1.6101
   68SAPC    HY 5722   3.717   2.603   6.547  0.8912 -0.1690 -0.9697
   68SAPC   O31 5723   3.673   2.506   6.713 -0.0192  0.6530  0.2375
   68SAPC   C31 5724   3.574   2.503   6.804  0.2066  0.2032 -0.4414
   68SAPC   O32 5725   3.458   2.509   6.776 -0.5129  0.0673 -0.0158
   68SAPC   C32 5726   3.635   2.493   6.947 -0.2640 -0.1881 -0.2223
   68SAPC   H2X 5727   3.649   2.599   6.975 -0.7423 -0.4143  0.9078
   68SAPC   H2Y 5728   3.734   2.443   6.944  0.8293  1.9246 -0.3914
   68SAPC   C23 5729   3.394   1.999   6.606 -0.5949  0.4614 -0.3424
   68SAPC   H3R 5730   3.425   1.939   6.518 -1.0164 -1.2283  0.6180
   68SAPC   H3S 5731   3.292   1.971   6.640  0.8243 -1.9546  2.1111
   68SAPC   C24 5732   3.499   1.970   6.721 -0.5692  0.1054  0.0375
   68SAPC   H4R 5733   3.602   1.997   6.690 -0.5308  2.3841  1.9936
   68SAPC   H4S 5734   3.507   1.859   6.728 -0.5353  0.0922 -0.2160
   68SAPC   C25 5735   3.464   2.035   6.854  0.6324  0.3299 -0.5197
   68SAPC   H5R 5736   3.356   2.045   6.868  0.8856  0.6491  1.2896
   68SAPC   C26 5737   3.551   2.078   6.951 -0.7070  0.1015 -0.3646
   68SAPC   H6R 5738   3.499   2.097   7.046 -1.3480  2.4343 -1.1494
   68SAPC   C27 5739   3.702   2.087   6.963  0.3145 -0.2861 -0.5574
   68SAPC   H7R 5740   3.716   2.174   7.030 -1.4789 -1.3779  1.2811
   68SAPC   H7S 5741   3.756   2.103   6.867  1.1570 -1.3148 -0.2652
   68SAPC   C28 5742   3.751   1.962   7.035 -0.6169  0.6082  0.6209
   68SAPC   H8R 5743   3.720   1.869   6.984  2.6869 -0.4058  0.2641
   68SAPC   C29 5744   3.830   1.962   7.145 -0.0518  0.0540  0.1238
   68SAPC   H9R 5745   3.853   1.867   7.194  2.4112  0.2320 -0.6490
   68SAPC  C210 5746   3.874   2.082   7.219 -0.3277  0.5357 -0.0121
   68SAPC  H10R 5747   3.815   2.091   7.313  0.6786 -0.1230  0.6821
   68SAPC  H10S 5748   3.865   2.177   7.162  1.4529  1.7151  1.5972
   68SAPC  C211 5749   4.021   2.067   7.252  0.6288 -0.0036  0.4926
   68SAPC  H11R 5750   4.080   2.096   7.164 -0.3222 -0.4135 -0.2726
   68SAPC  C212 5751   4.082   2.040   7.363 -0.1853 -0.5305 -0.5122
   68SAPC  H12R 5752   4.191   2.037   7.368 -0.2230  0.0754  0.8076
   68SAPC  C213 5753   4.010   2.016   7.498  0.0489  0.4893 -0.2905
   68SAPC  H13R 5754   4.026   1.911   7.531  2.2485  0.7853 -0.3687
   68SAPC  H13S 5755   3.900   2.011   7.487 -0.0526  2.2532 -0.3011
   68SAPC  C214 5756   4.052   2.108   7.609 -0.3523  0.0325 -0.7553
   68SAPC  H14R 5757   4.128   2.184   7.585 -1.7845  2.0715  0.9847
   68SAPC  C215 5758   3.998   2.101   7.732 -0.2234 -0.0294 -0.4590
   68SAPC  H15R 5759   4.041   2.168   7.808  1.0697  0.1450 -1.3417
   68SAPC  C216 5760   3.885   2.007   7.766  0.4190 -0.3779 -0.7619
   68SAPC  H16R 5761   3.919   1.940   7.847  1.4859  2.0511  0.8445
   68SAPC  H16S 5762   3.846   1.941   7.685  0.6285  1.4198 -2.3614
   68SAPC  C217 5763   3.763   2.095   7.818 -0.6314  0.3257 -0.0439
   68SAPC  H17R 5764   3.685   2.023   7.851 -1.6127  0.5778 -1.7975
   68SAPC  H17S 5765   3.724   2.155   7.734 -0.0919 -0.3375 -0.7758
   68SAPC  C218 5766   3.791   2.173   7.947 -0.1140  0.4760  0.4380
   68SAPC  H18R 5767   3.696   2.195   8.000 -1.0191  0.7660 -1.2984
   68SAPC  H18S 5768   3.832   2.275   7.933  0.5145  0.3418  1.2369
   68SAPC  C219 5769   3.867   2.093   8.057  0.4123 -0.3144  0.0846
   68SAPC  H19R 5770   3.970   2.134   8.064  0.3763  0.0297 -1.4543
   68SAPC  H19S 5771   3.871   1.983   8.043  1.7187 -0.6077  2.4641
   68SAPC  C220 5772   3.781   2.104   8.185 -0.1920  0.2484  0.2442
   68SAPC  H20R 5773   3.676   2.074   8.163 -0.1953 -1.0327  1.9607
   68SAPC  H20S 5774   3.786   2.207   8.227 -2.2321  1.3414 -2.0011
   68SAPC  H20T 5775   3.828   2.044   8.265 -1.9435 -4.0709 -1.8416
   68SAPC   C33 5776   3.534   2.430   7.055  0.4560 -0.5345  0.8008
   68SAPC   H3X 5777   3.534   2.319   7.052 -1.3320 -0.5619  1.1807
   68SAPC   H3Y 5778   3.429   2.452   7.025  2.1392  0.7437 -4.6215
   68SAPC   C34 5779   3.557   2.485   7.196  0.3502 -0.5873 -0.2257
   68SAPC   H4X 5780   3.458   2.479   7.245 -0.8030 -0.3036 -2.4517
   68SAPC   H4Y 5781   3.581   2.593   7.191  1.0060 -0.7756 -1.6418
   68SAPC   C35 5782   3.664   2.404   7.277  0.6672  0.3374 -0.4369
   68SAPC   H5X 5783   3.745   2.400   7.200 -0.3855 -0.1317 -1.5430
   68SAPC   H5Y 5784   3.627   2.303   7.304 -1.2936  1.2396  0.2974
   68SAPC   C36 5785   3.714   2.474   7.409 -0.0205 -0.0760 -0.1828
   68SAPC   H6X 5786   3.749   2.578   7.396  1.0544 -0.2474  1.1650
   68SAPC   H6Y 5787   3.800   2.415   7.447 -1.4534 -0.8400  2.0303
   68SAPC   C37 5788   3.629   2.464   7.537 -0.5882 -0.0689  0.6321
   68SAPC   H7X 5789   3.588   2.364   7.565  1.4133 -1.1899 -0.3769
   68SAPC   H7Y 5790   3.544   2.526   7.502  0.1098 -0.5862 -2.1013
   68SAPC   C38 5791   3.699   2.546   7.650  0.5399  0.1162  0.1250
   68SAPC   H8X 5792   3.654   2.509   7.745 -1.3435 -0.7807 -1.1025
   68SAPC   H8Y 5793   3.679   2.655   7.646  1.4310  0.2733 -0.2725
   68SAPC   C39 5794   3.849   2.509   7.669 -0.2960 -0.1735  0.1669
   68SAPC   H9X 5795   3.910   2.561   7.592 -0.6961 -0.3158 -0.2482
   68SAPC   H9Y 5796   3.859   2.402   7.643 -0.9198  0.1438 -1.4322
   68SAPC  C310 5797   3.897   2.543   7.807  0.2890  0.4747 -0.6246
   68SAPC  H10X 5798   3.851   2.484   7.889 -0.4249  3.9709  1.5840
   68SAPC  H10Y 5799   3.856   2.645   7.821  0.1799  0.6584 -2.2568
   68SAPC  C311 5800   4.046   2.542   7.835 -0.2950  0.8182 -0.4429
   68SAPC  H11X 5801   4.113   2.601   7.770  1.9251 -3.2222 -1.9558
   68SAPC  H11Y 5802   4.080   2.437   7.822  0.9065  1.0265  0.8788
   68SAPC  C312 5803   4.076   2.594   7.978  0.0862  0.0321  0.5771
   68SAPC  H12X 5804   4.009   2.681   7.994 -1.2114 -0.3636 -2.2718
   68SAPC  H12Y 5805   4.182   2.627   7.970  0.0542  0.1923  0.8351
   68SAPC  C313 5806   4.072   2.498   8.104 -0.8425 -0.6560  1.2592
   68SAPC  H13X 5807   4.142   2.412   8.091 -1.3917 -0.8460 -0.7110
   68SAPC  H13Y 5808   3.971   2.451   8.107 -0.8650 -0.5477  2.1870
   68SAPC  C314 5809   4.097   2.572   8.237 -0.3667  0.2535  0.3753
   68SAPC  H14X 5810   4.005   2.635   8.235  0.4361  1.4375 -0.4484
   68SAPC  H14Y 5811   4.185   2.638   8.223  0.6214 -0.9166  1.0135
   68SAPC  C315 5812   4.122   2.486   8.357  0.9706 -0.1417 -0.3791
   68SAPC  H15X 5813   4.111   2.543   8.451 -2.5148 -0.2790 -0.6202
   68SAPC  H15Y 5814   4.219   2.434   8.368  0.1565 -1.4915  0.5301
   68SAPC  C316 5815   4.013   2.374   8.379  0.2221 -0.0874  0.3630
   68SAPC  H16X 5816   4.014   2.293   8.303  0.5491 -0.0904  0.3703
   68SAPC  H16Y 5817   3.921   2.436   8.370 -0.5895 -1.2742  0.3578
   68SAPC  C317 5818   4.017   2.307   8.523  0.1868 -0.4472  0.1132
   68SAPC  H17X 5819   4.002   2.394   8.590 -2.0462 -0.0179 -0.9152
   68SAPC  H17Y 5820   4.113   2.251   8.532 -0.7632 -2.2477 -0.6099
   68SAPC  C318 5821   3.911   2.202   8.550 -0.2571  0.4368  0.1766
   68SAPC  H18X 5822   3.929   2.109   8.493 -1.0900 -0.1706  0.8978
   68SAPC  H18Y 5823   3.816   2.226   8.498 -0.4028 -0.0731  0.2092
   68SAPC  H18Z 5824   3.886   2.176   8.654  0.5129 -0.2984  0.1797
   69SLPC     N 5825   1.481   1.022  11.116  0.6360  0.7191 -0.3465
   69SLPC   C13 5826   1.346   1.085  11.160 -0.5450 -0.4341  0.3283
   69SLPC  H13A 5827   1.343   1.094  11.268  0.3214 -1.4364  0.4451
   69SLPC  H13B 5828   1.321   1.188  11.138  2.2811  0.9436  3.0242
   69SLPC  H13C 5829   1.267   1.019  11.128 -0.8114  0.4534 -0.8558
   69SLPC   C14 5830   1.490   1.039  10.966 -0.7321 -0.3507  0.5365
   69SLPC  H14A 5831   1.539   0.956  10.917 -0.2178 -0.4556  1.2176
   69SLPC  H14B 5832   1.396   1.038  10.914  0.6728 -0.1650 -2.1157
   69SLPC  H14C 5833   1.539   1.131  10.937 -0.8418 -0.2883  0.5534
   69SLPC   C15 5834   1.483   0.877  11.145  0.0791  0.9031 -0.1036
   69SLPC  H15A 5835   1.484   0.855  11.251  0.9195  0.9147 -0.1036
   69SLPC  H15B 5836   1.404   0.823  11.096 -0.0939  2.6217 -1.7781
   69SLPC  H15C 5837   1.572   0.832  11.104  0.1081  1.5784 -0.7929
   69SLPC   C12 5838   1.604   1.094  11.176 -0.3088 -0.1913 -0.3984
   69SLPC  H12A 5839   1.586   1.122  11.278  2.3226  2.2833 -0.5543
   69SLPC  H12B 5840   1.632   1.185  11.126  2.5042 -1.6600 -1.6214
   69SLPC   C11 5841   1.739   1.016  11.167  0.0693  0.7090 -0.4066
   69SLPC  H11A 5842   1.727   0.927  11.232  0.1825  0.0163 -1.3270
   69SLPC  H11B 5843   1.818   1.068  11.225  0.2051 -0.1565  0.2061
   69SLPC     P 5844   1.841   1.067  10.940  0.5568  0.4343  0.0919
   69SLPC   O13 5845   1.803   1.205  10.975  0.1785 -0.0043 -0.1150
   69SLPC   O14 5846   1.986   1.033  10.926  0.6654 -0.1265 -0.6029
   69SLPC   O12 5847   1.772   0.969  11.040  0.8234 -0.0464  0.1897
   69SLPC   O11 5848   1.776   1.024  10.807  0.2488  0.4728  0.0223
   69SLPC    C1 5849   1.800   0.893  10.761 -0.5932 -0.2708 -0.1685
   69SLPC    HA 5850   1.870   0.835  10.824  0.6799  1.1545 -0.2425
   69SLPC    HB 5851   1.697   0.853  10.744  0.0128 -2.3686  0.9112
   69SLPC    C2 5852   1.864   0.885  10.621  0.0602 -0.0842 -0.2512
   69SLPC    HS 5853   1.974   0.902  10.628 -0.1071  1.1780 -0.6597
   69SLPC   O21 5854   1.804   0.981  10.532 -0.5855 -0.3615  0.5684
   69SLPC   C21 5855   1.880   1.062  10.462  0.4535  0.1096  0.2422
   69SLPC   O22 5856   2.000   1.070  10.463 -0.7413  0.3761  0.0386
   69SLPC   C22 5857   1.789   1.159  10.377 -0.0998  0.1371  0.1365
   69SLPC   H2R 5858   1.701   1.098  10.348  0.2760  0.0167 -0.7965
   69SLPC   H2S 5859   1.749   1.241  10.440  2.3757  1.7361 -0.2718
   69SLPC    C3 5860   1.846   0.743  10.551 -0.3368 -0.3271  0.4553
   69SLPC    HX 5861   1.735   0.742  10.547 -0.2821 -0.4683 -2.1208
   69SLPC    HY 5862   1.898   0.674  10.620 -0.1448 -1.4557 -0.7973
   69SLPC   O31 5863   1.899   0.754  10.412  0.2269  0.1169  0.3930
   69SLPC   C31 5864   1.878   0.651  10.341  0.0341 -0.4587  0.0302
   69SLPC   O32 5865   1.852   0.543  10.389  0.3705  0.3922  0.5360
   69SLPC   C32 5866   1.886   0.696  10.195  0.2378 -0.2654 -0.4045
   69SLPC   H2X 5867   1.963   0.777  10.189  0.1730 -0.1163  0.7117
   69SLPC   H2Y 5868   1.788   0.740  10.166  0.6436  0.9536  0.0182
   69SLPC   C23 5869   1.856   1.209  10.244 -0.0938 -0.0778  0.9026
   69SLPC   H3R 5870   1.954   1.250  10.278 -0.7679  1.4029  1.0923
   69SLPC   H3S 5871   1.796   1.287  10.192 -0.3426 -0.9348 -0.1315
   69SLPC   C24 5872   1.893   1.100  10.147  0.5740  0.0449  0.0031
   69SLPC   H4R 5873   1.959   1.023  10.194  0.4909  0.4405  0.7700
   69SLPC   H4S 5874   1.955   1.153  10.071 -0.1026  1.0225  0.1300
   69SLPC   C25 5875   1.771   1.034  10.083  0.0276  0.6353 -0.3556
   69SLPC   H5R 5876   1.709   0.983  10.160  0.0134  1.5368  0.2357
   69SLPC   H5S 5877   1.806   0.945  10.027  0.0756  0.2064  0.3429
   69SLPC   C26 5878   1.696   1.139  10.000 -0.1991  0.4143  0.8616
   69SLPC   H6R 5879   1.776   1.169   9.930  1.3516 -0.5067  2.1981
   69SLPC   H6S 5880   1.655   1.215  10.070 -1.2919  0.1427  0.5192
   69SLPC   C27 5881   1.578   1.087   9.934 -0.5270 -0.4455  0.1826
   69SLPC   H7R 5882   1.501   1.065  10.011 -0.6245  2.4575  1.0024
   69SLPC   H7S 5883   1.600   0.992   9.882  0.3809  0.1415 -0.5295
   69SLPC   C28 5884   1.517   1.187   9.835  0.1348 -0.0444  0.1542
   69SLPC   H8R 5885   1.603   1.220   9.773  0.9053 -0.6534  0.8944
   69SLPC   H8S 5886   1.476   1.263   9.904 -0.3250 -0.9228  0.8581
   69SLPC   C29 5887   1.399   1.148   9.747  0.5291  0.5118 -0.0344
   69SLPC   H9R 5888   1.335   1.066   9.783 -0.2224  1.0324 -0.1576
   69SLPC  C210 5889   1.383   1.189   9.623  0.2574  1.0732  0.1644
   69SLPC  H10R 5890   1.284   1.164   9.582  1.1579 -2.2627 -0.0961
   69SLPC  C211 5891   1.460   1.295   9.548 -0.1961 -0.3264  0.6869
   69SLPC  H11R 5892   1.450   1.276   9.439  1.9948 -1.0315  0.5842
   69SLPC  H11S 5893   1.571   1.288   9.550 -0.1514 -0.0484 -0.6598
   69SLPC  C212 5894   1.414   1.439   9.589 -0.0551  0.4232  0.6880
   69SLPC  H12R 5895   1.448   1.471   9.688  0.3743  1.7567  0.1116
   69SLPC  C213 5896   1.338   1.530   9.522 -0.3644  0.0237  0.4870
   69SLPC  H13R 5897   1.308   1.629   9.557  0.1408  0.2262  0.3612
   69SLPC  C214 5898   1.304   1.502   9.375  0.2578  0.1597 -0.7670
   69SLPC  H14R 5899   1.204   1.541   9.348 -0.0511 -0.0325  0.1150
   69SLPC  H14S 5900   1.293   1.393   9.356 -0.1377  0.0066  0.3417
   69SLPC  C215 5901   1.421   1.535   9.278  0.1815  0.5066  0.1252
   69SLPC  H15R 5902   1.521   1.532   9.327 -0.1812  1.0856  0.9066
   69SLPC  H15S 5903   1.393   1.636   9.242 -1.9192 -0.1229 -0.0916
   69SLPC  C216 5904   1.424   1.449   9.157  0.8202 -0.5820 -0.2674
   69SLPC  H16R 5905   1.318   1.442   9.122  0.3018  0.8536  0.9614
   69SLPC  H16S 5906   1.458   1.349   9.191  0.7478 -0.6974 -0.5296
   69SLPC  C217 5907   1.493   1.504   9.029 -0.6543  0.0898 -0.2149
   69SLPC  H17R 5908   1.598   1.529   9.057  0.0395  0.0259 -2.6151
   69SLPC  H17S 5909   1.439   1.593   8.990 -1.8386 -1.6078 -2.5215
   69SLPC  C218 5910   1.498   1.409   8.907  0.5668  0.0926  0.1607
   69SLPC  H18R 5911   1.590   1.405   8.845  0.9648  0.2703  0.7236
   69SLPC  H18S 5912   1.403   1.408   8.851  1.9086  1.3479 -2.2068
   69SLPC  H18T 5913   1.483   1.311   8.958 -1.7031  0.4953  0.3007
   69SLPC   C33 5914   1.920   0.578  10.106 -0.8601  0.1469  0.8705
   69SLPC   H3X 5915   1.866   0.482  10.123 -0.5784  0.2592  2.5141
   69SLPC   H3Y 5916   2.030   0.565  10.114 -1.0387 -2.0770 -0.0185
   69SLPC   C34 5917   1.894   0.625   9.961 -0.1164 -0.1603 -0.3870
   69SLPC   H4X 5918   1.942   0.720   9.929 -2.8049  0.8914 -1.4294
   69SLPC   H4Y 5919   1.788   0.653   9.947 -0.2381  0.0112  0.8517
   69SLPC   C35 5920   1.929   0.506   9.861 -0.1006  1.3380  0.1829
   69SLPC   H5X 5921   1.883   0.409   9.887  0.2723  0.0673 -3.6383
   69SLPC   H5Y 5922   2.038   0.488   9.853 -0.2750  0.5416 -0.4091
   69SLPC   C36 5923   1.873   0.540   9.720  0.5529 -0.2468 -0.0300
   69SLPC   H6X 5924   1.860   0.649   9.708 -2.2652 -0.7383 -1.6594
   69SLPC   H6Y 5925   1.767   0.508   9.722  0.1393  1.1570  2.7561
   69SLPC   C37 5926   1.963   0.494   9.606 -0.3985  0.0171  1.1424
   69SLPC   H7X 5927   1.971   0.383   9.610  0.5673  0.0213 -0.2029
   69SLPC   H7Y 5928   2.068   0.529   9.616 -0.0718 -0.4437 -0.4722
   69SLPC   C38 5929   1.900   0.535   9.474 -0.1602 -0.1254 -0.3369
   69SLPC   H8X 5930   1.917   0.645   9.470 -1.6496  0.0587 -2.7522
   69SLPC   H8Y 5931   1.789   0.533   9.482 -0.3630 -0.4505 -2.9518
   69SLPC   C39 5932   1.946   0.467   9.351  0.1280  0.5552 -0.0240
   69SLPC   H9X 5933   1.901   0.365   9.354 -2.2263  1.5419 -0.7558
   69SLPC   H9Y 5934   2.056   0.456   9.348  0.1305 -0.7534  2.7931
   69SLPC  C310 5935   1.907   0.540   9.225 -0.0270  0.5294  0.0518
   69SLPC  H10X 5936   1.968   0.632   9.212  3.1776 -1.3910  1.0724
   69SLPC  H10Y 5937   1.801   0.573   9.217 -0.1369  0.4741  1.2922
   69SLPC  C311 5938   1.943   0.463   9.096  1.0530 -0.8554 -0.4615
   69SLPC  H11X 5939   2.045   0.420   9.113  0.4347 -2.7181 -1.2922
   69SLPC  H11Y 5940   1.948   0.534   9.011  4.6040  0.7186  0.9748
   69SLPC  C312 5941   1.848   0.345   9.063  0.7511 -0.5816 -0.2535
   69SLPC  H12X 5942   1.745   0.387   9.059 -0.0094 -2.1082  2.2893
   69SLPC  H12Y 5943   1.864   0.268   9.141 -0.5173  2.1204  2.7572
   69SLPC  C313 5944   1.899   0.276   8.933 -0.0778  0.3232 -0.7184
   69SLPC  H13X 5945   1.863   0.171   8.940 -1.0227  0.4569 -3.0054
   69SLPC  H13Y 5946   2.010   0.282   8.944  0.0330  0.2836 -1.7718
   69SLPC  C314 5947   1.850   0.348   8.809 -0.1912 -0.2519 -0.0856
   69SLPC  H14X 5948   1.918   0.434   8.789 -0.8897  0.0793 -1.0943
   69SLPC  H14Y 5949   1.745   0.385   8.806 -0.6985 -1.7190 -0.7292
   69SLPC  C315 5950   1.856   0.265   8.687  0.1675  0.1179 -0.4002
   69SLPC  H15X 5951   1.817   0.332   8.607  0.1331  0.5673 -0.0075
   69SLPC  H15Y 5952   1.802   0.169   8.693  2.0063 -0.9225 -0.0051
   69SLPC  C316 5953   1.999   0.212   8.649  0.2555 -0.7663  0.1577
   69SLPC  H16X 5954   2.016   0.121   8.710  2.7330 -0.9259 -0.7109
   69SLPC  H16Y 5955   2.070   0.284   8.695 -0.2371 -0.0359 -0.2045
   69SLPC  C317 5956   2.008   0.198   8.500  0.3438  0.3517 -0.1566
   69SLPC  H17X 5957   1.904   0.177   8.469 -0.2412  0.9621  1.3556
   69SLPC  H17Y 5958   2.085   0.126   8.464 -0.5265  0.3864 -2.1288
   69SLPC  C318 5959   2.045   0.320   8.429  0.4012  0.0999 -0.5807
   69SLPC  H18X 5960   2.040   0.309   8.319  2.7476 -0.3568 -0.6604
   69SLPC  H18Y 5961   2.148   0.353   8.450  0.0906  1.9570 -1.8949
   69SLPC  H18Z 5962   1.975   0.403   8.452  2.5536  2.3178 -1.7941
   70SLPC     N 5963   2.905   4.877  11.276 -0.2368 -0.2948 -0.8040
   70SLPC   C13 5964   2.992   4.777  11.219  0.1285 -0.5518 -0.0138
   70SLPC  H13A 5965   2.932   4.690  11.201 -1.5527  0.0849  2.2949
   70SLPC  H13B 5966   3.032   4.819  11.128  1.6139  0.5501  1.1180
   70SLPC  H13C 5967   3.075   4.745  11.281 -2.0714  0.0878  3.4361
   70SLPC   C14 5968   2.969   5.005  11.312 -0.0278  1.0934  0.3667
   70SLPC  H14A 5969   2.911   5.060  11.386  0.0966  0.7188  0.7426
   70SLPC  H14B 5970   3.072   4.999  11.342  0.6817  2.6196 -1.6712
   70SLPC  H14C 5971   2.987   5.068  11.226 -0.1920  0.2934 -0.2510
   70SLPC   C15 5972   2.848   4.807  11.399  0.2045 -0.5880  0.6034
   70SLPC  H15A 5973   2.805   4.715  11.364  2.3561 -1.3784 -0.0433
   70SLPC  H15B 5974   2.932   4.780  11.461  1.9155 -3.6977 -2.9026
   70SLPC  H15C 5975   2.770   4.865  11.447  1.5942 -0.1042  2.3611
   70SLPC   C12 5976   2.787   4.908  11.179 -0.1180 -0.2921  0.0948
   70SLPC  H12A 5977   2.728   4.987  11.222  1.3292  2.1803 -2.3338
   70SLPC  H12B 5978   2.728   4.817  11.175 -0.6353 -0.0505  1.6834
   70SLPC   C11 5979   2.834   4.971  11.042  0.2589  0.1862 -0.3008
   70SLPC  H11A 5980   2.876   5.072  11.059 -1.0039  0.9263 -1.5000
   70SLPC  H11B 5981   2.736   4.988  10.993  0.1849  2.5032  0.5720
   70SLPC     P 5982   2.966   4.933  10.821 -0.4885 -0.3580 -0.1986
   70SLPC   O13 5983   3.068   5.039  10.842 -0.0063 -0.6103  0.0892
   70SLPC   O14 5984   3.008   4.814  10.746 -0.1627 -0.6369  0.5206
   70SLPC   O12 5985   2.915   4.886  10.967 -0.2674 -0.2261  0.2701
   70SLPC   O11 5986   2.844   4.997  10.754  0.2158 -0.3872 -0.3695
   70SLPC    C1 5987   2.735   4.903  10.707 -0.4453 -0.2841  0.0218
   70SLPC    HA 5988   2.774   4.802  10.682 -2.7147 -0.7955 -1.5926
   70SLPC    HB 5989   2.652   4.900  10.781  0.2069  1.4007  0.8465
   70SLPC    C2 5990   2.689   4.948  10.563 -0.7802  0.3387  0.5321
   70SLPC    HS 5991   2.616   4.868  10.538 -0.7135  0.2026  0.7780
   70SLPC   O21 5992   2.792   4.949  10.466 -0.1335  0.2191  0.0769
   70SLPC   C21 5993   2.810   4.841  10.395  0.8463  0.2165  0.3398
   70SLPC   O22 5994   2.770   4.729  10.422 -0.5606 -0.3954 -0.4163
   70SLPC   C22 5995   2.888   4.871  10.264  0.6877 -0.1693 -0.3467
   70SLPC   H2R 5996   2.989   4.908  10.289  0.1174  0.1156  1.6549
   70SLPC   H2S 5997   2.910   4.776  10.211  1.1921 -1.1055  1.4888
   70SLPC    C3 5998   2.622   5.080  10.560 -0.1700  0.3004 -0.0376
   70SLPC    HX 5999   2.689   5.158  10.602  2.3631 -1.7259 -0.2108
   70SLPC    HY 6000   2.535   5.068  10.628 -0.4758  0.2894 -0.4302
   70SLPC   O31 6001   2.571   5.106  10.429 -0.0487  0.5615 -0.1589
   70SLPC   C31 6002   2.478   5.196  10.433 -0.1013 -0.4413 -0.0702
   70SLPC   O32 6003   2.455   5.260  10.530  0.3888  0.1642  0.1282
   70SLPC   C32 6004   2.413   5.207  10.300 -0.3821 -0.1158 -0.4257
   70SLPC   H2X 6005   2.310   5.250  10.301  0.0516  1.2292 -4.2508
   70SLPC   H2Y 6006   2.405   5.103  10.262  1.9875 -1.3217  2.2671
   70SLPC   C23 6007   2.814   4.979  10.181 -0.4240 -0.0194 -0.4503
   70SLPC   H3R 6008   2.802   5.079  10.230  3.6940  1.2722 -1.8411
   70SLPC   H3S 6009   2.707   4.958  10.162 -0.4670  1.1130 -1.4787
   70SLPC   C24 6010   2.873   5.019  10.043  0.2786 -0.6756  0.5583
   70SLPC   H4R 6011   2.891   4.923   9.990 -0.3141 -0.6137  0.2498
   70SLPC   H4S 6012   2.975   5.056  10.069  0.4663 -1.1357  0.4792
   70SLPC   C25 6013   2.791   5.127   9.974  0.0250 -0.0746 -0.3670
   70SLPC   H5R 6014   2.797   5.213  10.045 -0.0761 -0.0731 -0.3596
   70SLPC   H5S 6015   2.686   5.093   9.965 -0.0972  0.2721 -0.2726
   70SLPC   C26 6016   2.828   5.174   9.837  0.0063  0.2661  0.1820
   70SLPC   H6R 6017   2.935   5.201   9.828 -0.3920  1.1959 -2.0618
   70SLPC   H6S 6018   2.769   5.265   9.813 -1.7989 -1.0768 -0.5727
   70SLPC   C27 6019   2.812   5.063   9.740  0.5403  0.1121  0.8215
   70SLPC   H7R 6020   2.704   5.038   9.733 -0.5079  3.7400  2.8457
   70SLPC   H7S 6021   2.870   4.970   9.758  0.5387 -0.3185 -1.1789
   70SLPC   C28 6022   2.826   5.119   9.601  0.4247  0.1523  0.1207
   70SLPC   H8R 6023   2.928   5.161   9.589  0.1225  1.0839  0.8230
   70SLPC   H8S 6024   2.752   5.197   9.575  0.6747  0.3516  0.0048
   70SLPC   C29 6025   2.807   5.008   9.501 -0.0841  0.1764  0.3087
   70SLPC   H9R 6026   2.734   4.934   9.537 -1.4386 -0.3494 -3.2118
   70SLPC  C210 6027   2.847   5.005   9.369 -0.4091  0.3198 -0.0748
   70SLPC  H10R 6028   2.825   4.906   9.326 -3.0804  0.4810  0.8554
   70SLPC  C211 6029   2.924   5.107   9.295  0.4623 -0.4233  0.6281
   70SLPC  H11R 6030   3.006   5.147   9.359  1.4872  0.6752 -1.3310
   70SLPC  H11S 6031   2.845   5.183   9.282  2.4848  1.6604  0.1326
   70SLPC  C212 6032   2.978   5.055   9.166  0.5762 -0.3417  0.8023
   70SLPC  H12R 6033   3.020   4.954   9.164  2.7143  0.5490 -0.5779
   70SLPC  C213 6034   2.968   5.125   9.051  0.0721 -0.3645 -0.0594
   70SLPC  H13R 6035   3.023   5.092   8.962  0.7237  1.5860 -0.4160
   70SLPC  C214 6036   2.911   5.258   9.024  0.4827  0.0484 -0.2444
   70SLPC  H14R 6037   2.815   5.284   9.075  0.0880 -0.1307 -0.9002
   70SLPC  H14S 6038   2.889   5.270   8.916 -4.0447 -1.5524  0.4123
   70SLPC  C215 6039   3.021   5.368   9.055  0.3395 -0.0773  0.4026
   70SLPC  H15R 6040   2.991   5.457   8.995 -0.5440 -1.0458 -0.6327
   70SLPC  H15S 6041   3.122   5.345   9.016 -0.6675 -1.9889 -1.2050
   70SLPC  C216 6042   3.044   5.400   9.208  0.7969  0.3818 -1.2632
   70SLPC  H16R 6043   3.102   5.321   9.261 -0.7935  0.5471  0.8139
   70SLPC  H16S 6044   2.949   5.425   9.260  0.4143  2.5180 -2.9434
   70SLPC  C217 6045   3.111   5.535   9.228  0.3886 -0.5159 -1.1645
   70SLPC  H17R 6046   3.097   5.563   9.334 -1.8470  1.1481 -1.8712
   70SLPC  H17S 6047   3.055   5.610   9.169  0.9667 -0.2280 -1.3522
   70SLPC  C218 6048   3.253   5.539   9.206  0.0975  0.0001 -0.1279
   70SLPC  H18R 6049   3.274   5.519   9.099 -0.6398 -0.7098 -0.1466
   70SLPC  H18S 6050   3.309   5.475   9.277 -0.6068  2.0415  2.3098
   70SLPC  H18T 6051   3.292   5.643   9.213  1.3723 -0.5508  1.3999
   70SLPC   C33 6052   2.486   5.289  10.192 -0.8138 -0.5252  0.3526
   70SLPC   H3X 6053   2.584   5.242  10.169 -1.0801 -0.3320 -1.2998
   70SLPC   H3Y 6054   2.498   5.396  10.220  1.9215 -0.6792 -0.0329
   70SLPC   C34 6055   2.414   5.306  10.060 -0.6943 -0.3749 -0.1128
   70SLPC   H4X 6056   2.488   5.335   9.983  0.7471  1.8898  2.0589
   70SLPC   H4Y 6057   2.355   5.400  10.059  0.8456  0.6056 -0.2232
   70SLPC   C35 6058   2.324   5.196  10.014 -0.1705 -0.1460 -0.1664
   70SLPC   H5X 6059   2.245   5.184  10.090  0.5327 -1.9210  0.2953
   70SLPC   H5Y 6060   2.370   5.096  10.004  1.1409  0.4158  0.0774
   70SLPC   C36 6061   2.264   5.233   9.876 -0.7765 -0.2025  0.9046
   70SLPC   H6X 6062   2.218   5.333   9.865  0.2120  0.3538  1.8150
   70SLPC   H6Y 6063   2.180   5.160   9.869 -1.9980  1.2997 -0.2977
   70SLPC   C37 6064   2.371   5.203   9.766 -0.3983  0.1108 -0.3501
   70SLPC   H7X 6065   2.440   5.119   9.787  2.1384  2.1984 -0.1138
   70SLPC   H7Y 6066   2.428   5.298   9.766  1.2372 -0.8498  0.3313
   70SLPC   C38 6067   2.320   5.183   9.625  0.0443  0.1504  0.8084
   70SLPC   H8X 6068   2.263   5.278   9.617 -0.4031 -0.3290 -2.4175
   70SLPC   H8Y 6069   2.248   5.099   9.615 -2.0504  1.8851  0.9100
   70SLPC   C39 6070   2.430   5.185   9.516 -0.9762 -0.0260  0.0574
   70SLPC   H9X 6071   2.499   5.098   9.527 -2.6553 -1.3703  0.1788
   70SLPC   H9Y 6072   2.496   5.274   9.531  0.5571 -1.0315 -0.5626
   70SLPC  C310 6073   2.365   5.178   9.380 -0.9566  0.2359 -0.4013
   70SLPC  H10X 6074   2.282   5.251   9.374  0.6802  2.0036 -2.2599
   70SLPC  H10Y 6075   2.326   5.077   9.356 -0.7059  0.0195  0.0902
   70SLPC  C311 6076   2.464   5.213   9.271  0.4402 -0.0235  0.3192
   70SLPC  H11X 6077   2.566   5.169   9.279  0.2115 -0.4216  1.0220
   70SLPC  H11Y 6078   2.497   5.319   9.270  3.0300 -0.7590 -2.4233
   70SLPC  C312 6079   2.403   5.180   9.134  0.1055  0.4614  0.8156
   70SLPC  H12X 6080   2.382   5.071   9.122 -2.7422  1.1034 -0.4757
   70SLPC  H12Y 6081   2.492   5.196   9.070 -0.8268  2.5102  0.0011
   70SLPC  C313 6082   2.280   5.262   9.094  0.3110 -0.2929  0.1324
   70SLPC  H13X 6083   2.305   5.369   9.111 -1.7524  0.2658 -0.1733
   70SLPC  H13Y 6084   2.190   5.238   9.154 -1.0647  2.0793 -0.9181
   70SLPC  C314 6085   2.242   5.233   8.948  0.0123 -0.1451 -0.1198
   70SLPC  H14X 6086   2.320   5.270   8.878  0.8874 -0.2029  0.7978
   70SLPC  H14Y 6087   2.142   5.277   8.930 -0.5517 -1.9986 -1.6193
   70SLPC  C315 6088   2.215   5.083   8.916 -0.2551 -0.0275 -0.0519
   70SLPC  H15X 6089   2.124   5.041   8.964  0.2854 -2.9942 -1.5173
   70SLPC  H15Y 6090   2.305   5.025   8.944 -0.5035 -0.6376 -0.5213
   70SLPC  C316 6091   2.185   5.066   8.768  0.2123 -0.2684 -0.2794
   70SLPC  H16X 6092   2.274   5.095   8.709  1.3795 -0.1054  1.5040
   70SLPC  H16Y 6093   2.111   5.144   8.737  0.6488 -0.4512 -1.8055
   70SLPC  C317 6094   2.130   4.925   8.734 -0.0109 -0.3133 -0.3475
   70SLPC  H17X 6095   2.115   4.929   8.624  0.5420 -1.6789 -0.4773
   70SLPC  H17Y 6096   2.032   4.899   8.779 -1.2468  1.9931 -1.5949
   70SLPC  C318 6097   2.220   4.806   8.761 -0.1240  0.1845  0.1188
   70SLPC  H18X 6098   2.239   4.801   8.871  0.1237  0.2692  0.0816
   70SLPC  H18Y 6099   2.319   4.818   8.713 -0.3262 -0.6061 -0.4905
   70SLPC  H18Z 6100   2.188   4.704   8.733  0.2770 -0.4749  1.9716
   71SLPC     N 6101   2.976   3.979  10.911 -0.0096  0.1178  0.1491
   71SLPC   C13 6102   3.016   3.837  10.935 -0.2443  0.1989  0.1810
   71SLPC  H13A 6103   3.097   3.808  10.870  1.4136 -1.6852  2.9348
   71SLPC  H13B 6104   3.043   3.819  11.038 -0.5011 -3.3794 -0.3124
   71SLPC  H13C 6105   2.931   3.775  10.909  0.4987 -0.0752 -1.6373
   71SLPC   C14 6106   3.084   4.059  10.962  0.0825 -0.7671 -0.2881
   71SLPC  H14A 6107   3.174   4.022  10.915  0.6187 -0.0144  0.1399
   71SLPC  H14B 6108   3.073   4.165  10.941 -3.1252 -0.5612  2.0505
   71SLPC  H14C 6109   3.102   4.040  11.067 -0.2523  2.3796  0.3995
   71SLPC   C15 6110   2.858   4.004  11.000  0.0606 -0.0162  0.3021
   71SLPC  H15A 6111   2.840   4.111  11.005 -0.5545 -0.0707 -0.5625
   71SLPC  H15B 6112   2.762   3.972  10.963 -0.4039  2.5119 -0.7942
   71SLPC  H15C 6113   2.865   3.966  11.101 -1.8952  2.0571  1.2704
   71SLPC   C12 6114   2.935   4.000  10.770 -0.1195 -0.2653 -0.6072
   71SLPC  H12A 6115   3.023   3.986  10.708  0.5214 -1.9153  0.6278
   71SLPC  H12B 6116   2.890   4.098  10.766 -2.0625 -1.0289  1.7303
   71SLPC   C11 6117   2.829   3.913  10.697 -1.0654 -0.0269 -0.1586
   71SLPC  H11A 6118   2.861   3.807  10.692 -0.9593  0.1314 -4.0686
   71SLPC  H11B 6119   2.822   3.956  10.595  0.0413  3.1195  1.0415
   71SLPC     P 6120   2.611   3.805  10.774  0.0735  0.0678  0.4952
   71SLPC   O13 6121   2.672   3.711  10.861 -0.1793  0.3874 -0.0863
   71SLPC   O14 6122   2.478   3.861  10.808  0.5720  0.9367  0.4258
   71SLPC   O12 6123   2.703   3.928  10.760 -0.2403  0.0819  0.3192
   71SLPC   O11 6124   2.610   3.755  10.626  0.0539  0.3833  0.1218
   71SLPC    C1 6125   2.587   3.838  10.513  0.3400 -0.2325  0.4047
   71SLPC    HA 6126   2.579   3.946  10.539 -1.4724 -0.3632  0.4266
   71SLPC    HB 6127   2.684   3.835  10.458 -0.4404 -0.4549 -0.9631
   71SLPC    C2 6128   2.452   3.796  10.444  0.1251  0.3336 -0.1110
   71SLPC    HS 6129   2.372   3.803  10.521  0.6472 -2.8091  0.7830
   71SLPC   O21 6130   2.449   3.661  10.392  0.0969  0.0808  0.2243
   71SLPC   C21 6131   2.331   3.603  10.382 -0.5675 -0.1441 -0.0483
   71SLPC   O22 6132   2.229   3.654  10.427 -0.8044  0.6869 -0.2272
   71SLPC   C22 6133   2.337   3.463  10.312  0.2007 -0.0078  0.2616
   71SLPC   H2R 6134   2.403   3.463  10.222  1.7350 -0.5328  1.3547
   71SLPC   H2S 6135   2.387   3.408  10.395  1.0362  1.3581  0.6880
   71SLPC    C3 6136   2.416   3.910  10.341  0.0275 -0.7178 -0.1514
   71SLPC    HX 6137   2.422   4.006  10.396  2.2759 -0.7999 -0.1989
   71SLPC    HY 6138   2.320   3.902  10.286  0.0936  0.9011 -0.5013
   71SLPC   O31 6139   2.529   3.904  10.239  0.2588  0.4910  0.3560
   71SLPC   C31 6140   2.541   4.024  10.178  0.2711  0.6012  1.1157
   71SLPC   O32 6141   2.475   4.119  10.204  0.1935  0.0396  0.2416
   71SLPC   C32 6142   2.639   4.023  10.052 -0.0612 -0.0818 -0.7216
   71SLPC   H2X 6143   2.698   3.931  10.075 -1.2239 -1.3681 -2.6992
   71SLPC   H2Y 6144   2.694   4.117  10.073  3.6072 -2.3301  0.2124
   71SLPC   C23 6145   2.196   3.416  10.273 -0.4674  0.2928 -0.5732
   71SLPC   H3R 6146   2.127   3.416  10.359  1.1910 -2.2469  0.8170
   71SLPC   H3S 6147   2.203   3.308  10.245 -2.1836 -0.5108  1.9598
   71SLPC   C24 6148   2.126   3.490  10.158 -0.9935 -0.3866 -0.1727
   71SLPC   H4R 6149   2.112   3.600  10.168  1.1787 -0.2371  1.3547
   71SLPC   H4S 6150   2.022   3.450  10.156  0.1756 -3.4781 -0.3325
   71SLPC   C25 6151   2.184   3.456  10.015 -0.4062 -0.1357  0.2315
   71SLPC   H5R 6152   2.178   3.345  10.019 -2.9973 -0.0015  0.4561
   71SLPC   H5S 6153   2.284   3.502   9.995 -1.0325  0.7040 -1.0472
   71SLPC   C26 6154   2.092   3.497   9.902  0.6575  0.6326 -0.4175
   71SLPC   H6R 6155   2.104   3.607   9.897  2.4076  0.3746 -2.3246
   71SLPC   H6S 6156   1.990   3.457   9.918  1.6913 -1.5073  1.0763
   71SLPC   C27 6157   2.151   3.434   9.773 -0.6782 -0.3909  0.4112
   71SLPC   H7R 6158   2.126   3.326   9.768  0.0073 -0.5658  0.6915
   71SLPC   H7S 6159   2.261   3.445   9.777 -0.8296  0.7925  1.5347
   71SLPC   C28 6160   2.085   3.489   9.646  0.4393  0.6762 -0.5025
   71SLPC   H8R 6161   1.975   3.480   9.646  0.5218 -0.7749  2.0574
   71SLPC   H8S 6162   2.111   3.414   9.569 -1.3140  2.3625 -2.7900
   71SLPC   C29 6163   2.134   3.631   9.613  0.3829 -0.1937 -0.5641
   71SLPC   H9R 6164   2.136   3.702   9.697 -0.2783 -0.9410  0.0965
   71SLPC  C210 6165   2.143   3.679   9.483  0.5692  0.0974  0.0645
   71SLPC  H10R 6166   2.182   3.780   9.465  1.2697  0.2190  2.1933
   71SLPC  C211 6167   2.108   3.599   9.355 -0.0013 -0.4584 -0.3390
   71SLPC  H11R 6168   2.001   3.588   9.328  0.5457 -0.5355 -2.5476
   71SLPC  H11S 6169   2.146   3.496   9.372 -0.1380 -0.5801 -0.7489
   71SLPC  C212 6170   2.168   3.667   9.234  0.4892 -0.3036 -0.4286
   71SLPC  H12R 6171   2.247   3.741   9.249 -0.2813  0.1301  1.6617
   71SLPC  C213 6172   2.142   3.653   9.102  1.6108 -0.5472 -0.1240
   71SLPC  H13R 6173   2.189   3.707   9.018  0.9640  1.2467  0.6385
   71SLPC  C214 6174   2.034   3.561   9.048 -0.1240  0.4509  0.0992
   71SLPC  H14R 6175   1.959   3.628   9.002 -0.6244 -0.7940 -0.8926
   71SLPC  H14S 6176   1.985   3.494   9.121  1.3465 -0.7743 -0.0127
   71SLPC  C215 6177   2.099   3.475   8.943 -0.2903  0.0853 -0.9881
   71SLPC  H15R 6178   2.200   3.441   8.974 -0.6404  2.0971  2.5922
   71SLPC  H15S 6179   2.123   3.543   8.858 -0.3692 -0.5521 -1.5329
   71SLPC  C216 6180   2.009   3.365   8.880  0.3351  0.3201 -0.2993
   71SLPC  H16R 6181   2.011   3.280   8.952  0.2940 -0.6624 -1.4401
   71SLPC  H16S 6182   2.058   3.317   8.792 -1.7081 -2.2921 -0.0738
   71SLPC  C217 6183   1.864   3.395   8.862  0.1533  0.1358  0.1906
   71SLPC  H17R 6184   1.848   3.459   8.773 -1.5498 -0.7648 -0.1772
   71SLPC  H17S 6185   1.828   3.455   8.948  0.0087  0.6290 -0.2074
   71SLPC  C218 6186   1.778   3.271   8.833 -0.0993  0.2285 -0.5547
   71SLPC  H18R 6187   1.801   3.201   8.916 -0.0871  1.2842  0.3525
   71SLPC  H18S 6188   1.807   3.215   8.742 -1.7553 -1.8151  0.1312
   71SLPC  H18T 6189   1.677   3.316   8.836  1.0501  2.9309 -0.3279
   71SLPC   C33 6190   2.563   4.015   9.915 -0.2139 -0.2694 -0.6376
   71SLPC   H3X 6191   2.510   4.113   9.907  0.9317  0.4269  0.1077
   71SLPC   H3Y 6192   2.495   3.928   9.909  1.3091 -1.5783  0.6054
   71SLPC   C34 6193   2.658   3.997   9.795 -0.0813 -0.5895 -0.6500
   71SLPC   H4X 6194   2.695   3.893   9.810 -0.9917 -1.1924 -2.3932
   71SLPC   H4Y 6195   2.737   4.076   9.795 -0.1724 -0.4975 -0.4973
   71SLPC   C35 6196   2.579   4.002   9.652 -0.1707 -0.2719  0.4494
   71SLPC   H5X 6197   2.549   4.108   9.634  0.5514 -0.1140  0.1801
   71SLPC   H5Y 6198   2.483   3.950   9.672  0.3568 -1.0244  1.0493
   71SLPC   C36 6199   2.655   3.947   9.534 -0.1097  0.1165 -0.1287
   71SLPC   H6X 6200   2.714   3.855   9.550 -2.2408 -0.8236  2.6293
   71SLPC   H6Y 6201   2.718   4.032   9.498 -0.8669  1.0633  0.7601
   71SLPC   C37 6202   2.560   3.919   9.425  0.0549  0.6434  0.1290
   71SLPC   H7X 6203   2.506   4.011   9.391 -2.0113  0.9414  3.9707
   71SLPC   H7Y 6204   2.483   3.848   9.460 -0.2062  0.3399 -1.0256
   71SLPC   C38 6205   2.628   3.861   9.302  0.0681  0.5530 -0.2181
   71SLPC   H8X 6206   2.704   3.788   9.338 -1.3055 -0.3826  0.8406
   71SLPC   H8Y 6207   2.688   3.941   9.254  0.7484 -0.5587 -1.2606
   71SLPC   C39 6208   2.524   3.795   9.216 -0.0148 -0.0011  0.1269
   71SLPC   H9X 6209   2.440   3.859   9.182 -2.5631 -2.8399  0.8523
   71SLPC   H9Y 6210   2.463   3.727   9.278  0.7611  1.0724  2.1249
   71SLPC  C310 6211   2.580   3.721   9.093 -0.0925  0.1267 -0.8669
   71SLPC  H10X 6212   2.499   3.667   9.039 -1.7596 -0.1821  1.8166
   71SLPC  H10Y 6213   2.659   3.649   9.124 -0.2993  0.5568  0.6974
   71SLPC  C311 6214   2.657   3.811   8.997 -0.5417 -0.0698 -0.3579
   71SLPC  H11X 6215   2.695   3.901   9.051 -0.7774 -0.9099  1.2447
   71SLPC  H11Y 6216   2.581   3.858   8.930 -0.5675 -1.2288 -1.1478
   71SLPC  C312 6217   2.790   3.755   8.941  0.0984 -0.0944  0.1730
   71SLPC  H12X 6218   2.777   3.664   8.878  0.4707 -0.6955  0.9616
   71SLPC  H12Y 6219   2.841   3.711   9.028  1.4440  1.0087 -0.0365
   71SLPC  C313 6220   2.888   3.860   8.881 -0.6256 -1.1377 -0.2397
   71SLPC  H13X 6221   2.973   3.796   8.851 -0.2464 -0.7376 -0.0412
   71SLPC  H13Y 6222   2.921   3.930   8.961 -0.4247  0.1931 -1.4639
   71SLPC  C314 6223   2.840   3.930   8.755  0.2697 -0.2978 -0.6202
   71SLPC  H14X 6224   2.920   3.996   8.717  1.3006 -0.1406  1.7863
   71SLPC  H14Y 6225   2.757   4.002   8.771  1.9890  2.0421 -1.8508
   71SLPC  C315 6226   2.790   3.832   8.650 -0.3782  0.6644 -0.7737
   71SLPC  H15X 6227   2.703   3.778   8.694 -1.1780  2.8178  0.3565
   71SLPC  H15Y 6228   2.867   3.759   8.618  1.6177  1.6698  1.6187
   71SLPC  C316 6229   2.747   3.910   8.524  0.9969 -0.0152 -0.7228
   71SLPC  H16X 6230   2.833   3.939   8.460  1.0774 -0.7273 -0.9364
   71SLPC  H16Y 6231   2.695   4.004   8.553 -0.3278 -2.4854  5.6180
   71SLPC  C317 6232   2.645   3.825   8.442  0.3063 -0.3512  0.9156
   71SLPC  H17X 6233   2.553   3.846   8.501 -0.6438 -0.1912 -0.5994
   71SLPC  H17Y 6234   2.683   3.721   8.451  0.2661 -0.2668  2.0793
   71SLPC  C318 6235   2.642   3.860   8.297  0.4433 -0.2894 -0.1816
   71SLPC  H18X 6236   2.636   3.969   8.276 -1.3412  0.5241  4.0041
   71SLPC  H18Y 6237   2.559   3.803   8.249  0.6220 -0.6232 -0.0959
   71SLPC  H18Z 6238   2.734   3.828   8.244 -1.2074 -2.0798 -2.0387
   72SLPC     N 6239   3.673   1.551  11.136  0.1215  0.0127 -0.0170
   72SLPC   C13 6240   3.575   1.448  11.067 -0.1639 -0.7698 -0.1094
   72SLPC  H13A 6241   3.541   1.493  10.975 -3.9202 -2.4712  0.3314
   72SLPC  H13B 6242   3.624   1.358  11.032 -1.1898 -1.6525  0.6937
   72SLPC  H13C 6243   3.487   1.414  11.119 -0.8871 -0.3618 -1.0442
   72SLPC   C14 6244   3.800   1.564  11.065  0.1793  0.7497  0.6749
   72SLPC  H14A 6245   3.781   1.600  10.965  2.0405  1.0238  0.4076
   72SLPC  H14B 6246   3.853   1.646  11.112  4.6058 -1.9108  0.5179
   72SLPC  H14C 6247   3.853   1.470  11.069  1.1713  1.3107  0.7274
   72SLPC   C15 6248   3.708   1.500  11.276  0.9025  0.8339 -0.4131
   72SLPC  H15A 6249   3.738   1.397  11.263 -2.4777 -0.5397  1.9681
   72SLPC  H15B 6250   3.787   1.554  11.325  2.5603 -0.0390 -2.0689
   72SLPC  H15C 6251   3.621   1.494  11.340 -0.1871  0.5441 -1.8871
   72SLPC   C12 6252   3.600   1.681  11.146  0.0727 -0.1519 -1.1066
   72SLPC  H12A 6253   3.618   1.708  11.249  0.7156 -1.4389 -0.8599
   72SLPC  H12B 6254   3.494   1.670  11.129 -0.6552  0.2809  2.7451
   72SLPC   C11 6255   3.646   1.791  11.053 -0.2439 -0.3152  0.1436
   72SLPC  H11A 6256   3.745   1.828  11.086 -0.3448  0.6448 -0.6108
   72SLPC  H11B 6257   3.582   1.881  11.066  1.6840  0.9278  1.2317
   72SLPC     P 6258   3.536   1.739  10.816 -0.2755 -0.1768 -0.5855
   72SLPC   O13 6259   3.589   1.706  10.683 -0.5750 -1.0943  0.1619
   72SLPC   O14 6260   3.437   1.640  10.870 -0.5323  0.4098 -0.1580
   72SLPC   O12 6261   3.650   1.754  10.918 -0.0010 -0.0016  0.6678
   72SLPC   O11 6262   3.477   1.885  10.814  0.2909 -0.1994 -0.4003
   72SLPC    C1 6263   3.334   1.896  10.812  0.0684 -0.8797  0.6292
   72SLPC    HA 6264   3.281   1.811  10.859 -0.8601 -1.4147 -1.3279
   72SLPC    HB 6265   3.309   1.988  10.869 -0.4005  0.8644 -2.2782
   72SLPC    C2 6266   3.275   1.925  10.668 -0.3396  0.5368 -0.1637
   72SLPC    HS 6267   3.166   1.932  10.688 -0.2945  0.5943  0.0608
   72SLPC   O21 6268   3.296   1.820  10.569  0.2641  0.1052 -0.1678
   72SLPC   C21 6269   3.233   1.710  10.593 -0.2797 -0.6631 -0.2951
   72SLPC   O22 6270   3.151   1.692  10.680 -0.2921 -0.4857 -0.2634
   72SLPC   C22 6271   3.285   1.607  10.485 -0.3863  0.4011  0.1544
   72SLPC   H2R 6272   3.389   1.572  10.504  0.8209  3.8065  0.1346
   72SLPC   H2S 6273   3.224   1.516  10.500  1.6476 -0.4414  3.6755
   72SLPC    C3 6274   3.334   2.060  10.619  0.6451  0.2956  0.5541
   72SLPC    HX 6275   3.444   2.045  10.618  0.5990 -0.0065  0.0660
   72SLPC    HY 6276   3.309   2.138  10.694 -0.5366 -0.3221  0.8124
   72SLPC   O31 6277   3.287   2.088  10.486  0.5965 -0.2025  0.6216
   72SLPC   C31 6278   3.360   2.051  10.382 -0.2461  0.2338 -0.6065
   72SLPC   O32 6279   3.467   1.998  10.378 -0.3493 -0.0072  0.5540
   72SLPC   C32 6280   3.282   2.107  10.251 -1.1890  1.2252  0.2093
   72SLPC   H2X 6281   3.347   2.190  10.218  0.0205  0.5490  0.8251
   72SLPC   H2Y 6282   3.187   2.147  10.292 -1.5600 -1.3657  2.0279
   72SLPC   C23 6283   3.291   1.665  10.346  0.1842  0.1853  0.1581
   72SLPC   H3R 6284   3.378   1.733  10.335 -1.4471  2.5828  1.4476
   72SLPC   H3S 6285   3.202   1.729  10.325  1.1976  1.4419 -0.3480
   72SLPC   C24 6286   3.309   1.546  10.247 -0.5056 -0.1080  0.2118
   72SLPC   H4R 6287   3.229   1.469  10.257 -0.0182 -0.7460 -0.7598
   72SLPC   H4S 6288   3.404   1.493  10.269 -0.5850  0.7365  2.8466
   72SLPC   C25 6289   3.300   1.601  10.105  0.3069 -0.0051 -0.0359
   72SLPC   H5R 6290   3.397   1.654  10.093 -0.6506  1.3191 -2.2793
   72SLPC   H5S 6291   3.216   1.673  10.116  0.6985  0.7981 -2.0918
   72SLPC   C26 6292   3.270   1.483  10.015 -0.4045  0.0473 -0.0222
   72SLPC   H6R 6293   3.176   1.429  10.040  0.3474 -2.6298 -2.7050
   72SLPC   H6S 6294   3.351   1.408  10.018 -0.6468 -0.2444 -0.7730
   72SLPC   C27 6295   3.248   1.516   9.869  0.0866 -0.4050 -0.5403
   72SLPC   H7R 6296   3.159   1.583   9.866 -1.1654 -2.0886 -1.2541
   72SLPC   H7S 6297   3.215   1.437   9.799  2.8275 -1.3555 -0.8274
   72SLPC   C28 6298   3.365   1.597   9.805  0.2137 -0.9016  1.0311
   72SLPC   H8R 6299   3.462   1.546   9.821  0.3780 -0.4025  1.6563
   72SLPC   H8S 6300   3.380   1.701   9.842 -0.8780  1.0203 -3.4876
   72SLPC   C29 6301   3.334   1.617   9.656 -0.5764 -0.7408 -0.1859
   72SLPC   H9R 6302   3.227   1.611   9.631 -0.5861  1.9784 -0.9431
   72SLPC  C210 6303   3.420   1.620   9.550 -0.5249 -0.3629 -0.4721
   72SLPC  H10R 6304   3.370   1.637   9.454 -0.0616  1.3921 -0.4155
   72SLPC  C211 6305   3.574   1.613   9.557 -0.2191 -0.3945 -0.6771
   72SLPC  H11R 6306   3.607   1.638   9.660 -0.4059 -0.0602 -0.6966
   72SLPC  H11S 6307   3.635   1.679   9.491  0.9432 -0.6556  0.1029
   72SLPC  C212 6308   3.605   1.470   9.531  0.5897  0.0128 -0.0908
   72SLPC  H12R 6309   3.539   1.389   9.568  0.5214  1.0867  2.2133
   72SLPC  C213 6310   3.717   1.425   9.463  0.0828  0.3398  0.2776
   72SLPC  H13R 6311   3.730   1.319   9.439  2.6759  1.1363 -2.0479
   72SLPC  C214 6312   3.832   1.509   9.401 -0.1163 -0.3649 -0.4484
   72SLPC  H14R 6313   3.924   1.523   9.462 -0.6590  3.2745 -0.3551
   72SLPC  H14S 6314   3.792   1.604   9.358 -0.9671  0.3286  1.8045
   72SLPC  C215 6315   3.890   1.432   9.280 -0.7377 -0.6114 -0.3066
   72SLPC  H15R 6316   3.822   1.426   9.193  2.4282 -1.1715 -2.8336
   72SLPC  H15S 6317   3.915   1.337   9.333  3.7862  0.8745  0.3899
   72SLPC  C216 6318   4.022   1.492   9.227  0.9022 -0.1624 -0.2569
   72SLPC  H16R 6319   4.095   1.502   9.310  0.1494  1.4551  0.2382
   72SLPC  H16S 6320   4.011   1.599   9.198 -1.6793 -0.7162 -1.4570
   72SLPC  C217 6321   4.073   1.424   9.098  0.6813  0.4585 -0.0639
   72SLPC  H17R 6322   3.991   1.394   9.029  0.2408  2.4810 -0.4512
   72SLPC  H17S 6323   4.126   1.331   9.127  0.6473  0.4482 -0.0332
   72SLPC  C218 6324   4.161   1.513   9.018 -0.3724  0.6778 -0.3255
   72SLPC  H18R 6325   4.264   1.522   9.060 -1.1412 -0.8354  1.9954
   72SLPC  H18S 6326   4.118   1.611   8.992  0.4758  0.7227 -1.6066
   72SLPC  H18T 6327   4.177   1.461   8.921  1.5181  2.0362 -0.7867
   72SLPC   C33 6328   3.260   2.001  10.143 -0.0265  0.1686  0.5124
   72SLPC   H3X 6329   3.179   2.031  10.073 -1.4154  0.0440  2.0499
   72SLPC   H3Y 6330   3.221   1.916  10.202  0.0913 -1.5185 -1.7778
   72SLPC   C34 6331   3.381   1.962  10.058  0.6973 -0.1336 -0.0899
   72SLPC   H4X 6332   3.353   1.866  10.010 -1.5316 -0.0212  0.9244
   72SLPC   H4Y 6333   3.465   1.939  10.127 -1.4383 -1.2316  2.2498
   72SLPC   C35 6334   3.434   2.068   9.957 -0.3697 -0.1213  0.1341
   72SLPC   H5X 6335   3.516   2.013   9.905 -0.5713 -1.5496  1.2733
   72SLPC   H5Y 6336   3.484   2.151  10.011 -0.4049 -0.2603  0.3800
   72SLPC   C36 6337   3.337   2.116   9.847 -0.5625 -0.0085 -0.2806
   72SLPC   H6X 6338   3.383   2.198   9.788 -0.2187 -0.1749 -0.2449
   72SLPC   H6Y 6339   3.235   2.142   9.883 -0.6111 -1.1398  0.4174
   72SLPC   C37 6340   3.313   2.010   9.736 -0.7287 -0.6039 -0.0972
   72SLPC   H7X 6341   3.285   1.907   9.767 -2.2453 -0.6438 -1.5263
   72SLPC   H7Y 6342   3.409   2.005   9.681 -1.1150  0.5014 -0.8947
   72SLPC   C38 6343   3.208   2.059   9.638 -0.9916 -0.2244  0.3297
   72SLPC   H8X 6344   3.196   2.169   9.627  1.7460  0.1221  0.4526
   72SLPC   H8Y 6345   3.107   2.015   9.654 -1.9659  1.6130 -0.6511
   72SLPC   C39 6346   3.245   2.016   9.495  1.3385 -0.5433  0.1747
   72SLPC   H9X 6347   3.235   1.905   9.494 -1.2893 -0.3536 -2.3035
   72SLPC   H9Y 6348   3.342   2.057   9.462 -0.2564  1.4036 -2.2035
   72SLPC  C310 6349   3.139   2.058   9.383  0.1406 -0.3235 -1.0272
   72SLPC  H10X 6350   3.106   2.163   9.396 -1.2694 -0.4810 -3.0331
   72SLPC  H10Y 6351   3.066   1.975   9.374  0.0283 -0.1525 -1.7868
   72SLPC  C311 6352   3.205   2.070   9.239 -0.0010  0.2733 -0.0758
   72SLPC  H11X 6353   3.283   1.993   9.216 -0.1583  0.8095 -2.5188
   72SLPC  H11Y 6354   3.266   2.163   9.241  1.5168 -0.6798 -0.7469
   72SLPC  C312 6355   3.107   2.077   9.119 -0.2439  0.2933  0.1084
   72SLPC  H12X 6356   3.129   2.155   9.043 -0.0844  0.0716 -0.0745
   72SLPC  H12Y 6357   3.002   2.085   9.156  0.4703 -0.5336  2.3424
   72SLPC  C313 6358   3.116   1.949   9.034 -0.5816  0.7867 -0.6133
   72SLPC  H13X 6359   3.092   1.855   9.088  0.6419  0.5128 -0.5437
   72SLPC  H13Y 6360   3.222   1.944   9.002 -0.1942 -1.1995  0.9189
   72SLPC  C314 6361   3.020   1.974   8.914 -0.7439  0.2287  0.2220
   72SLPC  H14X 6362   3.042   2.078   8.881 -2.0969  0.1601 -0.9828
   72SLPC  H14Y 6363   2.915   1.957   8.948 -1.4657  1.4962 -1.2748
   72SLPC  C315 6364   3.047   1.883   8.793 -0.0322  0.7486 -0.4201
   72SLPC  H15X 6365   3.153   1.887   8.763 -0.0146 -0.3390 -0.5439
   72SLPC  H15Y 6366   2.981   1.909   8.708 -1.5746 -1.5313  0.0164
   72SLPC  C316 6367   3.030   1.727   8.817 -0.1938  0.1046  0.4510
   72SLPC  H16X 6368   2.943   1.704   8.882  0.2404  0.1981  1.0772
   72SLPC  H16Y 6369   3.120   1.684   8.867 -1.5245 -2.8854  0.4012
   72SLPC  C317 6370   3.024   1.658   8.680  0.0541 -0.4618 -0.1056
   72SLPC  H17X 6371   3.116   1.684   8.622 -0.3893 -0.3821 -0.7820
   72SLPC  H17Y 6372   2.940   1.692   8.615  0.4242  0.0462 -0.3235
   72SLPC  C318 6373   3.016   1.511   8.707  0.4497 -0.1039  0.3159
   72SLPC  H18X 6374   2.925   1.485   8.766 -1.1351  0.3094 -1.8964
   72SLPC  H18Y 6375   3.096   1.478   8.778 -1.1546 -0.3633  2.0527
   72SLPC  H18Z 6376   3.004   1.450   8.615 -2.2989  0.6458  0.1510
   73SLPC     N 6377   2.578   0.860  11.116  0.3119  0.8105 -0.4647
   73SLPC   C13 6378   2.633   0.993  11.086 -0.3862 -0.3411 -0.1232
   73SLPC  H13A 6379   2.683   0.993  10.990 -0.4801  0.8264 -0.1791
   73SLPC  H13B 6380   2.567   1.078  11.083  1.5507  1.2264  0.5908
   73SLPC  H13C 6381   2.715   1.019  11.152 -0.2094 -2.4406  0.5330
   73SLPC   C14 6382   2.509   0.868  11.250  0.2413  0.0665  0.0351
   73SLPC  H14A 6383   2.467   0.770  11.270 -2.3670  1.1115 -0.0510
   73SLPC  H14B 6384   2.581   0.890  11.327  1.4218  1.5748 -1.4681
   73SLPC  H14C 6385   2.436   0.948  11.249  0.4680  0.3018 -2.9156
   73SLPC   C15 6386   2.691   0.757  11.113 -0.1929  0.1601 -0.2461
   73SLPC  H15A 6387   2.765   0.786  11.186  0.8525 -1.4576 -0.6442
   73SLPC  H15B 6388   2.659   0.659  11.146  2.9732  0.4425  4.0165
   73SLPC  H15C 6389   2.729   0.749  11.012 -1.6777  2.1166 -0.9907
   73SLPC   C12 6390   2.480   0.831  11.006  0.5782 -0.0605 -0.0473
   73SLPC  H12A 6391   2.399   0.902  11.005 -0.5610 -1.3220  0.7566
   73SLPC  H12B 6392   2.452   0.727  11.015 -0.4854  0.2247  0.0215
   73SLPC   C11 6393   2.530   0.824  10.857  0.4554 -0.5876  0.5261
   73SLPC  H11A 6394   2.605   0.903  10.835 -0.2859 -0.1838 -0.5645
   73SLPC  H11B 6395   2.439   0.829  10.793  0.7782 -0.1381  0.1037
   73SLPC     P 6396   2.522   0.591  10.754 -0.8421 -0.1645 -0.2944
   73SLPC   O13 6397   2.615   0.474  10.743  0.4115 -0.0941  0.3525
   73SLPC   O14 6398   2.402   0.556  10.834  0.6358  0.2150 -0.0199
   73SLPC   O12 6399   2.599   0.704  10.824 -0.2720 -0.5397  0.3519
   73SLPC   O11 6400   2.488   0.645  10.613 -0.1238 -0.4905 -0.8016
   73SLPC    C1 6401   2.575   0.743  10.555  0.9776  0.5300 -0.3578
   73SLPC    HA 6402   2.523   0.841  10.551 -1.9098 -1.0107 -2.5275
   73SLPC    HB 6403   2.674   0.756  10.604  1.1332 -1.1063 -0.1983
   73SLPC    C2 6404   2.593   0.693  10.405  0.1069 -0.3042  0.7797
   73SLPC    HS 6405   2.642   0.770  10.343 -0.6009  0.3562  1.0452
   73SLPC   O21 6406   2.469   0.653  10.334  0.3626  0.2269 -0.6098
   73SLPC   C21 6407   2.467   0.652  10.202 -0.9146 -0.8451  0.2031
   73SLPC   O22 6408   2.569   0.662  10.131 -0.1422  0.0863 -0.3654
   73SLPC   C22 6409   2.324   0.624  10.149  0.9073  0.2101  0.6181
   73SLPC   H2R 6410   2.276   0.549  10.216  0.1713  0.8446  0.8023
   73SLPC   H2S 6411   2.274   0.721  10.165 -3.5355 -1.7222 -0.9451
   73SLPC    C3 6412   2.688   0.568  10.416  0.3518 -0.0612 -0.9484
   73SLPC    HX 6413   2.641   0.481  10.467  3.3003 -0.3960  1.3201
   73SLPC    HY 6414   2.774   0.606  10.477 -0.5604 -0.0525  0.3508
   73SLPC   O31 6415   2.738   0.504  10.293 -0.0447  0.1701  0.3762
   73SLPC   C31 6416   2.844   0.561  10.244  0.5770  0.7903  0.3509
   73SLPC   O32 6417   2.909   0.655  10.286  0.0539 -0.1740 -0.3050
   73SLPC   C32 6418   2.879   0.493  10.107 -0.3112 -0.3736  0.5278
   73SLPC   H2X 6419   2.785   0.452  10.065 -2.4420 -0.1648  4.8069
   73SLPC   H2Y 6420   2.959   0.416  10.118  0.7866  0.6122 -0.4750
   73SLPC   C23 6421   2.307   0.597   9.997 -0.3752 -0.4989 -0.4236
   73SLPC   H3R 6422   2.371   0.674   9.949 -0.4112 -0.6727 -0.7527
   73SLPC   H3S 6423   2.204   0.628   9.968  0.1077  1.4026 -0.2137
   73SLPC   C24 6424   2.355   0.459   9.967  0.8736  0.0709  0.5011
   73SLPC   H4R 6425   2.283   0.400  10.027  0.6783 -1.3070 -1.0642
   73SLPC   H4S 6426   2.462   0.443   9.990  0.9689  1.7576  1.3306
   73SLPC   C25 6427   2.333   0.426   9.819 -0.1840  0.0811 -0.0663
   73SLPC   H5R 6428   2.225   0.412   9.794  0.0440  0.4047 -1.2952
   73SLPC   H5S 6429   2.370   0.322   9.808  0.0292  0.2528 -1.0455
   73SLPC   C26 6430   2.408   0.511   9.722 -0.3514 -0.2240  0.4540
   73SLPC   H6R 6431   2.394   0.621   9.710 -0.4384 -0.2863 -0.0008
   73SLPC   H6S 6432   2.383   0.478   9.619  0.5820 -2.3503  0.8986
   73SLPC   C27 6433   2.563   0.498   9.733  0.4411  0.8817  0.0522
   73SLPC   H7R 6434   2.583   0.409   9.797  0.4685  0.1675 -0.9304
   73SLPC   H7S 6435   2.590   0.591   9.788 -0.0125 -0.0529  1.9155
   73SLPC   C28 6436   2.645   0.505   9.601  0.0151  0.2776 -0.5062
   73SLPC   H8R 6437   2.746   0.526   9.640  0.1873  0.6155 -1.1267
   73SLPC   H8S 6438   2.600   0.589   9.545  0.1029  1.0556  0.5733
   73SLPC   C29 6439   2.643   0.380   9.512  0.3511 -0.1266  0.0447
   73SLPC   H9R 6440   2.628   0.289   9.573  0.7388  0.9441  1.7548
   73SLPC  C210 6441   2.673   0.383   9.382  0.1984 -0.7699  0.1027
   73SLPC  H10R 6442   2.683   0.291   9.322  0.8824 -0.6264 -0.0163
   73SLPC  C211 6443   2.701   0.517   9.317  1.2811 -0.3977 -0.3566
   73SLPC  H11R 6444   2.742   0.595   9.385 -0.4100  1.3951 -1.3590
   73SLPC  H11S 6445   2.606   0.569   9.292  1.7902  1.7829  1.9423
   73SLPC  C212 6446   2.786   0.499   9.193 -0.0655 -0.1929  0.0707
   73SLPC  H12R 6447   2.843   0.405   9.187 -0.4745 -0.4755  0.5692
   73SLPC  C213 6448   2.803   0.589   9.099 -0.2657  0.2226 -0.8132
   73SLPC  H13R 6449   2.866   0.564   9.013 -0.4291  0.9845 -1.1611
   73SLPC  C214 6450   2.748   0.734   9.096 -0.3973  0.0951  0.1424
   73SLPC  H14R 6451   2.826   0.805   9.132  0.1884  0.2566 -1.4374
   73SLPC  H14S 6452   2.665   0.736   9.170 -1.0079 -0.8876 -0.5214
   73SLPC  C215 6453   2.705   0.766   8.954 -1.0311  0.4314 -0.1548
   73SLPC  H15R 6454   2.624   0.842   8.947 -0.6509  0.7537 -1.0565
   73SLPC  H15S 6455   2.650   0.679   8.912  0.7965 -0.6644 -0.3408
   73SLPC  C216 6456   2.822   0.797   8.865 -0.3306  0.1940  0.7337
   73SLPC  H16R 6457   2.901   0.722   8.885  0.3884  0.7894  0.1594
   73SLPC  H16S 6458   2.880   0.884   8.904  1.7229 -1.0734  0.6261
   73SLPC  C217 6459   2.779   0.800   8.723  0.3684  0.0334  0.0308
   73SLPC  H17R 6460   2.696   0.872   8.710 -0.7572 -1.0826  1.0038
   73SLPC  H17S 6461   2.747   0.697   8.696  2.5267 -0.6354 -0.0721
   73SLPC  C218 6462   2.867   0.835   8.613  0.1436 -0.0673 -0.1571
   73SLPC  H18R 6463   2.813   0.843   8.515  0.9665  1.2187 -0.5240
   73SLPC  H18S 6464   2.949   0.761   8.603  0.5497  0.4023 -0.3253
   73SLPC  H18T 6465   2.903   0.939   8.629 -1.2520  0.3602  0.3031
   73SLPC   C33 6466   2.947   0.587  10.006 -0.2063  0.2129  0.7012
   73SLPC   H3X 6467   3.034   0.640  10.051  0.7843 -0.1308 -0.7795
   73SLPC   H3Y 6468   2.877   0.668   9.975  0.5084 -0.2091 -2.1713
   73SLPC   C34 6469   2.994   0.514   9.886  0.4533  0.2362  0.8622
   73SLPC   H4X 6470   2.901   0.488   9.831  1.9119 -0.5955 -1.2796
   73SLPC   H4Y 6471   3.055   0.422   9.895  0.1180  0.0006  0.7400
   73SLPC   C35 6472   3.071   0.595   9.782 -0.0368 -0.3544  0.7256
   73SLPC   H5X 6473   3.177   0.609   9.813  0.0212  1.4925 -0.2125
   73SLPC   H5Y 6474   3.022   0.693   9.762 -1.4483 -1.5177 -1.7116
   73SLPC   C36 6475   3.071   0.528   9.645 -0.1294 -0.2725 -0.3046
   73SLPC   H6X 6476   2.974   0.543   9.593  0.5574 -1.5846 -2.0041
   73SLPC   H6Y 6477   3.092   0.419   9.656 -0.2696 -0.5098 -2.2349
   73SLPC   C37 6478   3.176   0.584   9.551  0.0485 -0.0799 -0.0625
   73SLPC   H7X 6479   3.276   0.584   9.599 -0.6083  0.4705  1.3420
   73SLPC   H7Y 6480   3.146   0.690   9.539  2.0119  0.4192 -0.6860
   73SLPC   C38 6481   3.171   0.517   9.410 -0.9352 -0.1046  0.0021
   73SLPC   H8X 6482   3.064   0.503   9.386 -1.2846  1.1461  0.7870
   73SLPC   H8Y 6483   3.205   0.416   9.441 -0.5705 -0.2671 -0.9053
   73SLPC   C39 6484   3.264   0.573   9.297 -0.3776 -0.5671 -0.4984
   73SLPC   H9X 6485   3.367   0.572   9.339 -0.8490 -0.8175  0.6757
   73SLPC   H9Y 6486   3.237   0.673   9.257 -0.8335  0.2693  1.8245
   73SLPC  C310 6487   3.278   0.479   9.181  0.8356  0.0611  0.3215
   73SLPC  H10X 6488   3.286   0.387   9.242 -1.4622 -0.6196 -0.3524
   73SLPC  H10Y 6489   3.376   0.502   9.132 -0.3683  2.9192 -0.8726
   73SLPC  C311 6490   3.169   0.492   9.084 -0.2636 -0.4108  0.1343
   73SLPC  H11X 6491   3.190   0.584   9.027  1.0834 -0.0290  1.2271
   73SLPC  H11Y 6492   3.071   0.509   9.134  0.0211 -0.3512  0.6739
   73SLPC  C312 6493   3.167   0.374   8.979 -0.4833  0.2137 -0.3800
   73SLPC  H12X 6494   3.136   0.278   9.025 -0.6452  0.9983  1.1790
   73SLPC  H12Y 6495   3.273   0.363   8.947 -1.1305  0.9704 -2.9416
   73SLPC  C313 6496   3.075   0.392   8.856  0.2930 -0.4516 -0.5855
   73SLPC  H13X 6497   3.062   0.501   8.837 -0.3963 -0.6884 -1.4471
   73SLPC  H13Y 6498   2.971   0.358   8.874  0.0302  1.1639  1.0750
   73SLPC  C314 6499   3.143   0.325   8.733  0.7768 -0.6350 -0.3141
   73SLPC  H14X 6500   3.139   0.217   8.756 -2.1140 -0.9447 -1.9642
   73SLPC  H14Y 6501   3.245   0.364   8.715  1.2570 -2.1951 -1.0889
   73SLPC  C315 6502   3.055   0.337   8.606 -0.4276 -0.2273  0.3527
   73SLPC  H15X 6503   2.948   0.327   8.632 -0.4371  1.0580  0.8492
   73SLPC  H15Y 6504   3.095   0.261   8.536  3.3461 -0.4468  2.6508
   73SLPC  C316 6505   3.052   0.476   8.541 -0.8139 -0.5991 -0.2505
   73SLPC  H16X 6506   3.153   0.519   8.556 -0.1854 -2.3698  0.7310
   73SLPC  H16Y 6507   2.980   0.538   8.599  0.7771 -0.4297  1.5806
   73SLPC  C317 6508   3.028   0.485   8.388 -0.1430 -1.3968  0.0173
   73SLPC  H17X 6509   3.039   0.592   8.360 -0.4968 -1.6268 -1.0094
   73SLPC  H17Y 6510   2.920   0.467   8.369 -0.5635  0.2372  0.7575
   73SLPC  C318 6511   3.113   0.394   8.301 -1.3956 -0.1066  0.0822
   73SLPC  H18X 6512   3.206   0.373   8.357 -0.1177 -2.1431 -2.7091
   73SLPC  H18Y 6513   3.143   0.442   8.205  0.2454 -1.8411 -0.2904
   73SLPC  H18Z 6514   3.065   0.294   8.290  2.1205 -1.8021 -0.2734
   74SLPC     N 6515   4.387   2.373  10.565 -0.0292  0.0717  0.1293
   74SLPC   C13 6516   4.320   2.333  10.438 -0.3680 -0.1384 -0.0027
   74SLPC  H13A 6517   4.388   2.335  10.354 -1.1645 -0.7813 -0.6694
   74SLPC  H13B 6518   4.280   2.233  10.445  1.3025 -0.9489 -1.6166
   74SLPC  H13C 6519   4.236   2.398  10.419  0.8806  0.6240 -3.2323
   74SLPC   C14 6520   4.282   2.374  10.673 -0.5937 -0.2710 -0.6104
   74SLPC  H14A 6521   4.246   2.274  10.688 -1.1792  0.1971  1.1498
   74SLPC  H14B 6522   4.308   2.416  10.769  0.1089 -3.2742  0.5702
   74SLPC  H14C 6523   4.197   2.431  10.640  0.0540  0.9690 -0.1770
   74SLPC   C15 6524   4.437   2.514  10.540 -0.7236  0.3289  0.1263
   74SLPC  H15A 6525   4.491   2.564  10.619  0.2432 -0.2696 -0.1463
   74SLPC  H15B 6526   4.496   2.511  10.450  1.2483  0.1209  1.4137
   74SLPC  H15C 6527   4.354   2.583  10.530 -2.0691 -0.9637  1.8427
   74SLPC   C12 6528   4.493   2.276  10.592  0.4321  0.0667 -0.2862
   74SLPC  H12A 6529   4.448   2.180  10.613  0.5466 -0.1262 -0.9082
   74SLPC  H12B 6530   4.551   2.310  10.677  0.3149  0.8221 -0.5026
   74SLPC   C11 6531   4.595   2.252  10.476  1.0206 -0.0073 -0.1811
   74SLPC  H11A 6532   4.535   2.238  10.384 -2.3933 -0.9094  2.0948
   74SLPC  H11B 6533   4.665   2.167  10.491  0.4024 -0.3732  0.6263
   74SLPC     P 6534   4.803   2.412  10.530  0.0939  0.2368  0.0072
   74SLPC   O13 6535   4.762   2.447  10.667  0.0994 -0.1696 -0.2021
   74SLPC   O14 6536   4.898   2.300  10.515 -0.2953 -0.6610  0.0807
   74SLPC   O12 6537   4.674   2.366  10.455  0.4106  0.2590 -0.0455
   74SLPC   O11 6538   4.856   2.541  10.454 -0.5559 -0.1874  0.5918
   74SLPC    C1 6539   4.810   2.571  10.321 -0.0513  0.3052  0.2464
   74SLPC    HA 6540   4.701   2.587  10.316 -0.2994 -1.7190 -1.1106
   74SLPC    HB 6541   4.852   2.672  10.301  0.5593  0.6248  2.8988
   74SLPC    C2 6542   4.865   2.480  10.209 -0.6679 -0.2434 -0.0879
   74SLPC    HS 6543   4.841   2.525  10.110  1.5470  0.7567 -0.2102
   74SLPC   O21 6544   4.813   2.347  10.215  0.6629  0.2356 -0.2523
   74SLPC   C21 6545   4.700   2.319  10.151  0.0089 -0.4662 -0.2632
   74SLPC   O22 6546   4.626   2.405  10.106 -0.5551 -0.4889 -0.0007
   74SLPC   C22 6547   4.685   2.170  10.133  0.5958 -0.6707 -0.0087
   74SLPC   H2R 6548   4.700   2.129  10.235  0.2902  3.4146  1.7415
   74SLPC   H2S 6549   4.580   2.150  10.102 -0.7423 -0.0911  3.9008
   74SLPC    C3 6550   5.018   2.466  10.232 -0.2927  0.4553 -0.5205
   74SLPC    HX 6551   5.025   2.382  10.305  2.0518 -0.1808 -1.4126
   74SLPC    HY 6552   5.062   2.548  10.293 -3.0499  0.5116  1.4427
   74SLPC   O31 6553   5.098   2.438  10.112  0.0289  0.0527  0.4458
   74SLPC   C31 6554   5.145   2.311  10.101  0.3297 -0.9126 -0.2901
   74SLPC   O32 6555   5.132   2.229  10.193 -0.2829  0.1945 -0.0493
   74SLPC   C32 6556   5.185   2.290   9.956  1.0493  0.1843  0.5504
   74SLPC   H2X 6557   5.249   2.374   9.919  2.1673 -1.0580 -0.3792
   74SLPC   H2Y 6558   5.091   2.290   9.897  3.0323 -1.9701 -2.7787
   74SLPC   C23 6559   4.786   2.122  10.030 -0.7975  0.3828  0.2472
   74SLPC   H3R 6560   4.780   2.012  10.013  0.6709  0.4412 -0.7483
   74SLPC   H3S 6561   4.886   2.131  10.076 -0.9024  0.6954  0.4140
   74SLPC   C24 6562   4.767   2.185   9.897  0.2856 -0.1621  0.7969
   74SLPC   H4R 6563   4.827   2.278   9.904 -1.6160  1.2754 -1.3743
   74SLPC   H4S 6564   4.665   2.226   9.882  0.3398 -0.8254 -1.4907
   74SLPC   C25 6565   4.809   2.104   9.769  0.1326 -0.1561  0.6170
   74SLPC   H5R 6566   4.750   2.010   9.778  0.1700 -0.0851  1.6898
   74SLPC   H5S 6567   4.917   2.079   9.780  0.1268 -0.4676 -0.0129
   74SLPC   C26 6568   4.772   2.168   9.637  0.3669  0.2394 -0.6694
   74SLPC   H6R 6569   4.812   2.269   9.614  0.5030  0.2178 -0.5322
   74SLPC   H6S 6570   4.663   2.182   9.625 -0.0993 -2.5187  0.0583
   74SLPC   C27 6571   4.821   2.079   9.523  0.4656  0.0965  0.7477
   74SLPC   H7R 6572   4.779   1.977   9.530 -1.3009  0.6940 -0.8559
   74SLPC   H7S 6573   4.931   2.067   9.533  0.3706 -0.7774  0.7481
   74SLPC   C28 6574   4.791   2.136   9.382  0.3972  0.9030 -1.1035
   74SLPC   H8R 6575   4.819   2.242   9.397  2.9577  0.1826 -0.6428
   74SLPC   H8S 6576   4.681   2.137   9.367 -0.1678  2.0704  2.5393
   74SLPC   C29 6577   4.863   2.061   9.273  0.2817 -0.5940 -0.2926
   74SLPC   H9R 6578   4.951   2.006   9.308 -0.1188 -1.0980 -0.0697
   74SLPC  C210 6579   4.821   2.054   9.146 -0.5362 -0.4488 -0.7516
   74SLPC  H10R 6580   4.884   1.996   9.077  1.2941 -0.5978  0.9944
   74SLPC  C211 6581   4.705   2.127   9.094 -0.2282  0.3037  0.3317
   74SLPC  H11R 6582   4.703   2.233   9.128  0.6161  0.3190  0.3408
   74SLPC  H11S 6583   4.618   2.076   9.140  0.0156 -0.0415  0.4137
   74SLPC  C212 6584   4.690   2.130   8.948 -0.1387 -0.4850 -0.4091
   74SLPC  H12R 6585   4.715   2.227   8.903  0.1775 -1.0320 -1.4350
   74SLPC  C213 6586   4.622   2.043   8.870  0.0435 -0.3407  0.3865
   74SLPC  H13R 6587   4.629   2.069   8.763  0.4619  2.0254  0.9479
   74SLPC  C214 6588   4.569   1.904   8.915  0.4436 -0.5162  0.5040
   74SLPC  H14R 6589   4.461   1.912   8.944 -0.1656  1.6068 -2.1613
   74SLPC  H14S 6590   4.616   1.864   9.007  1.1581  0.1157  0.4173
   74SLPC  C215 6591   4.573   1.794   8.809 -0.4006 -0.2871 -0.6333
   74SLPC  H15R 6592   4.501   1.829   8.732 -1.3936 -1.3752 -0.2240
   74SLPC  H15S 6593   4.529   1.699   8.846 -1.0964 -0.3752 -1.6707
   74SLPC  C216 6594   4.716   1.760   8.762  0.2792  0.3548 -0.9014
   74SLPC  H16R 6595   4.783   1.747   8.850 -0.4416  0.7817 -0.2852
   74SLPC  H16S 6596   4.756   1.848   8.708  1.5555 -0.5298 -1.4344
   74SLPC  C217 6597   4.727   1.635   8.665 -0.7729  0.0956  0.6589
   74SLPC  H17R 6598   4.831   1.641   8.628  0.1411 -0.4449  3.1119
   74SLPC  H17S 6599   4.665   1.656   8.575 -0.1361  0.6274  0.3364
   74SLPC  C218 6600   4.702   1.496   8.717  0.4176  0.3570 -0.0970
   74SLPC  H18R 6601   4.600   1.491   8.761  0.0276  0.3830 -0.9732
   74SLPC  H18S 6602   4.782   1.464   8.787  0.5189 -0.7755 -0.7205
   74SLPC  H18T 6603   4.712   1.422   8.635  0.7862  0.0093  0.2612
   74SLPC   C33 6604   5.257   2.160   9.951 -0.0950 -0.5052 -0.7691
   74SLPC   H3X 6605   5.207   2.067   9.985  0.5041 -0.3938  0.4265
   74SLPC   H3Y 6606   5.343   2.173  10.021 -0.1142  0.3142 -0.8856
   74SLPC   C34 6607   5.323   2.140   9.813  0.1456 -0.1007 -0.1915
   74SLPC   H4X 6608   5.382   2.045   9.814 -0.8361 -0.7319 -0.7413
   74SLPC   H4Y 6609   5.379   2.233   9.789  0.9884 -0.1776  1.3763
   74SLPC   C35 6610   5.220   2.115   9.701 -0.4628 -0.4206 -0.7155
   74SLPC   H5X 6611   5.147   2.198   9.706 -1.5657 -1.2853 -2.1340
   74SLPC   H5Y 6612   5.163   2.022   9.722 -2.1887  0.5156 -1.1205
   74SLPC   C36 6613   5.279   2.104   9.562 -0.0052 -0.3736 -0.3424
   74SLPC   H6X 6614   5.346   2.016   9.551  2.5965  1.7654 -2.3940
   74SLPC   H6Y 6615   5.339   2.196   9.546 -1.7515  0.7279 -0.6113
   74SLPC   C37 6616   5.178   2.108   9.448 -0.3361  0.1706 -0.2033
   74SLPC   H7X 6617   5.115   2.198   9.459  0.6606  0.7268  1.0828
   74SLPC   H7Y 6618   5.114   2.017   9.452  2.4902 -1.9450 -1.4733
   74SLPC   C38 6619   5.243   2.122   9.303  0.0857  0.9493  0.4245
   74SLPC   H8X 6620   5.308   2.212   9.292 -0.1578  1.0313 -0.3305
   74SLPC   H8Y 6621   5.159   2.135   9.231  0.3988  0.7552  0.0238
   74SLPC   C39 6622   5.318   1.999   9.264 -0.0316  0.1390  0.7148
   74SLPC   H9X 6623   5.252   1.910   9.273  0.2301  0.0665  1.9342
   74SLPC   H9Y 6624   5.395   1.976   9.341  0.1505 -1.3407  0.1251
   74SLPC  C310 6625   5.383   2.005   9.123 -0.7445  0.4370  0.3942
   74SLPC  H10X 6626   5.451   1.919   9.109  0.0749  1.0295  0.6647
   74SLPC  H10Y 6627   5.449   2.093   9.106  0.0298  0.3907  2.9177
   74SLPC  C311 6628   5.276   2.010   9.012  0.3895 -0.3022 -0.7299
   74SLPC  H11X 6629   5.214   2.094   9.048  0.5245  0.6114 -2.5746
   74SLPC  H11Y 6630   5.209   1.921   9.009  0.6057 -0.5565  1.3994
   74SLPC  C312 6631   5.345   2.036   8.878 -0.0145  0.0511 -0.1840
   74SLPC  H12X 6632   5.444   2.083   8.894  1.1881 -2.9392  1.4761
   74SLPC  H12Y 6633   5.270   2.094   8.821  1.4114  2.5112  0.3847
   74SLPC  C313 6634   5.374   1.906   8.802 -0.2465  0.7240 -0.1937
   74SLPC  H13X 6635   5.288   1.837   8.817  1.2229 -1.1714 -0.3530
   74SLPC  H13Y 6636   5.455   1.856   8.858 -1.9380 -1.2716  0.5542
   74SLPC  C314 6637   5.399   1.915   8.655  0.2492  0.4213  0.6290
   74SLPC  H14X 6638   5.430   1.817   8.611  0.6335 -0.1019  2.0496
   74SLPC  H14Y 6639   5.486   1.984   8.652  1.4324 -1.1026 -1.1091
   74SLPC  C315 6640   5.296   1.997   8.565  0.1995  0.0718  0.2308
   74SLPC  H15X 6641   5.327   1.999   8.459  2.5319 -0.7544  0.8515
   74SLPC  H15Y 6642   5.274   2.097   8.608  0.9093  0.1738  0.3623
   74SLPC  C316 6643   5.152   1.933   8.559  0.2444  0.4226  0.1755
   74SLPC  H16X 6644   5.115   1.924   8.663 -1.1151  2.1420 -0.1260
   74SLPC  H16Y 6645   5.169   1.830   8.522 -1.6489  0.0420  0.3435
   74SLPC  C317 6646   5.053   2.014   8.477 -0.6074 -0.0607  0.0163
   74SLPC  H17X 6647   5.107   2.058   8.390  0.1049  1.0423  1.0073
   74SLPC  H17Y 6648   5.005   2.084   8.548  1.7276 -1.1754  2.8088
   74SLPC  C318 6649   4.939   1.930   8.421 -0.5346 -0.1927  0.6671
   74SLPC  H18X 6650   4.869   1.993   8.362 -0.5958 -0.2691  0.6588
   74SLPC  H18Y 6651   4.883   1.891   8.509 -0.7594  0.3186  0.7538
   74SLPC  H18Z 6652   4.984   1.861   8.347  1.5722  0.4428  1.3357
   75SLPC     N 6653   1.992   4.620   6.489 -0.9243 -0.0367 -0.2886
   75SLPC   C13 6654   1.907   4.662   6.372  0.3492  0.8570 -0.2320
   75SLPC  H13A 6655   1.883   4.577   6.310 -0.0165  1.6551 -1.1923
   75SLPC  H13B 6656   1.811   4.696   6.408 -1.1912 -1.5165 -1.9389
   75SLPC  H13C 6657   1.936   4.742   6.306  0.5142 -1.6328 -3.3017
   75SLPC   C14 6658   2.124   4.568   6.437  0.1199  0.4472  0.6869
   75SLPC  H14A 6659   2.174   4.643   6.378  0.4898 -1.7634 -1.9063
   75SLPC  H14B 6660   2.192   4.544   6.517  0.6466  1.4747  0.5549
   75SLPC  H14C 6661   2.099   4.480   6.379 -0.8949  1.6947 -0.7916
   75SLPC   C15 6662   1.931   4.503   6.564 -0.9120  0.2904  0.3863
   75SLPC  H15A 6663   1.846   4.527   6.627 -1.2451  0.9399 -0.2964
   75SLPC  H15B 6664   1.907   4.429   6.488  1.4347  1.4730 -1.5762
   75SLPC  H15C 6665   2.010   4.464   6.626  1.8313  0.7899 -2.6374
   75SLPC   C12 6666   2.005   4.737   6.584 -0.0420  0.0563 -0.3440
   75SLPC  H12A 6667   1.913   4.760   6.636  0.7481  0.2957  0.9821
   75SLPC  H12B 6668   2.023   4.820   6.517 -1.6436  1.0456  0.3950
   75SLPC   C11 6669   2.115   4.732   6.695 -0.4735 -0.8889 -0.1457
   75SLPC  H11A 6670   2.098   4.640   6.756  2.6895 -0.8776  0.8409
   75SLPC  H11B 6671   2.090   4.811   6.769 -0.6479  1.2506 -2.4480
   75SLPC     P 6672   2.304   4.869   6.586 -0.1436 -0.2660  0.1322
   75SLPC   O13 6673   2.431   4.841   6.514  1.1590  0.1637  0.0093
   75SLPC   O14 6674   2.201   4.924   6.497  0.5500  0.3423  0.2661
   75SLPC   O12 6675   2.256   4.739   6.657  0.3959  0.1128 -0.1896
   75SLPC   O11 6676   2.330   4.974   6.704 -0.3659  1.1076 -0.1389
   75SLPC    C1 6677   2.428   4.947   6.807 -0.5136  0.7029  0.0296
   75SLPC    HA 6678   2.503   4.867   6.791  0.6452  1.1439  2.9484
   75SLPC    HB 6679   2.497   5.035   6.809  0.7776 -0.2669 -0.9032
   75SLPC    C2 6680   2.360   4.916   6.939  0.8073  0.4921 -0.0551
   75SLPC    HS 6681   2.288   4.832   6.926  1.0405  0.1578  0.7605
   75SLPC   O21 6682   2.287   5.032   6.981 -0.0933 -0.2070 -0.1059
   75SLPC   C21 6683   2.190   5.010   7.067 -0.5810 -0.5372 -0.6140
   75SLPC   O22 6684   2.142   4.904   7.099  0.3896  0.2959 -0.5676
   75SLPC   C22 6685   2.124   5.149   7.104 -0.9952  1.2427  0.3970
   75SLPC   H2R 6686   2.197   5.231   7.086 -1.0338  0.9967 -0.8940
   75SLPC   H2S 6687   2.039   5.157   7.033 -0.6468  0.7702 -0.0710
   75SLPC    C3 6688   2.468   4.865   7.038 -0.8281  0.2797  0.1977
   75SLPC    HX 6689   2.534   4.951   7.061 -1.2023  0.9333 -1.1042
   75SLPC    HY 6690   2.528   4.782   6.996 -0.1713  0.2154  1.2425
   75SLPC   O31 6691   2.412   4.830   7.165  0.7247  0.2740  0.1223
   75SLPC   C31 6692   2.349   4.706   7.165  0.1695  0.5535  0.7174
   75SLPC   O32 6693   2.344   4.629   7.069  0.2464 -0.2948  0.4351
   75SLPC   C32 6694   2.312   4.669   7.309 -0.0385 -0.1155 -0.4423
   75SLPC   H2X 6695   2.202   4.673   7.324  0.5818  2.1678  4.3702
   75SLPC   H2Y 6696   2.361   4.747   7.372  0.2892 -0.7051  0.0331
   75SLPC   C23 6697   2.054   5.144   7.239  0.0294 -0.3009  0.7302
   75SLPC   H3R 6698   1.988   5.055   7.241  0.0411 -0.3831 -1.2946
   75SLPC   H3S 6699   1.993   5.236   7.250  2.1480  1.0353  1.7691
   75SLPC   C24 6700   2.147   5.148   7.358  0.6774  0.1295 -0.1557
   75SLPC   H4R 6701   2.209   5.240   7.350  2.7036 -1.1783  0.2609
   75SLPC   H4S 6702   2.213   5.059   7.364  2.2812  1.2580 -0.5688
   75SLPC   C25 6703   2.082   5.174   7.493  0.3555 -0.3988  0.3221
   75SLPC   H5R 6704   2.001   5.098   7.504  0.8196 -0.6004  2.6235
   75SLPC   H5S 6705   2.033   5.273   7.501 -0.7925 -0.8590 -0.8614
   75SLPC   C26 6706   2.180   5.183   7.614 -0.5096  0.1284 -0.2158
   75SLPC   H6R 6707   2.138   5.247   7.695 -2.6291 -3.1554  1.3742
   75SLPC   H6S 6708   2.273   5.228   7.572  0.0684 -0.8037  0.0644
   75SLPC   C27 6709   2.205   5.041   7.667  0.7663 -0.2644  0.2366
   75SLPC   H7R 6710   2.197   4.974   7.579 -2.0331  1.5656 -0.9799
   75SLPC   H7S 6711   2.124   5.009   7.737 -0.2757 -0.0340 -0.8526
   75SLPC   C28 6712   2.347   5.020   7.729 -0.6860  0.5617  0.0700
   75SLPC   H8R 6713   2.418   5.028   7.643  2.6193  0.9808  2.6987
   75SLPC   H8S 6714   2.346   4.919   7.774  2.2945  0.6626  0.4597
   75SLPC   C29 6715   2.384   5.116   7.832  0.0235 -0.3963 -0.4900
   75SLPC   H9R 6716   2.377   5.223   7.806 -1.3376 -0.6681 -1.3131
   75SLPC  C210 6717   2.417   5.086   7.958  0.3542 -0.0745 -0.3210
   75SLPC  H10R 6718   2.445   5.172   8.021 -1.5650  2.5588 -2.9160
   75SLPC  C211 6719   2.422   4.953   8.031 -0.9754  0.1728  0.0684
   75SLPC  H11R 6720   2.504   4.950   8.105 -0.9434  0.7669  0.0609
   75SLPC  H11S 6721   2.457   4.875   7.960 -0.5572 -1.1392  1.7019
   75SLPC  C212 6722   2.287   4.904   8.090  0.0148 -0.3633 -0.4673
   75SLPC  H12R 6723   2.233   4.826   8.034 -2.0225 -0.4042  1.4901
   75SLPC  C213 6724   2.230   4.957   8.205  0.1527 -0.4427 -0.4703
   75SLPC  H13R 6725   2.130   4.918   8.231  0.7026 -0.6162  1.4509
   75SLPC  C214 6726   2.287   5.058   8.295 -0.5952  0.2275 -0.0157
   75SLPC  H14R 6727   2.398   5.050   8.294 -0.5782  0.0612  1.9121
   75SLPC  H14S 6728   2.250   5.032   8.396 -1.3724 -0.0364 -0.3693
   75SLPC  C215 6729   2.244   5.203   8.264 -0.3803 -0.0517  0.1310
   75SLPC  H15R 6730   2.140   5.196   8.228 -0.5714 -2.7315  1.0276
   75SLPC  H15S 6731   2.311   5.243   8.185 -0.8590  0.7000  0.1070
   75SLPC  C216 6732   2.258   5.301   8.384  0.1601  0.2737 -0.0946
   75SLPC  H16R 6733   2.362   5.335   8.406  1.9826 -4.8860 -0.1615
   75SLPC  H16S 6734   2.220   5.247   8.473  1.4683  0.2403  0.4634
   75SLPC  C217 6735   2.174   5.429   8.377 -1.4041  0.3144  0.4251
   75SLPC  H17R 6736   2.078   5.398   8.332 -0.0947 -0.6031 -1.8122
   75SLPC  H17S 6737   2.234   5.491   8.308 -1.5898 -0.9274 -0.8589
   75SLPC  C218 6738   2.156   5.501   8.509  0.0598 -0.0762 -0.0405
   75SLPC  H18R 6739   2.111   5.433   8.585  0.3552 -0.3595 -0.1197
   75SLPC  H18S 6740   2.081   5.582   8.503 -0.3088 -0.4994 -1.1472
   75SLPC  H18T 6741   2.257   5.530   8.546 -0.6610  1.4318  0.7914
   75SLPC   C33 6742   2.373   4.531   7.342 -0.1661  0.1205 -0.2872
   75SLPC   H3X 6743   2.319   4.452   7.285 -0.6162  0.9560 -1.0226
   75SLPC   H3Y 6744   2.479   4.520   7.311 -0.4875  0.6952 -1.5855
   75SLPC   C34 6745   2.346   4.488   7.486 -0.5095 -0.1751 -0.6495
   75SLPC   H4X 6746   2.404   4.394   7.500 -1.5922 -0.7500  0.0371
   75SLPC   H4Y 6747   2.237   4.471   7.493 -0.4940  0.3533  0.9888
   75SLPC   C35 6748   2.387   4.586   7.597 -0.1904 -0.5029  0.3792
   75SLPC   H5X 6749   2.319   4.672   7.578 -0.7336 -1.0531 -0.1450
   75SLPC   H5Y 6750   2.496   4.607   7.584  0.5801 -3.1937  2.0702
   75SLPC   C36 6751   2.341   4.530   7.730  0.7491  0.0175  0.3518
   75SLPC   H6X 6752   2.399   4.435   7.735  1.1768  0.2287 -0.4714
   75SLPC   H6Y 6753   2.233   4.507   7.722  0.9404 -0.0276 -2.5773
   75SLPC   C37 6754   2.391   4.620   7.847  0.5105  0.0173  0.0578
   75SLPC   H7X 6755   2.319   4.702   7.866  2.0310  1.3426  0.1936
   75SLPC   H7Y 6756   2.494   4.659   7.830  0.7537 -0.5044  0.2918
   75SLPC   C38 6757   2.408   4.542   7.984 -0.1693  0.1732 -0.5671
   75SLPC   H8X 6758   2.309   4.500   8.012  0.7122 -0.4315  1.6894
   75SLPC   H8Y 6759   2.430   4.606   8.072  2.2188 -0.5174 -0.6233
   75SLPC   C39 6760   2.523   4.431   7.985  0.5934 -0.2827  0.4961
   75SLPC   H9X 6761   2.623   4.479   7.976  0.1288  0.5111 -0.6893
   75SLPC   H9Y 6762   2.521   4.374   7.889 -0.5929 -0.1964  0.4727
   75SLPC  C310 6763   2.537   4.357   8.108  0.4320 -0.0579  0.1018
   75SLPC  H10X 6764   2.530   4.429   8.193  1.9982  0.0176  0.1877
   75SLPC  H10Y 6765   2.639   4.313   8.107  0.3150 -0.4145  2.4818
   75SLPC  C311 6766   2.432   4.243   8.132  0.2616 -0.6797 -0.1326
   75SLPC  H11X 6767   2.334   4.283   8.167  1.1955  0.0085  1.7604
   75SLPC  H11Y 6768   2.468   4.183   8.218 -1.5330 -1.2406  0.2564
   75SLPC  C312 6769   2.410   4.139   8.023  0.5273  0.0208 -0.1802
   75SLPC  H12X 6770   2.372   4.042   8.061 -0.8124  0.1090 -1.2710
   75SLPC  H12Y 6771   2.504   4.126   7.964  0.4314 -0.1885 -0.2883
   75SLPC  C313 6772   2.304   4.196   7.921  0.1765 -0.5538 -0.4284
   75SLPC  H13X 6773   2.327   4.305   7.913  0.7754 -0.5710  0.9595
   75SLPC  H13Y 6774   2.205   4.196   7.971  0.0110 -2.5121 -0.7505
   75SLPC  C314 6775   2.313   4.125   7.786  0.5604  1.2083 -0.2948
   75SLPC  H14X 6776   2.313   4.018   7.816 -1.6995  1.0120 -0.8779
   75SLPC  H14Y 6777   2.415   4.152   7.751  0.3354 -0.1817 -2.1063
   75SLPC  C315 6778   2.196   4.152   7.688 -0.9771 -0.7196 -0.3131
   75SLPC  H15X 6779   2.192   4.256   7.648  0.0464 -0.8173 -0.6724
   75SLPC  H15Y 6780   2.094   4.144   7.733 -1.1981  1.4891 -0.3749
   75SLPC  C316 6781   2.200   4.069   7.554 -0.1020 -0.0573 -1.1207
   75SLPC  H16X 6782   2.132   3.982   7.569  0.2755 -0.2082 -0.2269
   75SLPC  H16Y 6783   2.305   4.033   7.547  1.0599  2.8382  0.4428
   75SLPC  C317 6784   2.137   4.157   7.439 -0.1769  0.1010  0.0021
   75SLPC  H17X 6785   2.204   4.243   7.418 -1.6085  1.3667  0.4977
   75SLPC  H17Y 6786   2.040   4.195   7.479 -0.4704 -3.0902  2.5024
   75SLPC  C318 6787   2.123   4.078   7.305  0.3502  0.1713 -0.5908
   75SLPC  H18X 6788   2.216   4.021   7.288  0.1027 -0.1284 -0.9526
   75SLPC  H18Y 6789   2.112   4.151   7.222  1.7676  1.2106  0.1081
   75SLPC  H18Z 6790   2.042   4.002   7.304 -2.4687  3.0262 -1.2719
   76SLPC     N 6791   3.210   2.813   5.932 -0.0326  0.6125 -0.2261
   76SLPC   C13 6792   3.088   2.762   5.996 -0.7151 -0.2322 -0.3892
   76SLPC  H13A 6793   3.056   2.672   5.947 -1.1226 -0.5502  0.4535
   76SLPC  H13B 6794   3.096   2.747   6.103 -1.1654  0.5612 -0.2428
   76SLPC  H13C 6795   3.004   2.826   5.974  0.6072  2.1751  1.2962
   76SLPC   C14 6796   3.188   2.825   5.786 -0.5775 -0.0581  0.1712
   76SLPC  H14A 6797   3.169   2.730   5.739 -2.1637  0.0572  0.5507
   76SLPC  H14B 6798   3.100   2.885   5.769  0.7974  2.4082  1.4615
   76SLPC  H14C 6799   3.272   2.874   5.739  0.1973 -0.6927  0.9016
   76SLPC   C15 6800   3.321   2.709   5.966  0.7423 -0.4487  0.2642
   76SLPC  H15A 6801   3.317   2.679   6.070 -2.2778  1.2235  0.6726
   76SLPC  H15B 6802   3.305   2.629   5.895 -1.1278 -1.6517  2.0126
   76SLPC  H15C 6803   3.418   2.755   5.950  0.5396 -0.1874 -0.2110
   76SLPC   C12 6804   3.248   2.948   5.996 -0.2312  0.3746  0.5716
   76SLPC  H12A 6805   3.265   2.928   6.101  0.7499 -0.4848  0.2547
   76SLPC  H12B 6806   3.159   3.009   5.996 -1.5268 -1.4442 -0.6138
   76SLPC   C11 6807   3.361   3.032   5.935  0.0266  0.2751 -0.1189
   76SLPC  H11A 6808   3.380   3.125   5.992  1.6938  0.4166 -0.8757
   76SLPC  H11B 6809   3.327   3.065   5.834 -0.3004  0.5495  0.0790
   76SLPC     P 6810   3.591   2.961   6.045  0.2000  0.0696  0.3527
   76SLPC   O13 6811   3.572   2.838   6.128 -0.0893  0.1709  0.5581
   76SLPC   O14 6812   3.724   2.984   5.987  0.3500  0.0408  0.5940
   76SLPC   O12 6813   3.488   2.975   5.930 -0.0122 -0.3717  0.0351
   76SLPC   O11 6814   3.553   3.083   6.141 -0.4123  0.4777 -0.0784
   76SLPC    C1 6815   3.480   3.067   6.263 -0.6079 -0.7005  0.5221
   76SLPC    HA 6816   3.410   3.152   6.267 -3.4342 -2.8689 -1.2515
   76SLPC    HB 6817   3.411   2.980   6.255 -0.9387 -0.3677 -0.2816
   76SLPC    C2 6818   3.571   3.071   6.393 -0.4427 -0.8250  0.1990
   76SLPC    HS 6819   3.501   3.062   6.478 -1.7908  1.1589 -0.6821
   76SLPC   O21 6820   3.648   3.195   6.398 -0.3735  0.4833  0.4394
   76SLPC   C21 6821   3.647   3.259   6.515 -0.4237  0.1690 -0.3102
   76SLPC   O22 6822   3.603   3.210   6.618  0.1386 -0.0812 -0.1501
   76SLPC   C22 6823   3.703   3.395   6.496  0.3551 -0.3498 -0.2705
   76SLPC   H2R 6824   3.754   3.398   6.397 -1.4659  1.8823 -1.2121
   76SLPC   H2S 6825   3.625   3.474   6.507  0.6223 -0.0721 -0.3636
   76SLPC    C3 6826   3.661   2.941   6.396  0.2917 -0.5026  0.1466
   76SLPC    HX 6827   3.727   2.951   6.308 -0.3662 -0.4534 -0.3482
   76SLPC    HY 6828   3.609   2.843   6.385  2.3661 -1.6601  0.5438
   76SLPC   O31 6829   3.754   2.945   6.512 -0.2623  0.2864  0.1384
   76SLPC   C31 6830   3.698   2.910   6.626 -0.4897  0.2458  0.0995
   76SLPC   O32 6831   3.582   2.880   6.645 -0.6923  0.2474  0.4965
   76SLPC   C32 6832   3.811   2.906   6.727  0.1527  0.1416  0.1346
   76SLPC   H2X 6833   3.871   2.999   6.715  1.4642 -0.6809  0.2911
   76SLPC   H2Y 6834   3.877   2.818   6.715  0.4064 -0.1880  3.3302
   76SLPC   C23 6835   3.810   3.422   6.602 -0.6892  0.1558 -0.3866
   76SLPC   H3R 6836   3.764   3.400   6.701  0.0380  2.0291  0.3867
   76SLPC   H3S 6837   3.843   3.528   6.604 -2.3167  0.6843 -0.5732
   76SLPC   C24 6838   3.938   3.336   6.581  0.2228  0.7315  0.2186
   76SLPC   H4R 6839   3.974   3.368   6.480  0.5154  0.0921  0.1156
   76SLPC   H4S 6840   3.914   3.227   6.576 -1.5850  1.1590 -0.8482
   76SLPC   C25 6841   4.048   3.359   6.684  0.0784  0.2318 -0.2216
   76SLPC   H5R 6842   4.066   3.468   6.698  0.7605 -0.0863  1.5620
   76SLPC   H5S 6843   4.140   3.310   6.648 -0.6068  0.9854 -3.0691
   76SLPC   C26 6844   4.014   3.290   6.822 -0.0774  0.1162 -0.2935
   76SLPC   H6R 6845   4.003   3.181   6.805  0.2440 -0.1283  0.9921
   76SLPC   H6S 6846   3.915   3.328   6.854 -0.1527  0.4824 -0.9528
   76SLPC   C27 6847   4.115   3.310   6.928 -0.1842  0.0849  0.3649
   76SLPC   H7R 6848   4.137   3.419   6.931  0.5200 -0.1011  2.6019
   76SLPC   H7S 6849   4.214   3.270   6.896 -0.6923 -1.8887  1.1501
   76SLPC   C28 6850   4.079   3.256   7.065  0.0921  0.0309 -0.7135
   76SLPC   H8R 6851   4.162   3.280   7.136 -1.7589 -1.1565  1.9203
   76SLPC   H8S 6852   3.983   3.310   7.081  1.3042  1.7653  0.9070
   76SLPC   C29 6853   4.048   3.110   7.060  0.2719  0.1846  0.1407
   76SLPC   H9R 6854   3.955   3.080   7.009  0.5588  0.1135 -0.3470
   76SLPC  C210 6855   4.125   3.017   7.125 -0.4104  0.1625  0.7081
   76SLPC  H10R 6856   4.089   2.913   7.128  1.9826 -0.6804  1.0468
   76SLPC  C211 6857   4.261   3.032   7.194  0.2770  0.9957  0.2588
   76SLPC  H11R 6858   4.280   2.953   7.270  0.7277  1.0511  0.2054
   76SLPC  H11S 6859   4.256   3.121   7.261  2.2955  1.0976  0.2965
   76SLPC  C212 6860   4.376   3.048   7.098  0.5987  0.4208  0.1469
   76SLPC  H12R 6861   4.356   3.085   6.996 -1.1636 -1.6466 -0.3074
   76SLPC  C213 6862   4.502   3.039   7.131  1.0506  1.2700  0.1531
   76SLPC  H13R 6863   4.574   3.067   7.053  3.5064  0.0202  1.8941
   76SLPC  C214 6864   4.562   3.003   7.264  0.3612 -0.9160 -0.4382
   76SLPC  H14R 6865   4.573   2.893   7.277  2.2965 -0.5845  0.9375
   76SLPC  H14S 6866   4.479   3.015   7.337 -0.2203 -1.6640 -0.9582
   76SLPC  C215 6867   4.690   3.084   7.312  0.1051  0.3211 -0.1575
   76SLPC  H15R 6868   4.668   3.192   7.308  0.3674  0.4141  0.9241
   76SLPC  H15S 6869   4.776   3.079   7.242  1.3241 -1.1314  1.4116
   76SLPC  C216 6870   4.747   3.036   7.443 -0.1739 -0.3264  0.4454
   76SLPC  H16R 6871   4.795   2.939   7.419  1.3946  1.0883 -2.3993
   76SLPC  H16S 6872   4.672   3.012   7.522 -0.3895 -0.2109  0.2771
   76SLPC  C217 6873   4.849   3.131   7.507 -0.2204 -0.9467  1.5619
   76SLPC  H17R 6874   4.798   3.229   7.520 -0.4756 -0.5469 -1.8293
   76SLPC  H17S 6875   4.930   3.138   7.431 -3.3867 -0.4277 -1.9244
   76SLPC  C218 6876   4.908   3.084   7.641  0.4491 -0.5578 -0.3079
   76SLPC  H18R 6877   4.830   3.058   7.716  0.4225  1.5191  0.4216
   76SLPC  H18S 6878   4.979   3.157   7.686 -1.1590 -0.7208  2.6364
   76SLPC  H18T 6879   4.962   2.991   7.612  0.0853 -1.0922  0.6832
   76SLPC   C33 6880   3.758   2.903   6.879  0.1658 -0.2686 -0.8120
   76SLPC   H3X 6881   3.836   2.871   6.952  0.7990  0.1186 -1.3148
   76SLPC   H3Y 6882   3.688   2.818   6.893  2.4968 -2.0870  0.2524
   76SLPC   C34 6883   3.690   3.032   6.926 -0.0180 -0.0370  0.0449
   76SLPC   H4X 6884   3.613   3.080   6.863  0.1310  0.4286  0.2175
   76SLPC   H4Y 6885   3.775   3.103   6.931 -0.2880  0.4224 -1.6823
   76SLPC   C35 6886   3.621   3.010   7.063  0.0375 -0.4492  0.0176
   76SLPC   H5X 6887   3.562   2.916   7.062  1.6303 -1.4657 -1.3566
   76SLPC   H5Y 6888   3.541   3.086   7.047  1.5256  0.7952 -1.7582
   76SLPC   C36 6889   3.717   3.020   7.175  0.3536  0.0940 -0.5752
   76SLPC   H6X 6890   3.770   3.115   7.150 -1.1361  0.5969 -1.8528
   76SLPC   H6Y 6891   3.784   2.932   7.173 -0.6561 -0.7891  2.0651
   76SLPC   C37 6892   3.674   3.036   7.323 -0.0798 -0.1418  0.5384
   76SLPC   H7X 6893   3.597   2.956   7.334 -0.6028  0.1916 -0.5595
   76SLPC   H7Y 6894   3.617   3.127   7.351  0.7785  0.1621  1.3300
   76SLPC   C38 6895   3.786   3.006   7.421  0.3385 -0.1154 -0.0743
   76SLPC   H8X 6896   3.884   3.046   7.385  0.6080 -2.1794 -1.7422
   76SLPC   H8Y 6897   3.799   2.897   7.437  1.8568  0.1704  0.7809
   76SLPC   C39 6898   3.755   3.059   7.569  0.3939 -0.5724  0.2311
   76SLPC   H9X 6899   3.659   3.011   7.596 -0.7745  1.6619  0.1875
   76SLPC   H9Y 6900   3.735   3.167   7.583 -1.6144 -0.8389 -0.3588
   76SLPC  C310 6901   3.868   3.030   7.667 -0.6165 -0.3150  0.3044
   76SLPC  H10X 6902   3.946   3.105   7.646 -1.5799  0.5506 -0.2256
   76SLPC  H10Y 6903   3.923   2.941   7.629 -1.8377 -1.0436  0.2140
   76SLPC  C311 6904   3.842   2.998   7.812 -0.2036 -0.4896  0.2145
   76SLPC  H11X 6905   3.771   2.913   7.826 -1.2392  0.0863 -1.4336
   76SLPC  H11Y 6906   3.784   3.083   7.856  2.6596  0.8734  1.4639
   76SLPC  C312 6907   3.964   2.979   7.909  0.9845 -0.0939  0.0794
   76SLPC  H12X 6908   4.048   3.045   7.882  1.8111 -0.9617  0.5197
   76SLPC  H12Y 6909   3.994   2.877   7.880  0.3436 -1.0807  2.6786
   76SLPC  C313 6910   3.929   3.000   8.061 -0.5078 -0.2149  0.4407
   76SLPC  H13X 6911   4.017   2.959   8.116 -0.1611  0.3515  0.3149
   76SLPC  H13Y 6912   3.848   2.929   8.085 -2.2385  1.6853  0.3655
   76SLPC  C314 6913   3.904   3.147   8.097  0.1638 -0.3988 -0.2711
   76SLPC  H14X 6914   3.847   3.197   8.015 -1.1730  1.0620  1.5110
   76SLPC  H14Y 6915   3.997   3.207   8.101 -0.4936  0.6416 -0.4558
   76SLPC  C315 6916   3.824   3.161   8.228 -0.0106 -0.1851 -0.9681
   76SLPC  H15X 6917   3.794   3.066   8.277 -1.9790  0.6725 -0.4516
   76SLPC  H15Y 6918   3.725   3.200   8.194  0.4263  0.4990 -1.4729
   76SLPC  C316 6919   3.865   3.265   8.332 -0.0530 -0.3716  0.4130
   76SLPC  H16X 6920   3.778   3.265   8.401 -2.0113  0.1422 -1.9948
   76SLPC  H16Y 6921   3.863   3.363   8.281 -1.4293 -1.7698 -2.3466
   76SLPC  C317 6922   3.988   3.242   8.422  0.0098  0.6661  0.1528
   76SLPC  H17X 6923   4.072   3.211   8.357 -0.2938  2.0539 -0.9200
   76SLPC  H17Y 6924   3.974   3.151   8.484  1.1101  0.8548  0.6777
   76SLPC  C318 6925   4.037   3.354   8.505 -0.1862  0.1470  0.5163
   76SLPC  H18X 6926   4.086   3.433   8.444 -0.5526  1.2085  1.5560
   76SLPC  H18Y 6927   4.120   3.328   8.575  1.9094  0.4434 -1.7966
   76SLPC  H18Z 6928   3.963   3.390   8.580 -0.3277 -1.2761  1.0792
   77SLPC     N 6929   6.355   2.900   5.941 -0.9819  0.4759 -0.5355
   77SLPC   C13 6930   6.208   2.928   5.936  0.1371  0.0517  0.0541
   77SLPC  H13A 6931   6.184   3.007   6.006  1.7095  2.2303 -1.7899
   77SLPC  H13B 6932   6.181   2.963   5.838  0.6774 -0.8210 -0.4059
   77SLPC  H13C 6933   6.149   2.847   5.976  0.5159  0.1126  0.7411
   77SLPC   C14 6934   6.432   3.017   5.885 -0.0331  0.7294  0.1517
   77SLPC  H14A 6935   6.405   3.045   5.784  0.7665 -2.0105 -0.8472
   77SLPC  H14B 6936   6.407   3.107   5.939 -3.0157 -0.1697  0.3739
   77SLPC  H14C 6937   6.536   2.990   5.891 -0.0720  0.7145  0.7344
   77SLPC   C15 6938   6.376   2.783   5.846 -0.4876  1.1886 -0.0619
   77SLPC  H15A 6939   6.327   2.790   5.750  3.8066 -2.4438 -2.7500
   77SLPC  H15B 6940   6.482   2.777   5.825 -0.3930  1.2677  0.3825
   77SLPC  H15C 6941   6.350   2.683   5.879  0.7073  1.7023  2.5171
   77SLPC   C12 6942   6.402   2.868   6.083 -0.2440  0.1802 -0.0266
   77SLPC  H12A 6943   6.510   2.861   6.088 -0.2135 -0.3694 -1.4721
   77SLPC  H12B 6944   6.362   2.771   6.108 -3.3631  1.4023 -0.0946
   77SLPC   C11 6945   6.355   2.967   6.196  0.0175  0.9164 -0.0081
   77SLPC  H11A 6946   6.365   2.916   6.294  0.6112  0.8109 -0.1266
   77SLPC  H11B 6947   6.245   2.984   6.199 -0.0418  0.6160 -0.3703
   77SLPC     P 6948   6.411   3.218   6.262  0.3144  0.5587  0.6059
   77SLPC   O13 6949   6.457   3.330   6.182  0.1841 -0.3316  0.4115
   77SLPC   O14 6950   6.264   3.218   6.291  0.0295  0.2329  0.2077
   77SLPC   O12 6951   6.442   3.080   6.187 -0.1509 -0.5376  0.1856
   77SLPC   O11 6952   6.499   3.214   6.389 -0.4648 -0.1277 -0.5081
   77SLPC    C1 6953   6.526   3.318   6.483 -0.8632 -0.8310 -0.3838
   77SLPC    HA 6954   6.635   3.335   6.486 -0.9783  0.1900 -1.3161
   77SLPC    HB 6955   6.485   3.418   6.455  2.3263  1.2736  2.1485
   77SLPC    C2 6956   6.471   3.283   6.618  0.5852 -1.1217 -0.5165
   77SLPC    HS 6957   6.515   3.365   6.678 -0.0913 -0.1300 -1.3671
   77SLPC   O21 6958   6.532   3.155   6.660  1.1038 -0.5459  0.0765
   77SLPC   C21 6959   6.623   3.169   6.754 -0.0339 -0.6189 -0.3618
   77SLPC   O22 6960   6.692   3.274   6.772 -0.0666 -0.2489 -0.2200
   77SLPC   C22 6961   6.627   3.052   6.855 -0.3161 -0.0867  0.3848
   77SLPC   H2R 6962   6.565   3.062   6.947  0.9575  0.8252  1.1649
   77SLPC   H2S 6963   6.596   2.967   6.791 -0.4317 -0.5088  0.9910
   77SLPC    C3 6964   6.319   3.291   6.638 -0.5831  0.0180 -0.0866
   77SLPC    HX 6965   6.267   3.208   6.585 -1.3550  0.1151  0.5132
   77SLPC    HY 6966   6.288   3.388   6.593 -0.6000 -0.7317 -1.7506
   77SLPC   O31 6967   6.281   3.295   6.778 -0.5285 -0.0871  0.1564
   77SLPC   C31 6968   6.248   3.174   6.834 -0.5387  0.2756 -0.3089
   77SLPC   O32 6969   6.255   3.067   6.768 -0.2113  0.9610 -0.0189
   77SLPC   C32 6970   6.203   3.199   6.968  0.1202 -0.2012  0.4508
   77SLPC   H2X 6971   6.103   3.153   6.980  0.9758 -1.9967  0.7782
   77SLPC   H2Y 6972   6.185   3.308   6.979  1.6402  0.3496 -2.1063
   77SLPC   C23 6973   6.778   3.025   6.894  0.9314 -0.0125  0.3718
   77SLPC   H3R 6974   6.811   3.099   6.970 -0.5837  1.4150 -0.3205
   77SLPC   H3S 6975   6.840   3.028   6.802 -1.8871  0.2929 -1.6178
   77SLPC   C24 6976   6.796   2.875   6.949 -0.0337 -0.1927 -0.4898
   77SLPC   H4R 6977   6.905   2.851   6.951 -0.1804 -0.8314  3.2436
   77SLPC   H4S 6978   6.744   2.808   6.879  0.8418  1.7195 -3.0483
   77SLPC   C25 6979   6.729   2.853   7.081 -0.6343  0.0918 -0.2198
   77SLPC   H5R 6980   6.619   2.840   7.065 -0.7698  0.2405  0.5349
   77SLPC   H5S 6981   6.734   2.942   7.147  2.1294  1.5783 -2.3659
   77SLPC   C26 6982   6.783   2.731   7.164  0.2025 -0.5617 -0.3243
   77SLPC   H6R 6983   6.792   2.636   7.107 -0.9399 -0.0118 -1.4352
   77SLPC   H6S 6984   6.706   2.698   7.237  0.3398  0.1460  0.1400
   77SLPC   C27 6985   6.906   2.760   7.247  0.2077 -0.3582 -0.0206
   77SLPC   H7R 6986   6.966   2.837   7.192 -1.2738  1.9602  1.5336
   77SLPC   H7S 6987   6.958   2.662   7.256 -0.6444 -1.0686 -2.4283
   77SLPC   C28 6988   6.881   2.813   7.390 -0.2852  0.5387 -0.5653
   77SLPC   H8R 6989   6.800   2.890   7.393 -0.9071 -0.0831 -1.0732
   77SLPC   H8S 6990   6.980   2.851   7.422 -0.5131 -0.1381  0.9873
   77SLPC   C29 6991   6.849   2.704   7.494 -0.0017 -0.3271  0.3538
   77SLPC   H9R 6992   6.796   2.621   7.446  0.9203 -1.7992  1.8583
   77SLPC  C210 6993   6.887   2.696   7.621 -0.3119 -0.2359 -0.0489
   77SLPC  H10R 6994   6.887   2.594   7.663 -0.7737 -0.0581  0.3863
   77SLPC  C211 6995   6.959   2.796   7.699  0.0502  0.3514 -0.7391
   77SLPC  H11R 6996   6.908   2.816   7.796 -0.1269  0.9528 -0.9493
   77SLPC  H11S 6997   6.965   2.898   7.656 -0.2975 -0.1537 -1.9956
   77SLPC  C212 6998   7.104   2.769   7.715  0.7771 -0.3854  0.9874
   77SLPC  H12R 6999   7.175   2.781   7.632 -1.3918  1.7748 -0.6595
   77SLPC  C213 7000   7.163   2.718   7.827 -0.1930  0.6156 -0.3301
   77SLPC  H13R 7001   7.272   2.718   7.839 -0.0576  1.5935 -1.4468
   77SLPC  C214 7002   7.088   2.694   7.958  0.0560  0.6863  0.4708
   77SLPC  H14R 7003   7.025   2.603   7.948  2.2254 -0.7729 -0.3823
   77SLPC  H14S 7004   7.023   2.780   7.981 -3.3710 -1.9576  1.1590
   77SLPC  C215 7005   7.190   2.674   8.072 -0.1547 -0.1313 -0.9815
   77SLPC  H15R 7006   7.246   2.769   8.087 -1.2721  0.5795 -1.2767
   77SLPC  H15S 7007   7.261   2.590   8.054 -0.1975 -0.8342  1.8783
   77SLPC  C216 7008   7.117   2.662   8.204 -0.2771 -0.4198 -0.4316
   77SLPC  H16R 7009   7.056   2.570   8.219 -1.0273  0.2962  0.9268
   77SLPC  H16S 7010   7.037   2.739   8.195 -1.2939 -1.3451  0.6954
   77SLPC  C217 7011   7.214   2.699   8.329  0.3137  0.2113 -0.3094
   77SLPC  H17R 7012   7.150   2.725   8.415  0.3784  0.3643 -0.3085
   77SLPC  H17S 7013   7.286   2.780   8.305  0.2059  0.8998  1.6369
   77SLPC  C218 7014   7.303   2.578   8.364 -0.1152 -0.1660  0.3215
   77SLPC  H18R 7015   7.382   2.559   8.288  0.5527 -1.2474  1.2732
   77SLPC  H18S 7016   7.259   2.477   8.380  3.7023 -1.7228  1.5202
   77SLPC  H18T 7017   7.351   2.601   8.461  1.3289  0.7953 -0.5995
   77SLPC   C33 7018   6.288   3.142   7.088 -0.3890 -0.0165  1.2233
   77SLPC   H3X 7019   6.248   3.186   7.182 -1.9016 -1.0239  1.0811
   77SLPC   H3Y 7020   6.392   3.179   7.081  0.6200 -2.5921  1.9732
   77SLPC   C34 7021   6.270   2.994   7.112  0.7560  0.0408 -0.8976
   77SLPC   H4X 7022   6.265   2.928   7.023 -0.5858  0.8827 -1.4566
   77SLPC   H4Y 7023   6.164   2.983   7.145  0.7118 -0.1492 -1.1030
   77SLPC   C35 7024   6.368   2.921   7.212 -0.1562  0.4290  0.3276
   77SLPC   H5X 7025   6.470   2.932   7.170  0.6030  0.7548  2.2115
   77SLPC   H5Y 7026   6.341   2.814   7.217 -2.0582  0.9041  0.8617
   77SLPC   C36 7027   6.371   2.977   7.351  0.2589  0.6041  0.0413
   77SLPC   H6X 7028   6.269   2.992   7.394  0.6218  1.4026  0.6332
   77SLPC   H6Y 7029   6.429   3.071   7.352  0.2270  0.6884 -2.7943
   77SLPC   C37 7030   6.446   2.876   7.445  0.0200 -0.4894  0.7358
   77SLPC   H7X 7031   6.552   2.862   7.415 -0.7000 -0.5995 -1.8031
   77SLPC   H7Y 7032   6.399   2.775   7.451  0.2237 -0.5545  1.3958
   77SLPC   C38 7033   6.447   2.933   7.583 -0.0791 -0.3100 -1.7142
   77SLPC   H8X 7034   6.345   2.946   7.625  0.6442 -2.3148  0.7150
   77SLPC   H8Y 7035   6.487   3.037   7.580  3.1158 -1.4618 -0.5849
   77SLPC   C39 7036   6.543   2.857   7.675  0.3552 -0.9742 -0.0758
   77SLPC   H9X 7037   6.643   2.838   7.630  0.1022 -1.1762 -0.5478
   77SLPC   H9Y 7038   6.495   2.758   7.686  0.3012 -0.7546  1.8297
   77SLPC  C310 7039   6.550   2.924   7.813 -0.1927 -0.4955 -0.0455
   77SLPC  H10X 7040   6.443   2.938   7.840  0.0670  0.1737  0.6756
   77SLPC  H10Y 7041   6.587   3.029   7.808 -3.0471  0.6980  2.3984
   77SLPC  C311 7042   6.620   2.847   7.921 -0.1561 -0.3120  0.0979
   77SLPC  H11X 7043   6.729   2.836   7.902 -0.4349 -2.2196 -0.5094
   77SLPC  H11Y 7044   6.591   2.742   7.945  0.2018 -0.5792 -0.6419
   77SLPC  C312 7045   6.610   2.926   8.056 -0.0854 -0.4477 -0.7169
   77SLPC  H12X 7046   6.504   2.945   8.082  0.4179  1.1899  0.2642
   77SLPC  H12Y 7047   6.664   3.023   8.046 -2.2844  0.7919 -0.7713
   77SLPC  C313 7048   6.663   2.849   8.177 -1.0183 -0.7272 -0.2440
   77SLPC  H13X 7049   6.766   2.815   8.154 -1.1448 -0.7230 -0.8196
   77SLPC  H13Y 7050   6.595   2.761   8.183 -0.7455 -0.9056  0.2829
   77SLPC  C314 7051   6.663   2.925   8.312  0.7402 -0.5508  0.3357
   77SLPC  H14X 7052   6.557   2.957   8.326 -0.0620 -3.0395  0.2387
   77SLPC  H14Y 7053   6.725   3.017   8.303  1.7388 -1.3745 -1.6320
   77SLPC  C315 7054   6.725   2.836   8.419 -0.2077 -0.2843 -0.3744
   77SLPC  H15X 7055   6.824   2.795   8.389 -0.4507 -0.7243 -0.5849
   77SLPC  H15Y 7056   6.668   2.742   8.437 -0.4396 -0.5830 -2.6021
   77SLPC  C316 7057   6.732   2.914   8.552  0.0596  0.2969 -0.4520
   77SLPC  H16X 7058   6.628   2.929   8.587 -0.7077 -2.6168 -1.2737
   77SLPC  H16Y 7059   6.786   3.007   8.527  1.1142 -0.4686 -1.0846
   77SLPC  C317 7060   6.828   2.843   8.648 -0.2755 -0.3592  0.1548
   77SLPC  H17X 7061   6.928   2.849   8.599  0.7606  0.1801  2.2640
   77SLPC  H17Y 7062   6.793   2.739   8.663  0.0687 -0.5475 -0.3409
   77SLPC  C318 7063   6.827   2.924   8.790 -0.0064  0.5271  0.2820
   77SLPC  H18X 7064   6.888   2.870   8.865  0.3637 -1.8495 -1.6576
   77SLPC  H18Y 7065   6.722   2.916   8.826  0.1037 -0.5858  0.3694
   77SLPC  H18Z 7066   6.860   3.030   8.791 -1.5120  1.0084 -0.3860
   78SLPC     N 7067   2.599   3.808   6.099  0.8779 -0.9218  0.2110
   78SLPC   C13 7068   2.637   3.692   6.020  0.2557 -0.0125 -0.3512
   78SLPC  H13A 7069   2.693   3.611   6.065 -0.5870  1.0813  2.8209
   78SLPC  H13B 7070   2.551   3.658   5.964 -0.0389 -0.6494  0.4770
   78SLPC  H13C 7071   2.700   3.729   5.940  1.3944 -1.1702  0.0032
   78SLPC   C14 7072   2.500   3.897   6.024  0.1332  0.8517  0.1919
   78SLPC  H14A 7073   2.413   3.842   5.992  0.9085 -0.7969  0.8445
   78SLPC  H14B 7074   2.477   3.994   6.067 -1.5964 -0.4210  2.2713
   78SLPC  H14C 7075   2.559   3.928   5.939  0.7610 -0.4902  0.1280
   78SLPC   C15 7076   2.715   3.903   6.121  0.1549 -0.0040 -0.8575
   78SLPC  H15A 7077   2.679   3.986   6.181  1.2223 -1.1620  1.4258
   78SLPC  H15B 7078   2.786   3.855   6.186 -0.8101 -1.2143 -0.6871
   78SLPC  H15C 7079   2.761   3.938   6.030  3.3661  1.3518  1.1951
   78SLPC   C12 7080   2.527   3.753   6.228  0.6236  0.6938 -0.6373
   78SLPC  H12A 7081   2.573   3.660   6.261 -0.4723 -0.1679 -1.4984
   78SLPC  H12B 7082   2.428   3.731   6.191  0.6788 -2.0825  0.7185
   78SLPC   C11 7083   2.520   3.841   6.349  0.8680 -0.5892  0.7752
   78SLPC  H11A 7084   2.625   3.863   6.378 -0.5104  2.7285  3.6038
   78SLPC  H11B 7085   2.481   3.797   6.444  2.9053 -0.3243  1.7678
   78SLPC     P 7086   2.296   3.955   6.302  0.3168 -0.1377 -0.3423
   78SLPC   O13 7087   2.239   4.094   6.301 -0.1478 -0.1794  0.3822
   78SLPC   O14 7088   2.262   3.861   6.196  0.0562 -0.2001  0.0172
   78SLPC   O12 7089   2.455   3.966   6.317  0.1878  0.4612  0.2273
   78SLPC   O11 7090   2.246   3.898   6.451  0.1868  0.0428  0.0292
   78SLPC    C1 7091   2.264   3.984   6.561  0.0358  0.3486  0.0398
   78SLPC    HA 7092   2.364   4.033   6.561 -0.0954  0.6230  0.1755
   78SLPC    HB 7093   2.178   4.054   6.567 -0.7189 -0.3123 -2.6157
   78SLPC    C2 7094   2.244   3.895   6.685 -0.3206  0.0346  0.1855
   78SLPC    HS 7095   2.222   3.957   6.774 -0.7277  1.4323 -0.8623
   78SLPC   O21 7096   2.347   3.803   6.708 -0.1455 -0.2408 -1.1118
   78SLPC   C21 7097   2.468   3.850   6.744 -0.2076  1.3422  0.0222
   78SLPC   O22 7098   2.504   3.963   6.748 -0.1390  0.3797 -0.5015
   78SLPC   C22 7099   2.565   3.743   6.779 -0.1495  0.4801  0.0195
   78SLPC   H2R 7100   2.520   3.643   6.760  1.6341 -0.2799 -0.3060
   78SLPC   H2S 7101   2.654   3.755   6.713  1.6645  1.6985  2.5973
   78SLPC    C3 7102   2.119   3.803   6.670  0.8597 -0.1844 -1.0886
   78SLPC    HX 7103   2.128   3.730   6.587  0.9218 -0.4940 -0.8104
   78SLPC    HY 7104   2.026   3.861   6.648  0.7161 -0.3736 -0.9831
   78SLPC   O31 7105   2.103   3.718   6.788  0.0976  0.0140  0.6058
   78SLPC   C31 7106   2.061   3.776   6.902 -0.2759  0.0606 -0.2613
   78SLPC   O32 7107   2.025   3.888   6.919  0.2719  0.2987  0.4474
   78SLPC   C32 7108   2.073   3.670   7.014  0.0048  0.1747  0.4554
   78SLPC   H2X 7109   2.171   3.617   7.018 -1.1993 -2.0375  0.8460
   78SLPC   H2Y 7110   1.991   3.603   6.982 -0.2269  1.4254 -1.7287
   78SLPC   C23 7111   2.623   3.751   6.926 -0.3441 -0.5715 -0.3610
   78SLPC   H3R 7112   2.668   3.852   6.930 -1.1761 -0.1894 -0.5679
   78SLPC   H3S 7113   2.691   3.665   6.946 -0.8475 -0.6634  1.0175
   78SLPC   C24 7114   2.519   3.751   7.037 -0.7917 -0.9384 -0.0227
   78SLPC   H4R 7115   2.451   3.667   7.012 -3.2771  0.7880  0.7710
   78SLPC   H4S 7116   2.450   3.839   7.035 -1.2025 -1.2763 -1.2379
   78SLPC   C25 7117   2.577   3.733   7.175 -0.3812  0.8787 -0.7934
   78SLPC   H5R 7118   2.637   3.822   7.205 -0.4018  0.4193  0.6695
   78SLPC   H5S 7119   2.647   3.647   7.164  0.1468  1.4922 -2.3938
   78SLPC   C26 7120   2.480   3.706   7.287 -0.0362  0.0803 -0.5379
   78SLPC   H6R 7121   2.433   3.606   7.276  0.7226 -0.2615 -0.6988
   78SLPC   H6S 7122   2.411   3.793   7.284  2.5951  2.1717 -2.9265
   78SLPC   C27 7123   2.556   3.698   7.422 -0.3270 -0.2892  0.2254
   78SLPC   H7R 7124   2.641   3.769   7.418 -0.9122  0.4314  0.5902
   78SLPC   H7S 7125   2.599   3.595   7.423 -1.2240 -0.7138 -1.9998
   78SLPC   C28 7126   2.472   3.735   7.545 -0.6066  0.1956  0.0880
   78SLPC   H8R 7127   2.373   3.686   7.528  0.3726 -1.2602 -1.6853
   78SLPC   H8S 7128   2.461   3.845   7.537  1.9173  0.5436  0.9712
   78SLPC   C29 7129   2.543   3.687   7.667  0.8874 -0.0016 -0.1726
   78SLPC   H9R 7130   2.515   3.584   7.693 -0.4408  0.0738 -1.2323
   78SLPC  C210 7131   2.617   3.762   7.756 -0.1415 -0.4744 -0.3424
   78SLPC  H10R 7132   2.650   3.706   7.844 -0.6868 -0.4566 -0.1233
   78SLPC  C211 7133   2.658   3.914   7.741  0.6446  0.8414 -0.3318
   78SLPC  H11R 7134   2.637   3.971   7.833 -0.3312 -0.7872  0.4824
   78SLPC  H11S 7135   2.605   3.958   7.654  0.7625 -0.8433 -1.2715
   78SLPC  C212 7136   2.804   3.925   7.717  0.1844  0.0830 -1.2465
   78SLPC  H12R 7137   2.833   3.937   7.611 -0.7414  1.5279 -1.3382
   78SLPC  C213 7138   2.888   3.916   7.823  0.0999 -0.2849  0.3938
   78SLPC  H13R 7139   2.993   3.911   7.791  0.7599 -0.4664  2.5194
   78SLPC  C214 7140   2.872   3.909   7.977  0.2822 -0.2204 -0.5571
   78SLPC  H14R 7141   2.914   3.813   8.013  0.4279  0.4322  1.0726
   78SLPC  H14S 7142   2.765   3.915   8.008  0.3593  3.1739 -0.6968
   78SLPC  C215 7143   2.937   4.022   8.059  0.4707 -0.1874 -0.0095
   78SLPC  H15R 7144   2.906   4.010   8.165 -0.5266  1.6113 -0.0614
   78SLPC  H15S 7145   2.897   4.123   8.032  0.5988  0.3138  1.6549
   78SLPC  C216 7146   3.090   4.031   8.060  0.3179  0.4412  0.0550
   78SLPC  H16R 7147   3.117   4.134   8.091 -0.7619  0.3354  1.4150
   78SLPC  H16S 7148   3.127   4.014   7.957  2.1549  1.5044  0.5140
   78SLPC  C217 7149   3.170   3.932   8.156 -0.0435 -0.3543 -0.0836
   78SLPC  H17R 7150   3.166   3.831   8.111  0.5725 -1.1388  1.5611
   78SLPC  H17S 7151   3.125   3.915   8.257 -1.7962  0.3149 -0.7400
   78SLPC  C218 7152   3.316   3.974   8.173  0.4375 -0.2343 -0.2569
   78SLPC  H18R 7153   3.378   3.973   8.081 -1.0604  1.8719 -1.3331
   78SLPC  H18S 7154   3.361   3.898   8.241 -0.1800 -1.1373 -0.8480
   78SLPC  H18T 7155   3.322   4.073   8.222  1.1555 -0.3457 -0.1236
   78SLPC   C33 7156   2.067   3.737   7.151  0.0189 -0.6055 -0.4730
   78SLPC   H3X 7157   1.966   3.775   7.172 -0.2175 -0.7999 -1.2281
   78SLPC   H3Y 7158   2.143   3.818   7.156 -1.0084  0.4005 -1.0852
   78SLPC   C34 7159   2.089   3.631   7.261 -0.0182 -0.7325 -0.1353
   78SLPC   H4X 7160   2.184   3.578   7.240 -0.2235  0.0860 -3.4375
   78SLPC   H4Y 7161   2.010   3.553   7.260  0.4057 -1.1662 -1.9368
   78SLPC   C35 7162   2.082   3.694   7.402  0.5232  0.8070  0.5889
   78SLPC   H5X 7163   1.984   3.745   7.417 -0.0586  0.2958 -1.3280
   78SLPC   H5Y 7164   2.158   3.774   7.417  0.3609  1.5108 -2.0526
   78SLPC   C36 7165   2.090   3.591   7.514 -0.4968  0.4451  0.1863
   78SLPC   H6X 7166   2.183   3.533   7.499 -0.3838  0.2985  1.3759
   78SLPC   H6Y 7167   2.004   3.521   7.513 -1.2002  1.3055 -1.2642
   78SLPC   C37 7168   2.092   3.660   7.653 -0.4579  0.5408 -0.3967
   78SLPC   H7X 7169   2.010   3.735   7.665  2.2220  3.1202  3.1719
   78SLPC   H7Y 7170   2.183   3.725   7.662 -1.7729  2.3979 -0.1040
   78SLPC   C38 7171   2.108   3.559   7.775  0.1899 -0.1484 -0.1703
   78SLPC   H8X 7172   2.211   3.518   7.765  0.8811  0.9569  2.1106
   78SLPC   H8Y 7173   2.033   3.478   7.783 -0.9850  1.1072  1.8572
   78SLPC   C39 7174   2.098   3.626   7.912  0.2572 -0.9199 -0.3889
   78SLPC   H9X 7175   2.055   3.557   7.988 -2.8057 -0.2527 -1.4296
   78SLPC   H9Y 7176   2.027   3.710   7.892 -1.0230 -1.8550  0.1634
   78SLPC  C310 7177   2.232   3.687   7.965 -0.0025 -0.6111 -0.1733
   78SLPC  H10X 7178   2.246   3.781   7.909 -2.9785 -0.6469 -1.0452
   78SLPC  H10Y 7179   2.320   3.621   7.949  1.0823  0.8485 -0.3063
   78SLPC  C311 7180   2.218   3.724   8.112 -0.4243 -0.7382  0.3999
   78SLPC  H11X 7181   2.152   3.814   8.112 -0.4672 -0.7711  1.0035
   78SLPC  H11Y 7182   2.307   3.777   8.151 -1.4769  0.9175  0.6345
   78SLPC  C312 7183   2.191   3.611   8.201  0.9836 -0.4329  0.4630
   78SLPC  H12X 7184   2.258   3.528   8.172 -0.0086 -1.3119  0.6697
   78SLPC  H12Y 7185   2.083   3.585   8.197  0.5496  1.2128  0.7915
   78SLPC  C313 7186   2.225   3.640   8.349  0.0290 -0.2441 -0.0600
   78SLPC  H13X 7187   2.143   3.704   8.389  0.9651  1.8167 -1.3575
   78SLPC  H13Y 7188   2.317   3.701   8.356  0.5394 -0.8986 -0.9857
   78SLPC  C314 7189   2.220   3.508   8.428  0.5620  0.6148 -1.0349
   78SLPC  H14X 7190   2.300   3.432   8.417 -0.3531 -1.3465  4.2866
   78SLPC  H14Y 7191   2.128   3.449   8.409  1.2883 -0.2996 -1.7825
   78SLPC  C315 7192   2.219   3.535   8.573  0.4134 -0.3175  0.0144
   78SLPC  H15X 7193   2.162   3.467   8.641 -1.6181  1.9606  0.6501
   78SLPC  H15Y 7194   2.170   3.632   8.593  1.6332 -0.1691  2.3573
   78SLPC  C316 7195   2.371   3.534   8.612 -1.0943  0.0777 -0.4194
   78SLPC  H16X 7196   2.429   3.589   8.534 -0.3958  2.2052  1.5318
   78SLPC  H16Y 7197   2.391   3.425   8.611  1.3933  0.5056 -0.1707
   78SLPC  C317 7198   2.405   3.594   8.749 -0.5547 -0.2125 -0.1693
   78SLPC  H17X 7199   2.508   3.562   8.774 -1.8682 -4.0576  0.5712
   78SLPC  H17Y 7200   2.340   3.552   8.829  1.3757 -1.1591  0.9239
   78SLPC  C318 7201   2.407   3.746   8.747 -0.3681 -0.2544 -0.8277
   78SLPC  H18X 7202   2.508   3.777   8.714  0.3619 -2.3914 -0.7175
   78SLPC  H18Y 7203   2.391   3.778   8.852 -2.6957 -0.6122 -1.0485
   78SLPC  H18Z 7204   2.335   3.796   8.679  0.9048  1.6880 -0.7875
   79SLPC     N 7205   5.716   6.112   5.943 -0.2162  0.8395 -0.0805
   79SLPC   C13 7206   5.673   6.032   5.826 -0.0183  0.2628  0.0362
   79SLPC  H13A 7207   5.742   5.950   5.813 -0.4947 -0.0486 -0.5432
   79SLPC  H13B 7208   5.580   5.981   5.849 -0.6950  0.5191 -2.0576
   79SLPC  H13C 7209   5.656   6.098   5.743 -1.9793  0.0370  0.2349
   79SLPC   C14 7210   5.596   6.196   5.970 -0.6499  0.5608 -0.7144
   79SLPC  H14A 7211   5.573   6.249   5.879 -0.5952  1.1373 -0.3987
   79SLPC  H14B 7212   5.514   6.131   6.000  0.5339 -0.8267 -0.4344
   79SLPC  H14C 7213   5.612   6.277   6.040  1.6823 -3.6180  3.9365
   79SLPC   C15 7214   5.838   6.191   5.908 -0.1843 -0.4538 -0.1046
   79SLPC  H15A 7215   5.883   6.237   5.994  0.4458 -0.6185 -0.3420
   79SLPC  H15B 7216   5.915   6.124   5.872 -0.1144 -0.5934  0.2977
   79SLPC  H15C 7217   5.828   6.268   5.834 -0.7918  0.2447  0.6972
   79SLPC   C12 7218   5.744   6.029   6.066 -0.3575  0.1746  0.2030
   79SLPC  H12A 7219   5.821   5.956   6.043 -0.4230  0.1582  0.0294
   79SLPC  H12B 7220   5.652   5.979   6.092  0.4564 -1.6537 -0.3589
   79SLPC   C11 7221   5.774   6.110   6.195 -2.1136 -0.4316 -0.3470
   79SLPC  H11A 7222   5.750   6.044   6.281 -1.4144 -1.1523 -0.6977
   79SLPC  H11B 7223   5.711   6.200   6.212  0.1834  0.6266  2.9224
   79SLPC     P 7224   6.021   6.062   6.222 -0.3650 -0.2584 -0.3236
   79SLPC   O13 7225   6.003   5.935   6.147 -0.6430 -0.5568  1.0721
   79SLPC   O14 7226   6.151   6.131   6.201  0.1002 -0.1205 -0.0612
   79SLPC   O12 7227   5.903   6.166   6.190  0.3183 -0.1380  0.4432
   79SLPC   O11 7228   6.001   6.047   6.376 -0.2024  0.0713  0.0432
   79SLPC    C1 7229   6.004   6.153   6.472  0.3864 -0.3156  0.0358
   79SLPC    HA 7230   6.107   6.190   6.490  0.3410  0.5662 -1.4860
   79SLPC    HB 7231   5.933   6.233   6.441 -2.0772 -2.5914 -0.3677
   79SLPC    C2 7232   5.952   6.103   6.612 -0.0788 -0.0069 -0.3036
   79SLPC    HS 7233   5.927   6.187   6.680 -2.6683 -1.9964  1.3096
   79SLPC   O21 7234   6.049   6.012   6.675  0.0480  0.1430 -0.0335
   79SLPC   C21 7235   6.142   6.063   6.747 -0.4303  0.0889  0.3590
   79SLPC   O22 7236   6.173   6.182   6.751 -1.1404 -1.0284  0.5352
   79SLPC   C22 7237   6.218   5.942   6.811 -1.0172  0.0148  0.2052
   79SLPC   H2R 7238   6.146   5.858   6.827 -0.6766 -0.4451 -0.6687
   79SLPC   H2S 7239   6.294   5.906   6.739 -2.1675 -0.8132 -0.6047
   79SLPC    C3 7240   5.816   6.039   6.595 -0.5135  0.7389  0.4705
   79SLPC    HX 7241   5.836   5.941   6.547 -1.3844  0.3443  0.8873
   79SLPC    HY 7242   5.759   6.101   6.523 -0.0408 -1.3737 -1.7947
   79SLPC   O31 7243   5.740   6.034   6.711 -0.2353  0.3894  0.2693
   79SLPC   C31 7244   5.725   5.917   6.768 -0.7076 -0.1350 -0.4676
   79SLPC   O32 7245   5.745   5.809   6.716  0.0503 -0.4386 -0.1689
   79SLPC   C32 7246   5.673   5.943   6.909 -0.1681  0.0461 -0.7865
   79SLPC   H2X 7247   5.563   5.929   6.902 -0.3447  0.5206  0.8526
   79SLPC   H2Y 7248   5.696   6.040   6.958 -0.7141 -0.5802  0.7317
   79SLPC   C23 7249   6.296   5.991   6.941 -0.2625 -0.1121 -0.1333
   79SLPC   H3R 7250   6.337   6.092   6.917  0.1608 -0.1757  0.3291
   79SLPC   H3S 7251   6.386   5.927   6.954 -1.0652 -1.1377  0.4567
   79SLPC   C24 7252   6.217   6.010   7.070  0.7157  0.2002  0.5475
   79SLPC   H4R 7253   6.144   5.926   7.080 -1.7513  2.3787  1.3131
   79SLPC   H4S 7254   6.159   6.104   7.056  2.9765  1.5087 -0.3461
   79SLPC   C25 7255   6.305   6.029   7.195 -0.4795 -0.1290  0.1972
   79SLPC   H5R 7256   6.356   6.127   7.182 -1.9472  0.2938 -2.9986
   79SLPC   H5S 7257   6.384   5.951   7.201 -1.4361 -1.0640  0.8274
   79SLPC   C26 7258   6.211   6.030   7.317  0.6640 -0.0601 -0.4777
   79SLPC   H6R 7259   6.166   5.928   7.316  1.6582 -0.5420 -3.5933
   79SLPC   H6S 7260   6.132   6.107   7.307  0.9491  0.1730 -0.9670
   79SLPC   C27 7261   6.291   6.048   7.448 -0.1604 -0.0905 -0.2927
   79SLPC   H7R 7262   6.352   6.140   7.440 -0.1260  0.1272  2.0016
   79SLPC   H7S 7263   6.357   5.961   7.427  3.2292  1.4946  3.2020
   79SLPC   C28 7264   6.214   6.033   7.575  0.2676 -0.3469  0.1115
   79SLPC   H8R 7265   6.286   6.043   7.659  0.9870  0.6834 -0.6061
   79SLPC   H8S 7266   6.166   5.933   7.571 -1.0774  0.2888 -0.0822
   79SLPC   C29 7267   6.108   6.138   7.599  0.3982  0.3764  0.3307
   79SLPC   H9R 7268   6.042   6.164   7.515  1.6474  0.9099 -0.4955
   79SLPC  C210 7269   6.079   6.202   7.714  0.1820  0.4129 -0.5606
   79SLPC  H10R 7270   6.001   6.278   7.704  0.3771  0.6361 -0.3918
   79SLPC  C211 7271   6.151   6.192   7.847  0.1712 -0.4245 -0.4156
   79SLPC  H11R 7272   6.177   6.296   7.875 -2.8474  0.1060  0.6522
   79SLPC  H11S 7273   6.249   6.140   7.843  0.1332 -0.6391  1.0546
   79SLPC  C212 7274   6.080   6.116   7.961 -0.5740 -0.5318  0.6179
   79SLPC  H12R 7275   6.006   6.040   7.933  0.5607 -1.2948 -0.3805
   79SLPC  C213 7276   6.100   6.131   8.092 -0.2049 -0.4425 -0.0019
   79SLPC  H13R 7277   6.038   6.079   8.167  0.2637 -1.3136 -0.2082
   79SLPC  C214 7278   6.201   6.230   8.141 -0.1911  0.2456  0.1216
   79SLPC  H14R 7279   6.175   6.326   8.091 -0.9929  0.3181  0.6655
   79SLPC  H14S 7280   6.308   6.210   8.119 -0.3268  0.5561 -0.8386
   79SLPC  C215 7281   6.186   6.234   8.299  0.4235  0.2605  0.2306
   79SLPC  H15R 7282   6.080   6.221   8.330  0.3725 -0.1312 -0.1049
   79SLPC  H15S 7283   6.226   6.335   8.322  2.3839 -0.7558  1.3946
   79SLPC  C216 7284   6.273   6.130   8.378  0.1840 -0.8148 -0.2462
   79SLPC  H16R 7285   6.378   6.155   8.352  0.4856 -2.2406 -0.4089
   79SLPC  H16S 7286   6.251   6.033   8.330 -0.4409  0.7156 -3.1914
   79SLPC  C217 7287   6.240   6.114   8.527 -0.7113 -0.7529  0.3527
   79SLPC  H17R 7288   6.137   6.076   8.545 -0.5462 -0.9584  0.8700
   79SLPC  H17S 7289   6.237   6.221   8.557 -0.3958 -1.1030  1.6903
   79SLPC  C218 7290   6.345   6.037   8.602  1.4856  0.2544  0.1013
   79SLPC  H18R 7291   6.344   5.932   8.566  2.8854 -0.4191  1.9783
   79SLPC  H18S 7292   6.324   6.033   8.711  2.3202 -0.0328  0.2520
   79SLPC  H18T 7293   6.448   6.062   8.570  1.9257 -1.7303 -0.0883
   79SLPC   C33 7294   5.719   5.843   7.018  0.3062 -0.5964 -0.5281
   79SLPC   H3X 7295   5.721   5.742   6.971 -0.0607 -1.3780  1.1198
   79SLPC   H3Y 7296   5.637   5.826   7.092  0.0532  0.0986 -0.6437
   79SLPC   C34 7297   5.858   5.861   7.078  0.0270 -0.8843  0.2201
   79SLPC   H4X 7298   5.869   5.970   7.098 -2.3623 -0.1856 -1.9378
   79SLPC   H4Y 7299   5.934   5.827   7.004  0.3729 -0.3706  0.3319
   79SLPC   C35 7300   5.873   5.790   7.215 -0.4026  0.6472  0.2651
   79SLPC   H5X 7301   5.983   5.777   7.226 -0.3689  0.7965  0.1112
   79SLPC   H5Y 7302   5.835   5.687   7.198  0.9053  0.1598  0.2148
   79SLPC   C36 7303   5.806   5.850   7.332  0.1781 -0.0140  0.5728
   79SLPC   H6X 7304   5.696   5.858   7.319  0.6134  2.3812 -2.1706
   79SLPC   H6Y 7305   5.840   5.955   7.347  2.5652 -0.8128  0.9309
   79SLPC   C37 7306   5.847   5.772   7.457 -0.2035 -0.0525  0.1664
   79SLPC   H7X 7307   5.947   5.805   7.493 -0.1884 -0.3597  0.4058
   79SLPC   H7Y 7308   5.837   5.663   7.439 -1.7078  0.4036 -1.9143
   79SLPC   C38 7309   5.756   5.796   7.589 -0.2656 -0.1438  0.7866
   79SLPC   H8X 7310   5.712   5.697   7.612 -1.7388  0.9683  3.0092
   79SLPC   H8Y 7311   5.683   5.878   7.572 -2.6196 -2.4450 -0.5371
   79SLPC   C39 7312   5.839   5.829   7.713 -0.1542  0.4533 -0.2030
   79SLPC   H9X 7313   5.766   5.843   7.795 -1.1780 -0.9099 -0.8433
   79SLPC   H9Y 7314   5.895   5.922   7.692  0.6878 -0.5312 -2.5104
   79SLPC  C310 7315   5.944   5.713   7.753 -0.4625 -0.7142  0.1472
   79SLPC  H10X 7316   6.013   5.704   7.667 -0.4820  0.1611  0.0401
   79SLPC  H10Y 7317   5.906   5.613   7.784  1.3272 -1.1173  1.1234
   79SLPC  C311 7318   6.042   5.758   7.857 -0.1836 -0.4086 -0.8447
   79SLPC  H11X 7319   5.977   5.795   7.939  0.6605 -0.4048 -0.1624
   79SLPC  H11Y 7320   6.112   5.838   7.825 -1.5066  1.2199  0.2679
   79SLPC  C312 7321   6.125   5.650   7.924 -0.1076  0.1288  0.5367
   79SLPC  H12X 7322   6.190   5.613   7.842 -0.4396 -0.6320  0.6098
   79SLPC  H12Y 7323   6.051   5.573   7.954  1.0167 -0.1560  2.6787
   79SLPC  C313 7324   6.214   5.693   8.039  0.3159  0.5959  0.4288
   79SLPC  H13X 7325   6.146   5.728   8.120 -1.6840  2.6911 -2.0552
   79SLPC  H13Y 7326   6.282   5.776   8.009 -0.1568  1.2128  1.0353
   79SLPC  C314 7327   6.291   5.576   8.097 -0.1308  0.2605 -0.2863
   79SLPC  H14X 7328   6.366   5.538   8.024  1.4498  0.3364  1.2812
   79SLPC  H14Y 7329   6.227   5.490   8.126  0.4083  0.2907  1.0281
   79SLPC  C315 7330   6.373   5.618   8.218  0.4844  0.2920  0.2310
   79SLPC  H15X 7331   6.309   5.636   8.307  1.2901 -1.4243  1.1848
   79SLPC  H15Y 7332   6.439   5.704   8.195 -0.1899  0.5509 -0.7829
   79SLPC  C316 7333   6.462   5.503   8.262 -0.6741 -0.7641 -0.1748
   79SLPC  H16X 7334   6.529   5.488   8.175 -0.3024  0.1918 -0.0643
   79SLPC  H16Y 7335   6.387   5.422   8.272  0.2665 -1.6067  0.2214
   79SLPC  C317 7336   6.568   5.523   8.374 -0.0917 -0.8150  0.1055
   79SLPC  H17X 7337   6.634   5.594   8.321 -1.4089  0.3058 -0.0610
   79SLPC  H17Y 7338   6.605   5.421   8.400  0.8938  0.2060  2.9288
   79SLPC  C318 7339   6.525   5.594   8.505  0.3325 -0.2823 -0.1076
   79SLPC  H18X 7340   6.528   5.705   8.500 -1.2580 -0.2171 -0.0321
   79SLPC  H18Y 7341   6.594   5.568   8.588  0.5022 -0.0978 -0.1904
   79SLPC  H18Z 7342   6.419   5.563   8.521  0.4907 -0.7387  0.0391
   80SLPC     N 7343   0.468   3.773   6.448 -0.4321 -0.1462  0.1312
   80SLPC   C13 7344   0.418   3.634   6.451 -0.0277  0.1885  0.7954
   80SLPC  H13A 7345   0.468   3.584   6.533  2.0693  1.5034  0.3510
   80SLPC  H13B 7346   0.312   3.627   6.471  0.2345 -0.1098  2.1338
   80SLPC  H13C 7347   0.452   3.582   6.363 -0.8333 -1.0582  1.2016
   80SLPC   C14 7348   0.402   3.853   6.551 -0.2285 -0.2723 -0.2380
   80SLPC  H14A 7349   0.303   3.885   6.520 -0.1969 -0.5243 -0.6004
   80SLPC  H14B 7350   0.380   3.802   6.644  1.8828 -1.4180 -0.3588
   80SLPC  H14C 7351   0.459   3.941   6.574 -0.3328  0.6386 -3.3064
   80SLPC   C15 7352   0.436   3.841   6.316  0.5531  0.4319  0.4290
   80SLPC  H15A 7353   0.476   3.799   6.224 -1.1708 -2.3854  0.8932
   80SLPC  H15B 7354   0.329   3.828   6.307  0.4816  0.2779  1.5118
   80SLPC  H15C 7355   0.458   3.945   6.330 -2.8548  1.3583 -0.4856
   80SLPC   C12 7356   0.616   3.770   6.478  0.4764  0.2355 -0.4560
   80SLPC  H12A 7357   0.637   3.717   6.570 -0.2761 -2.1499 -1.6004
   80SLPC  H12B 7358   0.662   3.867   6.479 -0.2232  0.5578  0.4149
   80SLPC   C11 7359   0.706   3.681   6.386  0.4511 -0.2695 -0.3025
   80SLPC  H11A 7360   0.808   3.713   6.418  0.3239  0.9613 -1.0933
   80SLPC  H11B 7361   0.694   3.707   6.279 -0.9507 -0.2869 -0.1601
   80SLPC     P 7362   0.789   3.438   6.362 -0.1956 -0.2403  0.1475
   80SLPC   O13 7363   0.716   3.310   6.345  0.3029 -0.6585 -0.5509
   80SLPC   O14 7364   0.878   3.484   6.257  0.4026  0.2890  0.1066
   80SLPC   O12 7365   0.684   3.543   6.403 -0.1945  0.1418  0.3010
   80SLPC   O11 7366   0.868   3.423   6.496 -0.0850 -0.5455  0.5331
   80SLPC    C1 7367   0.819   3.361   6.619  0.8251  0.0311 -0.4719
   80SLPC    HA 7368   0.756   3.272   6.600 -0.0922 -0.0395  2.6102
   80SLPC    HB 7369   0.901   3.318   6.680  0.4210  1.0516  0.8047
   80SLPC    C2 7370   0.733   3.458   6.704 -0.3374 -0.2943 -0.4161
   80SLPC    HS 7371   0.672   3.518   6.633 -0.1914 -1.4882 -1.5711
   80SLPC   O21 7372   0.822   3.538   6.784  0.8238  0.7676 -0.1966
   80SLPC   C21 7373   0.764   3.655   6.823  0.2324  0.4607 -0.0169
   80SLPC   O22 7374   0.664   3.707   6.771  0.1265 -1.1483 -0.1760
   80SLPC   C22 7375   0.844   3.715   6.934  0.3377 -0.5394  0.0105
   80SLPC   H2R 7376   0.885   3.629   6.992 -1.7388 -2.0733 -0.7536
   80SLPC   H2S 7377   0.920   3.783   6.891  0.1347 -0.4143 -0.1447
   80SLPC    C3 7378   0.633   3.379   6.796 -0.0794 -0.4434 -0.2476
   80SLPC    HX 7379   0.569   3.316   6.730  0.9665 -0.0396 -1.6672
   80SLPC    HY 7380   0.565   3.452   6.845 -2.0736 -2.0030 -0.6367
   80SLPC   O31 7381   0.705   3.290   6.885 -0.2285  0.1917 -0.3588
   80SLPC   C31 7382   0.716   3.333   7.009 -0.3236 -0.3043  0.2132
   80SLPC   O32 7383   0.646   3.426   7.056 -0.7340 -0.1902 -0.3086
   80SLPC   C32 7384   0.810   3.242   7.094 -0.3595 -0.7130 -0.2971
   80SLPC   H2X 7385   0.795   3.134   7.074 -0.8875 -0.2977 -2.2935
   80SLPC   H2Y 7386   0.788   3.244   7.203 -0.8320 -2.8987 -0.3270
   80SLPC   C23 7387   0.755   3.801   7.027 -0.4058 -0.0588  0.7152
   80SLPC   H3R 7388   0.663   3.745   7.055  0.0778 -1.1273  0.2363
   80SLPC   H3S 7389   0.726   3.888   6.965  1.8458  1.9368  2.4090
   80SLPC   C24 7390   0.835   3.835   7.157  0.8843 -0.3501  0.5300
   80SLPC   H4R 7391   0.944   3.855   7.142  0.3510  1.0514 -1.7138
   80SLPC   H4S 7392   0.834   3.742   7.217 -0.2026 -0.7354 -0.0671
   80SLPC   C25 7393   0.766   3.942   7.248 -0.5173  0.3561  0.1220
   80SLPC   H5R 7394   0.655   3.938   7.251 -0.4298 -2.3765  0.3951
   80SLPC   H5S 7395   0.779   4.045   7.207  2.7192 -0.3560 -0.8191
   80SLPC   C26 7396   0.819   3.927   7.392  0.2204  0.3295 -0.6612
   80SLPC   H6R 7397   0.928   3.905   7.392 -0.2425 -2.3621 -2.7629
   80SLPC   H6S 7398   0.788   3.828   7.432  1.1530 -0.4270 -1.7636
   80SLPC   C27 7399   0.780   4.045   7.481 -0.2640  0.5181 -0.2182
   80SLPC   H7R 7400   0.672   4.042   7.456 -1.3698  2.5543  3.8786
   80SLPC   H7S 7401   0.827   4.140   7.447  0.4791 -0.0662 -0.8568
   80SLPC   C28 7402   0.794   4.021   7.641 -0.2870 -0.0460 -0.8587
   80SLPC   H8R 7403   0.703   3.968   7.676 -0.0313 -0.5723 -0.9894
   80SLPC   H8S 7404   0.799   4.122   7.687 -0.6023 -1.5030  2.4778
   80SLPC   C29 7405   0.923   3.949   7.685  0.3926  0.4997  0.1694
   80SLPC   H9R 7406   0.990   3.937   7.599 -1.6219  0.3618 -1.4141
   80SLPC  C210 7407   0.948   3.911   7.809 -0.7379  0.2100  0.1168
   80SLPC  H10R 7408   1.032   3.841   7.809  0.7190  1.9083  0.2966
   80SLPC  C211 7409   0.863   3.933   7.933  0.5780 -0.1108  0.3420
   80SLPC  H11R 7410   0.887   3.857   8.011  1.8156 -2.0868 -1.8888
   80SLPC  H11S 7411   0.756   3.920   7.909  0.3545  2.5023 -0.1687
   80SLPC  C212 7412   0.882   4.067   7.995  0.1811 -0.0618 -0.3639
   80SLPC  H12R 7413   0.938   4.139   7.933 -1.9893  0.7015 -1.4883
   80SLPC  C213 7414   0.840   4.103   8.116 -0.1215  0.0149 -0.5474
   80SLPC  H13R 7415   0.857   4.205   8.153 -1.5813  0.1353 -0.1820
   80SLPC  C214 7416   0.756   4.015   8.207  0.0111 -0.5172 -0.0706
   80SLPC  H14R 7417   0.722   3.924   8.153 -1.2796 -0.7602  1.1071
   80SLPC  H14S 7418   0.666   4.068   8.245 -0.0464 -1.8730  1.7753
   80SLPC  C215 7419   0.831   3.973   8.339 -0.1827  0.3964 -0.3300
   80SLPC  H15R 7420   0.761   3.917   8.404  0.7933  0.5548  0.8716
   80SLPC  H15S 7421   0.861   4.064   8.396 -1.9104 -1.3535  3.5179
   80SLPC  C216 7422   0.959   3.884   8.313  0.3101  0.0903  0.0988
   80SLPC  H16R 7423   1.021   3.934   8.236 -1.6360  0.1991 -1.4398
   80SLPC  H16S 7424   0.926   3.785   8.274  1.2603 -0.9117  1.7757
   80SLPC  C217 7425   1.041   3.855   8.435 -0.7557 -0.4345 -0.4787
   80SLPC  H17R 7426   0.977   3.788   8.496 -0.8652  0.2911  0.2089
   80SLPC  H17S 7427   1.054   3.948   8.495  0.8961 -1.3007  0.5278
   80SLPC  C218 7428   1.171   3.779   8.402 -0.5162  0.5949 -0.1973
   80SLPC  H18R 7429   1.226   3.754   8.495 -2.1435  1.5354  1.0528
   80SLPC  H18S 7430   1.237   3.841   8.339 -1.5331  0.6285 -1.2582
   80SLPC  H18T 7431   1.143   3.679   8.361  1.9611 -0.6817  1.1387
   80SLPC   C33 7432   0.958   3.280   7.079  0.0537 -0.0261  0.2502
   80SLPC   H3X 7433   0.972   3.389   7.090 -0.0816 -0.1010  1.2700
   80SLPC   H3Y 7434   1.005   3.239   6.987  1.4949  2.5396 -0.2103
   80SLPC   C34 7435   1.035   3.219   7.195  0.2195 -0.5632 -0.2621
   80SLPC   H4X 7436   1.023   3.109   7.190 -0.2237 -0.6683  2.2286
   80SLPC   H4Y 7437   0.984   3.263   7.284 -0.6366  0.4934 -1.2533
   80SLPC   C35 7438   1.184   3.252   7.190  0.5267  0.5397  0.9675
   80SLPC   H5X 7439   1.223   3.352   7.222  1.8290  0.3425  0.0347
   80SLPC   H5Y 7440   1.227   3.252   7.088  0.6192 -1.3446  0.9877
   80SLPC   C36 7441   1.257   3.146   7.270  0.4977 -0.8449 -0.7337
   80SLPC   H6X 7442   1.362   3.125   7.243  1.1703  1.1377  0.2550
   80SLPC   H6Y 7443   1.205   3.049   7.254 -3.1794  0.9686 -0.5066
   80SLPC   C37 7444   1.258   3.183   7.421  0.1337 -0.5986  0.0178
   80SLPC   H7X 7445   1.167   3.237   7.453  1.7119  3.6682 -2.2480
   80SLPC   H7Y 7446   1.334   3.259   7.452 -0.9361 -0.2425  1.8441
   80SLPC   C38 7447   1.277   3.067   7.523  0.2744 -0.5221 -0.4225
   80SLPC   H8X 7448   1.375   3.017   7.508  0.4136  0.3744 -2.6992
   80SLPC   H8Y 7449   1.195   2.995   7.505  0.0746 -0.8170  1.5927
   80SLPC   C39 7450   1.264   3.101   7.674  0.4049  0.2489  0.2404
   80SLPC   H9X 7451   1.279   3.009   7.735  2.5691  1.9980  2.4215
   80SLPC   H9Y 7452   1.160   3.133   7.698  0.6069  0.2352  1.1393
   80SLPC  C310 7453   1.363   3.208   7.717 -0.3497  0.0873 -0.1290
   80SLPC  H10X 7454   1.342   3.312   7.683  0.4484  0.0207 -0.8380
   80SLPC  H10Y 7455   1.462   3.184   7.675  0.1884  1.1214  0.5211
   80SLPC  C311 7456   1.384   3.225   7.871 -0.5318  0.0797  0.3061
   80SLPC  H11X 7457   1.480   3.280   7.884 -2.0876  2.9700 -0.2114
   80SLPC  H11Y 7458   1.404   3.126   7.918 -0.5042 -0.0337  0.0549
   80SLPC  C312 7459   1.270   3.285   7.955 -0.6669  0.5448 -0.2490
   80SLPC  H12X 7460   1.197   3.201   7.959  0.6872 -0.5664  2.1212
   80SLPC  H12Y 7461   1.220   3.371   7.905 -1.7484  0.2369  0.2938
   80SLPC  C313 7462   1.305   3.324   8.100 -0.4216 -0.5926  0.6301
   80SLPC  H13X 7463   1.366   3.416   8.091 -0.5492 -0.6628 -1.3537
   80SLPC  H13Y 7464   1.370   3.251   8.152 -0.9486 -1.9631 -0.6039
   80SLPC  C314 7465   1.179   3.345   8.185 -0.8018 -0.1937  0.1630
   80SLPC  H14X 7466   1.122   3.249   8.189 -2.6247  0.8039 -1.0760
   80SLPC  H14Y 7467   1.103   3.403   8.127  0.8178  0.6049 -1.2174
   80SLPC  C315 7468   1.215   3.391   8.324  0.0470 -0.1278 -0.1553
   80SLPC  H15X 7469   1.263   3.492   8.324 -0.1713 -0.0071  1.5589
   80SLPC  H15Y 7470   1.287   3.320   8.370 -0.7919 -1.0669 -0.2840
   80SLPC  C316 7471   1.090   3.383   8.410  0.0747 -1.1319  0.0670
   80SLPC  H16X 7472   1.071   3.274   8.417  2.6940 -1.5688  0.9616
   80SLPC  H16Y 7473   1.008   3.436   8.356  0.1541 -1.2212 -0.1417
   80SLPC  C317 7474   1.098   3.426   8.555 -0.7252  0.1463 -0.7536
   80SLPC  H17X 7475   1.133   3.532   8.552  0.4989 -0.0733  3.1714
   80SLPC  H17Y 7476   1.188   3.380   8.602 -1.6204  0.8172  1.6709
   80SLPC  C318 7477   0.975   3.402   8.643  0.5047  0.0468  0.1353
   80SLPC  H18X 7478   0.988   3.453   8.741 -0.3516  1.1308 -0.3097
   80SLPC  H18Y 7479   0.950   3.293   8.639 -0.7475  0.3091  0.7485
   80SLPC  H18Z 7480   0.897   3.464   8.594  0.6226  0.4808  0.4983
   81SAPS     N 7481   1.346   5.376  10.961  0.8560  0.3078  0.0901
   81SAPS   HN1 7482   1.302   5.310  10.893 -0.6442 -0.5648  1.8768
   81SAPS   HN2 7483   1.417   5.434  10.911  0.0189  3.3566  2.3434
   81SAPS   HN3 7484   1.387   5.322  11.040  1.2770  1.2262  0.5084
   81SAPS   C12 7485   1.229   5.458  11.002  0.0928  0.0397 -0.4504
   81SAPS  H12A 7486   1.155   5.470  10.925  0.8050  2.0860 -0.8621
   81SAPS   C13 7487   1.147   5.415  11.123 -0.3490  0.3279 -0.1491
   81SAPS  O13A 7488   1.182   5.324  11.197 -0.4492 -0.0988 -0.4485
   81SAPS  O13B 7489   1.045   5.484  11.148 -0.8862 -0.2236  0.1540
   81SAPS   C11 7490   1.291   5.600  11.027 -0.0616 -0.8796 -0.3317
   81SAPS  H11A 7491   1.358   5.595  11.115 -0.3982 -1.2343 -0.0959
   81SAPS  H11B 7492   1.197   5.656  11.049 -0.3979 -1.1521 -1.0422
   81SAPS     P 7493   1.335   5.800  10.863 -0.2601 -0.3081 -0.1910
   81SAPS   O13 7494   1.337   5.900  10.973 -0.6944 -0.0216 -0.0399
   81SAPS   O14 7495   1.433   5.823  10.756 -0.4414 -0.4856  0.1009
   81SAPS   O12 7496   1.360   5.651  10.914  0.2299 -0.4904 -0.1133
   81SAPS   O11 7497   1.185   5.793  10.812 -0.4169 -0.1047 -0.0318
   81SAPS    C1 7498   1.135   5.709  10.710 -0.3873  0.0940  0.3450
   81SAPS    HA 7499   1.198   5.618  10.696 -0.0876  0.5316 -1.2057
   81SAPS    HB 7500   1.030   5.680  10.729 -1.2564  1.2917 -2.5205
   81SAPS    C2 7501   1.137   5.770  10.569  0.5972 -0.7077  0.2762
   81SAPS    HS 7502   1.080   5.706  10.499  0.7919 -1.0455  0.4288
   81SAPS   O21 7503   1.276   5.792  10.517  0.5525  0.2887 -0.1814
   81SAPS   C21 7504   1.333   5.687  10.467  0.6868  0.6680 -0.3525
   81SAPS   O22 7505   1.279   5.574  10.465  0.4527 -0.1949 -0.5860
   81SAPS   C22 7506   1.470   5.727  10.410 -0.3724  0.5584 -0.4234
   81SAPS   H2R 7507   1.478   5.836  10.391  0.3537  0.5054 -0.4264
   81SAPS   H2S 7508   1.544   5.705  10.490  1.5943  2.4989 -1.6495
   81SAPS    C3 7509   1.072   5.919  10.574  0.5834  0.0250 -0.6935
   81SAPS    HX 7510   1.133   5.992  10.631  1.2596 -0.7943 -0.3497
   81SAPS    HY 7511   0.977   5.907  10.631  2.6211 -0.4038  2.8071
   81SAPS   O31 7512   1.048   5.975  10.441 -0.0194  0.2032  0.4248
   81SAPS   C31 7513   1.127   6.067  10.401  0.1961  0.3541  0.7444
   81SAPS   O32 7514   1.228   6.112  10.458 -0.0263 -0.2198 -0.1449
   81SAPS   C32 7515   1.082   6.121  10.264  0.1486 -0.5584  0.0469
   81SAPS   H2X 7516   1.108   6.230  10.266  1.5205 -0.8628 -0.5315
   81SAPS   H2Y 7517   0.974   6.100  10.251 -0.0929 -0.1985  1.4374
   81SAPS   C23 7518   1.522   5.652  10.291  0.5080 -0.2747 -0.0139
   81SAPS   H3R 7519   1.485   5.547  10.294  3.0110 -1.2881 -2.8168
   81SAPS   H3S 7520   1.633   5.650  10.300  0.3423 -3.7809  2.4772
   81SAPS   C24 7521   1.493   5.725  10.148 -0.4111  1.0973  0.5146
   81SAPS   H4R 7522   1.556   5.679  10.069 -0.4722  2.2235 -0.1978
   81SAPS   H4S 7523   1.533   5.828  10.147 -0.2958  1.0502 -0.2412
   81SAPS   C25 7524   1.343   5.729  10.119  0.1056  0.8777 -0.8182
   81SAPS   H5R 7525   1.282   5.772  10.200  0.8111  0.3824 -0.0130
   81SAPS   C26 7526   1.279   5.678  10.009 -1.0992  0.3730 -0.1420
   81SAPS   H6R 7527   1.169   5.681  10.010 -1.1344 -0.8878 -0.0339
   81SAPS   C27 7528   1.347   5.618   9.885 -0.0024  0.2296 -0.0084
   81SAPS   H7R 7529   1.441   5.563   9.906 -0.1702 -0.1116 -0.1346
   81SAPS   H7S 7530   1.370   5.699   9.813 -2.5108 -0.0190 -1.1615
   81SAPS   C28 7531   1.248   5.534   9.806 -0.4502  0.0783  0.6988
   81SAPS   H8R 7532   1.146   5.521   9.847 -0.4746 -1.5843  0.1476
   81SAPS   C29 7533   1.274   5.477   9.687 -0.0706 -0.6255  0.0176
   81SAPS   H9R 7534   1.206   5.393   9.666 -0.0624 -0.1926 -1.8019
   81SAPS  C210 7535   1.399   5.489   9.603 -0.5115  0.6464  0.4015
   81SAPS  H10R 7536   1.436   5.384   9.596 -3.3974 -0.4607  1.2383
   81SAPS  H10S 7537   1.463   5.553   9.667 -0.1954 -0.9975  1.7658
   81SAPS  C211 7538   1.388   5.545   9.467  0.0908  0.1555  0.0596
   81SAPS  H11R 7539   1.300   5.607   9.448  0.8901  1.9432  1.9947
   81SAPS  C212 7540   1.476   5.548   9.372 -0.0797 -0.3467  0.5379
   81SAPS  H12R 7541   1.448   5.586   9.273  0.5408  0.2177  0.5748
   81SAPS  C213 7542   1.612   5.482   9.374  0.0185 -0.2419 -0.7919
   81SAPS  H13R 7543   1.632   5.431   9.470 -2.1525 -1.0853 -0.7581
   81SAPS  H13S 7544   1.694   5.558   9.375 -1.4348  1.3526 -1.3671
   81SAPS  C214 7545   1.626   5.383   9.263  0.0047  0.5610 -0.2784
   81SAPS  H14R 7546   1.538   5.356   9.203 -0.4897 -1.5384  1.3185
   81SAPS  C215 7547   1.741   5.317   9.243  0.4907  0.4400  0.5344
   81SAPS  H15R 7548   1.750   5.246   9.159  0.8708  0.2935  0.6979
   81SAPS  C216 7549   1.864   5.337   9.323 -0.4446 -0.4078  0.2958
   81SAPS  H16R 7550   1.889   5.444   9.343 -0.9738 -0.2097 -0.1178
   81SAPS  H16S 7551   1.950   5.299   9.264  0.4132 -0.9082  1.8276
   81SAPS  C217 7552   1.849   5.254   9.446  0.6559  0.4968  0.6715
   81SAPS  H17R 7553   1.847   5.146   9.417  2.3770  0.3979  0.8979
   81SAPS  H17S 7554   1.751   5.269   9.496 -0.4320  0.8668 -1.5049
   81SAPS  C218 7555   1.956   5.283   9.544 -0.3518 -0.6700  0.6816
   81SAPS  H18R 7556   2.054   5.252   9.502  0.7718 -0.5327  3.1227
   81SAPS  H18S 7557   1.933   5.198   9.611  0.0478 -1.6465 -0.4047
   81SAPS  C219 7558   1.968   5.418   9.621  0.0648  0.0991  0.4790
   81SAPS  H19R 7559   1.979   5.500   9.547 -2.4644  0.2234  0.1771
   81SAPS  H19S 7560   2.059   5.415   9.684  0.1335  3.0665  0.5805
   81SAPS  C220 7561   1.852   5.450   9.715 -0.1219  0.0488  0.2094
   81SAPS  H20R 7562   1.844   5.381   9.801  0.9551 -1.1788 -0.6723
   81SAPS  H20S 7563   1.757   5.456   9.656 -0.0243 -1.8591 -0.1673
   81SAPS  H20T 7564   1.872   5.554   9.750 -1.4556  1.0911 -1.9751
   81SAPS   C33 7565   1.170   6.048  10.156 -0.1903 -0.1002 -0.2607
   81SAPS   H3X 7566   1.132   5.944  10.146  0.2846 -0.1437 -1.9152
   81SAPS   H3Y 7567   1.278   6.050  10.182  0.5145 -0.5618 -2.9419
   81SAPS   C34 7568   1.165   6.100  10.008  0.5866  0.4716 -0.9695
   81SAPS   H4X 7569   1.214   6.024   9.943 -0.3890 -1.8417  0.9033
   81SAPS   H4Y 7570   1.218   6.197   9.994 -2.4729  2.4985  0.9816
   81SAPS   C35 7571   1.026   6.138   9.961  1.1460 -0.2093 -0.6602
   81SAPS   H5X 7572   1.003   6.228  10.022 -0.3546  1.7500 -3.9631
   81SAPS   H5Y 7573   0.952   6.058   9.980 -0.7032  1.1369 -1.9429
   81SAPS   C36 7574   1.014   6.177   9.813 -0.3717 -0.3704  0.0233
   81SAPS   H6X 7575   1.076   6.268   9.795 -0.3769 -0.2525  0.6067
   81SAPS   H6Y 7576   0.911   6.210   9.788 -0.0038  0.2779 -0.6655
   81SAPS   C37 7577   1.050   6.059   9.716 -0.6343  0.3412 -0.2493
   81SAPS   H7X 7578   0.965   5.989   9.712 -0.1842 -0.4049  2.3258
   81SAPS   H7Y 7579   1.146   6.009   9.742 -0.9860 -1.0677 -1.6407
   81SAPS   C38 7580   1.070   6.117   9.578  0.2954  0.1913  0.1657
   81SAPS   H8X 7581   1.153   6.190   9.588 -0.1969  0.7356  0.3149
   81SAPS   H8Y 7582   0.977   6.158   9.533 -1.2703 -1.3454  1.9179
   81SAPS   C39 7583   1.101   6.001   9.476  0.3280 -0.8772 -0.5121
   81SAPS   H9X 7584   1.002   5.955   9.458  0.2046 -0.2023 -1.6226
   81SAPS   H9Y 7585   1.179   5.943   9.531  1.8477  1.6880  0.1301
   81SAPS  C310 7586   1.154   6.046   9.340 -0.0031 -1.1468  0.2774
   81SAPS  H10X 7587   1.253   6.095   9.338 -0.1363 -0.8486  0.8374
   81SAPS  H10Y 7588   1.075   6.118   9.308  2.1069  0.9330 -0.3309
   81SAPS  C311 7589   1.157   5.930   9.241  0.5182  0.1165  0.0199
   81SAPS  H11X 7590   1.049   5.910   9.219  0.2491 -3.0425  3.6755
   81SAPS  H11Y 7591   1.209   5.847   9.293 -1.2615 -0.3892  1.0319
   81SAPS  C312 7592   1.235   5.953   9.112 -0.3151 -0.1521 -0.1610
   81SAPS  H12X 7593   1.342   5.954   9.142 -1.1621  0.8428  3.0488
   81SAPS  H12Y 7594   1.226   6.054   9.068  2.2843 -1.1458 -3.1444
   81SAPS  C313 7595   1.215   5.847   9.005 -0.2591  0.3092  0.1027
   81SAPS  H13X 7596   1.112   5.864   8.967 -0.2574 -0.3229 -0.1981
   81SAPS  H13Y 7597   1.218   5.745   9.049 -0.3008 -0.2495 -1.1821
   81SAPS  C314 7598   1.297   5.863   8.878 -0.3103  0.9155  0.7465
   81SAPS  H14X 7599   1.401   5.826   8.888 -0.7264 -0.2521  0.8227
   81SAPS  H14Y 7600   1.318   5.972   8.872  2.5174  0.3422 -0.7426
   81SAPS  C315 7601   1.233   5.801   8.750 -0.2963  0.5192  0.0106
   81SAPS  H15X 7602   1.151   5.874   8.730  0.6794  1.5396 -0.2746
   81SAPS  H15Y 7603   1.195   5.698   8.769  2.5014 -0.4232  0.7380
   81SAPS  C316 7604   1.327   5.781   8.632 -1.0003 -0.5368 -0.5461
   81SAPS  H16X 7605   1.259   5.747   8.551 -1.3844  0.5827 -0.6944
   81SAPS  H16Y 7606   1.384   5.687   8.648 -0.5987 -0.4114 -1.2422
   81SAPS  C317 7607   1.420   5.902   8.600 -0.2409 -0.5505 -0.4453
   81SAPS  H17X 7608   1.490   5.900   8.685 -0.6618  2.2842  0.0308
   81SAPS  H17Y 7609   1.361   5.996   8.607  0.0828 -0.2779 -1.2731
   81SAPS  C318 7610   1.498   5.885   8.470 -0.2209  0.2676  0.0618
   81SAPS  H18X 7611   1.584   5.955   8.474 -0.2786  0.3596 -0.2846
   81SAPS  H18Y 7612   1.442   5.920   8.380  2.3760  1.1971 -1.2241
   81SAPS  H18Z 7613   1.529   5.779   8.458 -0.2535  0.4790 -2.1116
   82SAPS     N 7614   0.858   4.915  10.665  0.2192  0.2321  0.1464
   82SAPS   HN1 7615   0.939   4.961  10.712 -0.2548  1.3454 -0.1078
   82SAPS   HN2 7616   0.894   4.831  10.617 -2.5744 -0.2119 -1.2709
   82SAPS   HN3 7617   0.816   4.974  10.590  0.6774  0.0961 -0.2162
   82SAPS   C12 7618   0.753   4.862  10.758 -0.5461  0.4094  0.1813
   82SAPS  H12A 7619   0.681   4.808  10.700 -2.1917 -0.4762  2.9398
   82SAPS   C13 7620   0.809   4.761  10.867  0.1610 -0.3887 -0.0996
   82SAPS  O13A 7621   0.934   4.733  10.866  0.0623 -0.3341  0.0523
   82SAPS  O13B 7622   0.728   4.738  10.964  0.0126 -0.8282 -0.6812
   82SAPS   C11 7623   0.679   4.979  10.834 -0.3746 -0.2813 -0.7656
   82SAPS  H11A 7624   0.757   5.024  10.899 -0.1856  1.4932 -2.1591
   82SAPS  H11B 7625   0.597   4.940  10.898 -0.4483 -0.1542 -0.7796
   82SAPS     P 7626   0.510   5.170  10.778  0.4601  0.1741 -0.0710
   82SAPS   O13 7627   0.396   5.099  10.830 -0.3822  0.1962 -0.0870
   82SAPS   O14 7628   0.565   5.284  10.861  0.1467 -0.6826 -0.2459
   82SAPS   O12 7629   0.626   5.068  10.734  0.4913 -0.4677  0.1070
   82SAPS   O11 7630   0.471   5.237  10.642 -0.0640  0.8045  0.6170
   82SAPS    C1 7631   0.398   5.157  10.551 -0.4072  0.1601 -0.0675
   82SAPS    HA 7632   0.436   5.053  10.536  2.0867  1.0591 -0.1819
   82SAPS    HB 7633   0.293   5.140  10.585 -0.1038 -0.2582  0.6582
   82SAPS    C2 7634   0.402   5.216  10.410  0.1262  0.2975 -0.6660
   82SAPS    HS 7635   0.359   5.318  10.403 -0.7476 -0.1751 -2.4600
   82SAPS   O21 7636   0.332   5.125  10.317 -0.1897 -0.2671  0.1486
   82SAPS   C21 7637   0.215   5.161  10.273  0.1328 -0.0717 -0.7512
   82SAPS   O22 7638   0.150   5.259  10.305  0.1139 -0.0824 -0.2713
   82SAPS   C22 7639   0.165   5.064  10.166 -0.0834  0.3782 -0.2698
   82SAPS   H2R 7640   0.251   5.010  10.121 -1.4260 -2.6879  0.6932
   82SAPS   H2S 7641   0.092   4.998  10.219  1.8121 -0.0299  1.9147
   82SAPS    C3 7642   0.553   5.218  10.368 -0.5745  0.4420 -0.5273
   82SAPS    HX 7643   0.588   5.113  10.378 -1.0658  0.2327 -0.9825
   82SAPS    HY 7644   0.607   5.280  10.443 -0.3027 -0.6663  0.2137
   82SAPS   O31 7645   0.566   5.252  10.226  0.2948 -0.1930 -0.7146
   82SAPS   C31 7646   0.533   5.373  10.186 -0.6352  0.1555  0.1710
   82SAPS   O32 7647   0.498   5.462  10.259  0.1814  0.1661  0.2013
   82SAPS   C32 7648   0.529   5.364  10.028 -0.1070  0.0018  0.5655
   82SAPS   H2X 7649   0.495   5.261  10.005 -0.3773  0.2303 -0.0935
   82SAPS   H2Y 7650   0.637   5.379  10.009  0.1317 -0.8408  1.2425
   82SAPS   C23 7651   0.089   5.143  10.055  0.3821 -0.6624  0.4111
   82SAPS   H3R 7652   0.142   5.238  10.032  2.4080 -1.6478  0.8603
   82SAPS   H3S 7653  -0.011   5.171  10.094  1.0803  2.9562 -0.1570
   82SAPS   C24 7654   0.057   5.070   9.917 -0.1337  0.3879 -0.9078
   82SAPS   H4R 7655   0.031   5.156   9.852 -1.2931 -0.2619 -1.3164
   82SAPS   H4S 7656  -0.033   5.005   9.924  0.0936 -0.0085 -1.6033
   82SAPS   C25 7657   0.167   4.982   9.864 -0.2543  0.2795  0.1417
   82SAPS   H5R 7658   0.189   4.888   9.916  0.8818 -0.8568 -2.3226
   82SAPS   C26 7659   0.216   5.000   9.738 -0.7317 -0.0694 -0.3620
   82SAPS   H6R 7660   0.289   4.926   9.703 -2.5378 -1.5369 -1.0979
   82SAPS   C27 7661   0.174   5.105   9.634 -0.6639 -0.1888  0.2424
   82SAPS   H7R 7662   0.146   5.201   9.684  1.2620  0.5905 -0.1520
   82SAPS   H7S 7663   0.088   5.061   9.579  0.4722 -1.7823 -0.2780
   82SAPS   C28 7664   0.291   5.150   9.553  0.2367  0.9562 -0.0782
   82SAPS   H8R 7665   0.375   5.205   9.598 -0.3012  1.4022  0.3794
   82SAPS   C29 7666   0.300   5.129   9.422 -0.4691  0.5957 -0.8250
   82SAPS   H9R 7667   0.400   5.141   9.379 -0.1365 -1.0579 -0.5287
   82SAPS  C210 7668   0.208   5.050   9.337 -0.3063 -0.0098  0.0500
   82SAPS  H10R 7669   0.218   5.093   9.235  0.6546  3.2721  1.4275
   82SAPS  H10S 7670   0.102   5.071   9.362 -0.4552 -2.4910  1.6149
   82SAPS  C211 7671   0.249   4.901   9.328  0.5511 -0.5864 -0.1158
   82SAPS  H11R 7672   0.283   4.848   9.418 -1.2978 -0.8971  0.4123
   82SAPS  C212 7673   0.257   4.830   9.212  0.3787 -0.2234 -0.1221
   82SAPS  H12R 7674   0.268   4.723   9.234 -0.3261 -0.2439  0.1700
   82SAPS  C213 7675   0.226   4.880   9.072  0.3968  0.2076 -0.4599
   82SAPS  H13R 7676   0.138   4.947   9.083  0.3174 -0.2754  2.1918
   82SAPS  H13S 7677   0.183   4.802   9.006 -1.9613  0.0405  1.2242
   82SAPS  C214 7678   0.343   4.948   9.019 -0.1963 -0.1927 -0.0015
   82SAPS  H14R 7679   0.340   5.057   9.034 -1.1422 -0.3741  1.2016
   82SAPS  C215 7680   0.453   4.901   8.957  0.2963  0.2111  0.8111
   82SAPS  H15R 7681   0.522   4.982   8.928  2.3945 -0.8677  2.6482
   82SAPS  C216 7682   0.489   4.762   8.927 -0.3249  0.2911 -0.1579
   82SAPS  H16R 7683   0.438   4.686   8.990  0.5119 -0.0310  0.1458
   82SAPS  H16S 7684   0.599   4.752   8.941 -0.5795  1.3049  2.8343
   82SAPS  C217 7685   0.460   4.729   8.779  0.1746 -0.9410  0.5418
   82SAPS  H17R 7686   0.351   4.741   8.760  0.4602 -2.0985 -2.1831
   82SAPS  H17S 7687   0.495   4.625   8.762  1.8945 -0.1887 -0.6329
   82SAPS  C218 7688   0.531   4.824   8.678  0.0585 -0.8105  0.3548
   82SAPS  H18R 7689   0.492   4.926   8.694  0.2303 -0.7790  0.5817
   82SAPS  H18S 7690   0.502   4.789   8.576 -0.3209 -0.4655  0.3450
   82SAPS  C219 7691   0.684   4.811   8.663 -0.0146 -0.1359 -0.3635
   82SAPS  H19R 7692   0.709   4.712   8.619  2.6805 -0.4215  1.6702
   82SAPS  H19S 7693   0.733   4.805   8.763 -1.3469 -0.8732  0.2615
   82SAPS  C220 7694   0.769   4.912   8.577 -0.1617  0.1545 -0.6260
   82SAPS  H20R 7695   0.875   4.879   8.569 -0.8528 -1.9654 -1.5821
   82SAPS  H20S 7696   0.781   5.010   8.628  1.3108 -0.3410  0.0174
   82SAPS  H20T 7697   0.724   4.922   8.475  0.7770 -0.3030 -1.0959
   82SAPS   C33 7698   0.437   5.464   9.945  0.1986 -0.1760  0.2011
   82SAPS   H3X 7699   0.499   5.556   9.956 -0.4081  0.0511  1.9398
   82SAPS   H3Y 7700   0.349   5.483  10.009  1.6799  3.0585  1.3913
   82SAPS   C34 7701   0.401   5.436   9.795 -0.2537  0.5064 -0.4061
   82SAPS   H4X 7702   0.339   5.345   9.783  1.9789 -0.8661 -1.7865
   82SAPS   H4Y 7703   0.495   5.411   9.741 -1.1174  1.4397 -2.3932
   82SAPS   C35 7704   0.341   5.558   9.724  0.7258  0.0622 -0.2432
   82SAPS   H5X 7705   0.415   5.641   9.737  0.4280  0.3461 -0.3483
   82SAPS   H5Y 7706   0.241   5.589   9.761  1.0238  1.8327 -0.8456
   82SAPS   C36 7707   0.306   5.530   9.577 -0.9899  0.1560  0.3148
   82SAPS   H6X 7708   0.249   5.610   9.524  0.4369 -0.5402 -2.3688
   82SAPS   H6Y 7709   0.240   5.441   9.568  1.6982 -1.6725 -2.1813
   82SAPS   C37 7710   0.429   5.503   9.486 -0.6759 -0.1867 -0.8236
   82SAPS   H7X 7711   0.466   5.402   9.514 -0.1800  0.3255  0.4185
   82SAPS   H7Y 7712   0.514   5.573   9.501 -0.1976 -0.1698 -3.4054
   82SAPS   C38 7713   0.385   5.494   9.337 -0.4972  0.2131  0.4330
   82SAPS   H8X 7714   0.366   5.595   9.296  1.1475  0.1457 -0.5629
   82SAPS   H8Y 7715   0.292   5.435   9.340 -1.7824  2.2425  1.5848
   82SAPS   C39 7716   0.480   5.427   9.238  1.0417  0.5513 -0.5050
   82SAPS   H9X 7717   0.490   5.327   9.284  1.0428  0.4592 -0.7068
   82SAPS   H9Y 7718   0.574   5.485   9.248  0.2375  1.7856  0.1303
   82SAPS  C310 7719   0.413   5.413   9.096  0.3372 -1.0387  0.4105
   82SAPS  H10X 7720   0.397   5.512   9.048 -0.8294 -2.0193 -1.2903
   82SAPS  H10Y 7721   0.311   5.371   9.108  0.0325  0.2711  2.7374
   82SAPS  C311 7722   0.504   5.341   8.992  0.1960  0.5603  0.2752
   82SAPS  H11X 7723   0.530   5.248   9.047 -1.1756 -1.1137 -1.8299
   82SAPS  H11Y 7724   0.603   5.391   8.992  1.7782 -2.3933 -2.7234
   82SAPS  C312 7725   0.435   5.320   8.858 -0.0877 -0.4270  0.5913
   82SAPS  H12X 7726   0.327   5.296   8.869 -0.6856  2.4247  1.2257
   82SAPS  H12Y 7727   0.465   5.223   8.812  2.1358  0.5401 -0.0858
   82SAPS  C313 7728   0.456   5.427   8.757  0.4071 -0.2137  0.0540
   82SAPS  H13X 7729   0.564   5.422   8.735  0.5307 -0.4018  0.6841
   82SAPS  H13Y 7730   0.429   5.527   8.798  3.4418  0.3773  0.6851
   82SAPS  C314 7731   0.382   5.393   8.617 -0.3586 -0.1850 -0.6338
   82SAPS  H14X 7732   0.410   5.463   8.536 -1.4133  0.3664 -0.5255
   82SAPS  H14Y 7733   0.273   5.397   8.637 -0.4768 -0.9399 -1.1083
   82SAPS  C315 7734   0.404   5.249   8.561 -0.3829  0.0006 -0.2585
   82SAPS  H15X 7735   0.343   5.243   8.468 -1.0144 -0.7915  0.2000
   82SAPS  H15Y 7736   0.355   5.175   8.626  0.6887  1.5247  2.3474
   82SAPS  C316 7737   0.549   5.213   8.533 -0.0411 -0.1048  0.3436
   82SAPS  H16X 7738   0.547   5.113   8.486 -0.9316  0.8894 -1.8045
   82SAPS  H16Y 7739   0.603   5.207   8.629 -1.4469 -0.4589  1.1259
   82SAPS  C317 7740   0.629   5.314   8.457  0.1103 -0.3101  0.4385
   82SAPS  H17X 7741   0.649   5.400   8.525  1.0567 -0.2882  0.1430
   82SAPS  H17Y 7742   0.577   5.357   8.369  2.4545 -0.4068 -1.0329
   82SAPS  C318 7743   0.772   5.256   8.429  0.5458 -0.4048  0.3296
   82SAPS  H18X 7744   0.833   5.226   8.517  0.3818  0.2091  0.6570
   82SAPS  H18Y 7745   0.833   5.327   8.369  0.5205 -2.2595 -1.9612
   82SAPS  H18Z 7746   0.761   5.164   8.369  0.7933 -1.2817  1.6111
   83SAPS     N 7747   1.549   6.219  10.847 -0.1943  0.1877  0.4244
   83SAPS   HN1 7748   1.620   6.294  10.837 -2.1499  1.9183 -0.9411
   83SAPS   HN2 7749   1.558   6.143  10.776  2.4996  0.9281 -0.0779
   83SAPS   HN3 7750   1.452   6.256  10.840 -0.2720 -0.2368 -1.0002
   83SAPS   C12 7751   1.568   6.159  10.981  0.3224 -0.2655 -0.3459
   83SAPS  H12A 7752   1.487   6.088  10.986  1.2734 -1.3279  0.3907
   83SAPS   C13 7753   1.705   6.079  10.994 -0.0828  0.3770 -0.1075
   83SAPS  O13A 7754   1.788   6.074  10.900  0.5957 -0.0574  0.1505
   83SAPS  O13B 7755   1.721   6.015  11.097 -0.1361 -0.3116  0.6024
   83SAPS   C11 7756   1.557   6.255  11.102 -0.0266  0.7497 -0.1084
   83SAPS  H11A 7757   1.636   6.333  11.097 -0.7476  1.4569 -0.8099
   83SAPS  H11B 7758   1.572   6.197  11.195  0.1033  1.3744  0.2633
   83SAPS     P 7759   1.405   6.462  11.087 -0.1073 -0.4337 -0.1298
   83SAPS   O13 7760   1.261   6.499  11.080 -0.9301 -0.4278 -0.3916
   83SAPS   O14 7761   1.488   6.528  11.186 -0.3124  0.2798  0.2510
   83SAPS   O12 7762   1.421   6.305  11.106  0.5885  0.3645  0.3814
   83SAPS   O11 7763   1.467   6.491  10.939  0.0201 -0.2453 -0.3396
   83SAPS    C1 7764   1.478   6.633  10.910  0.4722  0.0181 -0.3706
   83SAPS    HA 7765   1.380   6.685  10.910 -0.7760 -2.3204  0.9206
   83SAPS    HB 7766   1.552   6.690  10.970  0.0469 -0.5782  0.7269
   83SAPS    C2 7767   1.530   6.652  10.758 -0.2968 -0.1046 -0.8091
   83SAPS    HS 7768   1.482   6.747  10.725 -1.0766  0.0126  0.6197
   83SAPS   O21 7769   1.493   6.543  10.673  0.2447 -0.0475  0.5266
   83SAPS   C21 7770   1.359   6.523  10.651 -0.0364 -0.0627  0.2060
   83SAPS   O22 7771   1.272   6.587  10.704 -0.0468  0.5234  0.3554
   83SAPS   C22 7772   1.353   6.409  10.547 -0.6779  0.2615 -0.0873
   83SAPS   H2R 7773   1.378   6.313  10.599 -3.1365 -1.0564 -1.2699
   83SAPS   H2S 7774   1.246   6.394  10.521 -0.8616 -2.0710  1.7724
   83SAPS    C3 7775   1.681   6.671  10.736 -0.3386  0.1304 -0.1252
   83SAPS    HX 7776   1.723   6.578  10.779  0.0440  0.7496  0.8830
   83SAPS    HY 7777   1.713   6.758  10.797  0.8779  0.0896 -0.6853
   83SAPS   O31 7778   1.714   6.711  10.599 -0.2691  0.0602  0.2140
   83SAPS   C31 7779   1.802   6.630  10.531  0.1854 -0.5607 -0.6784
   83SAPS   O32 7780   1.856   6.537  10.589  0.1950 -0.4544 -0.1539
   83SAPS   C32 7781   1.834   6.679  10.391  0.7507  0.5210 -0.1126
   83SAPS   H2X 7782   1.933   6.730  10.383  0.7249  0.6944  0.6029
   83SAPS   H2Y 7783   1.759   6.758  10.368  1.1671  0.9521 -0.0084
   83SAPS   C23 7784   1.446   6.423  10.427 -0.7042  0.3297 -0.0202
   83SAPS   H3R 7785   1.445   6.329  10.368  1.9026  1.1381 -1.4320
   83SAPS   H3S 7786   1.551   6.449  10.454 -0.4325  1.5970 -2.1526
   83SAPS   C24 7787   1.385   6.525  10.319 -0.8414 -0.1433 -0.0182
   83SAPS   H4R 7788   1.322   6.599  10.372 -0.6644  0.1264 -0.1863
   83SAPS   H4S 7789   1.318   6.457  10.262 -1.5055  1.7965 -1.6201
   83SAPS   C25 7790   1.486   6.591  10.228  0.6343 -0.3681 -0.1887
   83SAPS   H5R 7791   1.558   6.662  10.272 -0.3137 -0.8095  2.1651
   83SAPS   C26 7792   1.501   6.565  10.099 -0.6618 -0.7178 -0.3293
   83SAPS   H6R 7793   1.573   6.618  10.035 -2.7190  1.6458 -0.7650
   83SAPS   C27 7794   1.405   6.467  10.022 -0.4587  0.0670 -0.6374
   83SAPS   H7R 7795   1.391   6.373  10.079  0.3023  1.4250  1.8195
   83SAPS   H7S 7796   1.454   6.439   9.926 -0.4178  1.4801 -1.0443
   83SAPS   C28 7797   1.269   6.529   9.995 -0.2883 -0.2126 -0.2239
   83SAPS   H8R 7798   1.211   6.568  10.079  2.6460 -1.0655  2.3083
   83SAPS   C29 7799   1.206   6.520   9.877 -0.5092 -0.1751 -0.1633
   83SAPS   H9R 7800   1.102   6.553   9.868  0.4000  3.0974  0.5602
   83SAPS  C210 7801   1.259   6.448   9.748 -0.0580  0.3193 -0.1916
   83SAPS  H10R 7802   1.170   6.447   9.682  0.1391  1.5520 -0.4774
   83SAPS  H10S 7803   1.273   6.341   9.775 -2.4760 -0.2526 -1.0946
   83SAPS  C211 7804   1.362   6.507   9.663 -0.1077 -0.0673  0.4109
   83SAPS  H11R 7805   1.428   6.583   9.709 -0.6811 -0.7044  2.3310
   83SAPS  C212 7806   1.391   6.479   9.543  0.0517 -0.5820  0.9134
   83SAPS  H12R 7807   1.473   6.543   9.509 -0.8806 -0.2162 -0.6903
   83SAPS  C213 7808   1.335   6.386   9.435 -0.0974 -0.0220 -0.0563
   83SAPS  H13R 7809   1.225   6.404   9.425  0.0660 -0.1477 -2.5218
   83SAPS  H13S 7810   1.351   6.282   9.470 -1.2931  0.5449  2.3132
   83SAPS  C214 7811   1.406   6.405   9.303  0.2685 -0.0812 -1.3184
   83SAPS  H14R 7812   1.515   6.421   9.309  0.1487  0.4649 -0.5250
   83SAPS  C215 7813   1.350   6.398   9.184  0.2871  0.2102  0.4212
   83SAPS  H15R 7814   1.420   6.404   9.099  1.1210  2.3542  1.2364
   83SAPS  C216 7815   1.209   6.357   9.149  0.4397 -0.1214 -0.0109
   83SAPS  H16R 7816   1.140   6.383   9.232 -0.9589 -1.7538 -0.6090
   83SAPS  H16S 7817   1.201   6.249   9.125  0.8055 -0.1193 -0.1442
   83SAPS  C217 7818   1.167   6.428   9.020  0.4078  0.1483  0.3527
   83SAPS  H17R 7819   1.198   6.534   9.014  1.2108 -0.0197  1.3752
   83SAPS  H17S 7820   1.056   6.421   9.010  0.3432 -0.6250  1.4391
   83SAPS  C218 7821   1.230   6.355   8.893  1.0224 -0.4730  1.2053
   83SAPS  H18R 7822   1.187   6.253   8.906 -0.7047  0.0993  0.1194
   83SAPS  H18S 7823   1.341   6.344   8.896  1.4970  2.8476 -1.5139
   83SAPS  C219 7824   1.190   6.414   8.757  0.9777  0.2989 -0.3256
   83SAPS  H19R 7825   1.084   6.448   8.753  0.7775 -0.2674  0.1413
   83SAPS  H19S 7826   1.191   6.332   8.682  1.9926  0.5513 -0.5896
   83SAPS  C220 7827   1.282   6.534   8.712  0.3199  0.0726 -0.4294
   83SAPS  H20R 7828   1.386   6.497   8.703  0.2397 -0.5470  1.0729
   83SAPS  H20S 7829   1.290   6.599   8.802 -1.3477 -0.6946  0.3032
   83SAPS  H20T 7830   1.247   6.592   8.624  0.8775 -0.7815 -1.2306
   83SAPS   C33 7831   1.823   6.561  10.294  0.0513 -0.2222 -0.7804
   83SAPS   H3X 7832   1.721   6.518  10.305  0.7344 -1.8595 -0.6684
   83SAPS   H3Y 7833   1.901   6.487  10.322  0.4824  0.2787 -0.6699
   83SAPS   C34 7834   1.846   6.596  10.147 -0.1474  0.2798 -0.2124
   83SAPS   H4X 7835   1.943   6.647  10.128  0.6028 -0.5028  1.4181
   83SAPS   H4Y 7836   1.764   6.664  10.116 -0.1155  0.3173 -0.2137
   83SAPS   C35 7837   1.854   6.476  10.062 -0.3067  0.0214  0.6174
   83SAPS   H5X 7838   1.762   6.413  10.065 -1.1520  1.2655  1.1987
   83SAPS   H5Y 7839   1.940   6.409  10.080 -1.4305 -1.1488  1.7609
   83SAPS   C36 7840   1.859   6.515   9.919  0.1567 -0.0262  0.5549
   83SAPS   H6X 7841   1.956   6.563   9.893  1.1042 -1.6912  0.9376
   83SAPS   H6Y 7842   1.783   6.593   9.898  2.0344  1.2860 -1.7771
   83SAPS   C37 7843   1.833   6.398   9.820 -0.3640 -0.4469  0.3195
   83SAPS   H7X 7844   1.749   6.336   9.858 -0.9845  1.0241  1.4056
   83SAPS   H7Y 7845   1.923   6.333   9.814 -0.7155 -0.6811 -3.3746
   83SAPS   C38 7846   1.823   6.450   9.673 -0.0113  0.0417  0.4846
   83SAPS   H8X 7847   1.907   6.522   9.661  1.4154 -1.4784  1.1850
   83SAPS   H8Y 7848   1.727   6.505   9.660  0.5329  0.9689  0.3283
   83SAPS   C39 7849   1.824   6.333   9.568  0.3287  0.0027 -0.2021
   83SAPS   H9X 7850   1.751   6.255   9.598  0.4177  0.3299  0.8727
   83SAPS   H9Y 7851   1.913   6.274   9.596 -0.0311  0.0627  1.0909
   83SAPS  C310 7852   1.814   6.383   9.428 -0.2020 -0.4749 -0.5950
   83SAPS  H10X 7853   1.710   6.416   9.409 -1.0482 -2.3873  0.6083
   83SAPS  H10Y 7854   1.836   6.301   9.356  1.0197 -0.8590  0.2022
   83SAPS  C311 7855   1.916   6.492   9.392  0.1016  0.0360  0.3909
   83SAPS  H11X 7856   2.019   6.489   9.434  0.4828  0.1705 -0.5304
   83SAPS  H11Y 7857   1.863   6.586   9.420  0.0968  0.1073  0.1419
   83SAPS  C312 7858   1.934   6.506   9.242  0.5140 -0.6259 -0.2612
   83SAPS  H12X 7859   1.835   6.487   9.195  0.9782 -1.7234 -0.7971
   83SAPS  H12Y 7860   1.998   6.425   9.203 -1.0560 -1.5476 -0.9693
   83SAPS  C313 7861   2.008   6.629   9.195  0.9569 -0.0794  0.2653
   83SAPS  H13X 7862   2.088   6.651   9.268  0.2792 -0.0469  0.9967
   83SAPS  H13Y 7863   1.947   6.722   9.197  1.2550  0.1052  0.7847
   83SAPS  C314 7864   2.070   6.600   9.063  0.8201 -0.2719  0.2653
   83SAPS  H14X 7865   1.991   6.566   8.993  0.9182 -0.0922  0.0646
   83SAPS  H14Y 7866   2.149   6.523   9.075  3.3353  2.0113 -1.0564
   83SAPS  C315 7867   2.140   6.717   9.004  0.0799  0.7058  0.2256
   83SAPS  H15X 7868   2.228   6.754   9.062 -0.0577 -1.5750  1.9718
   83SAPS  H15Y 7869   2.066   6.799   8.991  1.4375  2.0717  0.8452
   83SAPS  C316 7870   2.200   6.683   8.863  0.2450  0.0905 -0.2776
   83SAPS  H16X 7871   2.287   6.619   8.887  1.7122  2.0147 -0.3188
   83SAPS  H16Y 7872   2.241   6.764   8.798  1.3669 -0.5795 -0.4067
   83SAPS  C317 7873   2.115   6.606   8.766  0.0487  0.2158  0.4951
   83SAPS  H17X 7874   2.033   6.663   8.718  0.1182 -1.3171 -1.5164
   83SAPS  H17Y 7875   2.073   6.521   8.824 -2.7111  0.5084 -0.9765
   83SAPS  C318 7876   2.209   6.548   8.655  0.1126  0.1321 -0.5601
   83SAPS  H18X 7877   2.281   6.482   8.709 -0.2921 -0.4796 -0.7708
   83SAPS  H18Y 7878   2.275   6.620   8.601 -1.3681  1.0816 -1.1265
   83SAPS  H18Z 7879   2.148   6.479   8.594 -2.2552 -0.7028  2.6083
   84SAPS     N 7880   3.246   0.637  11.056  0.2678  0.3772  0.1330
   84SAPS   HN1 7881   3.205   0.716  11.002  1.9878  0.7263 -0.6991
   84SAPS   HN2 7882   3.329   0.682  11.098  2.5020 -2.6847 -0.8550
   84SAPS   HN3 7883   3.272   0.577  10.976 -0.3778 -1.6649  1.4333
   84SAPS   C12 7884   3.153   0.576  11.146 -0.0377  0.3150  0.2558
   84SAPS  H12A 7885   3.213   0.509  11.205 -0.4711 -0.6243 -0.3503
   84SAPS   C13 7886   3.071   0.663  11.237 -0.1492  0.3717  0.9865
   84SAPS  O13A 7887   3.073   0.788  11.225 -0.7972  0.1833 -0.7416
   84SAPS  O13B 7888   2.995   0.603  11.317  0.3362 -0.1649 -0.9085
   84SAPS   C11 7889   3.050   0.495  11.062  0.5455 -0.0211  0.2252
   84SAPS  H11A 7890   2.987   0.569  11.009  1.1586 -0.3388 -0.9617
   84SAPS  H11B 7891   2.985   0.442  11.135  0.7566 -0.8734 -0.2054
   84SAPS     P 7892   3.174   0.261  11.046  0.0350 -0.1987  0.4333
   84SAPS   O13 7893   3.308   0.281  11.108 -0.5527  0.0666 -0.6561
   84SAPS   O14 7894   3.071   0.204  11.131  0.1767 -0.5949 -0.0259
   84SAPS   O12 7895   3.123   0.397  10.977  0.4466 -0.1830  0.5970
   84SAPS   O11 7896   3.189   0.155  10.929  0.2159 -0.1894  0.4370
   84SAPS    C1 7897   3.197   0.188  10.791  0.1624  1.3406 -0.4133
   84SAPS    HA 7898   3.096   0.226  10.763 -0.0734  3.4771  3.0866
   84SAPS    HB 7899   3.279   0.261  10.777  0.5151  0.9111 -0.6089
   84SAPS    C2 7900   3.226   0.059  10.715 -0.2515  0.3348  0.6438
   84SAPS    HS 7901   3.279   0.083  10.620 -3.6094 -1.2991 -1.7429
   84SAPS   O21 7902   3.115  -0.019  10.690  0.0603 -0.1353  0.0929
   84SAPS   C21 7903   3.041   0.020  10.587 -0.1268 -0.4519  0.5102
   84SAPS   O22 7904   3.067   0.121  10.525  0.1156 -0.3369  0.2542
   84SAPS   C22 7905   2.931  -0.067  10.554 -0.2549  0.3046  1.0336
   84SAPS   H2R 7906   2.935  -0.166  10.605 -1.7162 -0.6200 -0.5979
   84SAPS   H2S 7907   2.836  -0.015  10.579  0.4676  1.0234  2.3127
   84SAPS    C3 7908   3.340  -0.020  10.789  0.0187  0.1628  0.0318
   84SAPS    HX 7909   3.305  -0.050  10.890  0.2832 -0.8534 -0.1713
   84SAPS    HY 7910   3.413   0.064  10.798  3.2321 -2.6773  1.9183
   84SAPS   O31 7911   3.384  -0.128  10.703 -0.3570 -0.0124 -0.1273
   84SAPS   C31 7912   3.336  -0.246  10.740  0.6409  0.1837 -1.3376
   84SAPS   O32 7913   3.285  -0.280  10.844 -0.4568 -0.6310  0.2326
   84SAPS   C32 7914   3.337  -0.332  10.622 -0.2797 -0.1072  0.3537
   84SAPS   H2X 7915   3.443  -0.351  10.596  0.2346  1.8495  0.9308
   84SAPS   H2Y 7916   3.292  -0.282  10.533  0.6177  1.3733  0.7126
   84SAPS   C23 7917   2.927  -0.092  10.401 -0.4802 -0.1499 -0.5776
   84SAPS   H3R 7918   2.932   0.004  10.345 -1.0407  1.7207  2.4502
   84SAPS   H3S 7919   2.826  -0.128  10.373 -1.1053  2.2611 -1.5915
   84SAPS   C24 7920   3.044  -0.188  10.347  0.0883 -0.4541  0.6372
   84SAPS   H4R 7921   3.054  -0.292  10.386 -1.0616 -0.3475  1.2425
   84SAPS   H4S 7922   3.137  -0.134  10.377 -0.2214  0.9471 -0.9231
   84SAPS   C25 7923   3.042  -0.192  10.194 -1.2461 -0.9650 -0.5153
   84SAPS   H5R 7924   3.108  -0.116  10.148 -0.4654 -0.4497  1.4144
   84SAPS   C26 7925   2.963  -0.280  10.127  0.0998  0.3726 -0.0595
   84SAPS   H6R 7926   2.968  -0.280  10.017 -1.6108 -1.1023 -0.1601
   84SAPS   C27 7927   2.874  -0.378  10.194 -0.2869 -0.0321  0.4313
   84SAPS   H7R 7928   2.834  -0.343  10.292 -0.2915  0.7111  0.1658
   84SAPS   H7S 7929   2.919  -0.476  10.218  0.7680  0.2541 -0.3120
   84SAPS   C28 7930   2.754  -0.404  10.112 -1.1702 -0.3353  0.4648
   84SAPS   H8R 7931   2.669  -0.375  10.174  0.6479  1.7351  2.0842
   84SAPS   C29 7932   2.734  -0.466   9.993 -0.0081  0.4090 -0.4563
   84SAPS   H9R 7933   2.629  -0.471   9.961  0.2959  1.5155 -1.6570
   84SAPS  C210 7934   2.836  -0.542   9.909  0.2407 -0.2807 -0.3177
   84SAPS  H10R 7935   2.930  -0.550   9.967 -0.0279 -1.6084 -0.0608
   84SAPS  H10S 7936   2.855  -0.487   9.814 -1.6000 -1.2481 -1.2745
   84SAPS  C211 7937   2.777  -0.678   9.879 -0.2643  0.0985  0.4356
   84SAPS  H11R 7938   2.769  -0.745   9.966 -1.9531 -0.4256 -0.0853
   84SAPS  C212 7939   2.735  -0.724   9.756 -0.4939  0.3733  0.2574
   84SAPS  H12R 7940   2.695  -0.826   9.750  1.8346 -0.5067 -1.0300
   84SAPS  C213 7941   2.750  -0.660   9.621 -0.0825 -0.1239  0.5008
   84SAPS  H13R 7942   2.789  -0.557   9.635 -0.6487  0.3077 -1.0004
   84SAPS  H13S 7943   2.647  -0.642   9.583 -0.0741  0.4853  0.7550
   84SAPS  C214 7944   2.827  -0.743   9.516 -0.0089  0.4605 -0.2776
   84SAPS  H14R 7945   2.809  -0.852   9.514  1.3085  0.0631  3.5143
   84SAPS  C215 7946   2.904  -0.700   9.417  0.0387  0.5154 -0.1064
   84SAPS  H15R 7947   2.946  -0.769   9.343  0.6437  0.9465 -0.1701
   84SAPS  C216 7948   2.932  -0.549   9.392 -0.3480 -0.2631 -0.1144
   84SAPS  H16R 7949   3.039  -0.541   9.363 -1.2621 -2.2580 -4.3140
   84SAPS  H16S 7950   2.918  -0.475   9.474  2.0857  1.6337 -1.3181
   84SAPS  C217 7951   2.838  -0.502   9.289  0.1566 -0.6624  0.1067
   84SAPS  H17R 7952   2.745  -0.478   9.344  0.4703 -2.1693  1.3018
   84SAPS  H17S 7953   2.815  -0.577   9.210 -0.0114 -0.0052 -0.4753
   84SAPS  C218 7954   2.893  -0.369   9.232  0.4916  0.2711 -0.2568
   84SAPS  H18R 7955   2.912  -0.303   9.320 -0.2033 -0.1662  0.2266
   84SAPS  H18S 7956   2.816  -0.320   9.168  0.9810  0.5641 -0.6249
   84SAPS  C219 7957   3.029  -0.382   9.157 -0.5407 -0.2333 -0.1518
   84SAPS  H19R 7958   3.104  -0.439   9.216 -0.9652 -0.7362 -0.0932
   84SAPS  H19S 7959   3.067  -0.278   9.155  0.4272 -0.5992 -1.1467
   84SAPS  C220 7960   3.010  -0.426   9.015 -0.0526  0.6562  0.4891
   84SAPS  H20R 7961   2.970  -0.337   8.962  0.1434  1.7821  2.1928
   84SAPS  H20S 7962   2.944  -0.515   8.999  1.3680 -0.6782  1.9876
   84SAPS  H20T 7963   3.109  -0.451   8.971 -0.7058  0.0404 -0.6858
   84SAPS   C33 7964   3.265  -0.470  10.640  0.1284  0.1007 -0.6931
   84SAPS   H3X 7965   3.154  -0.467  10.645  0.0069  0.4657 -3.0884
   84SAPS   H3Y 7966   3.280  -0.526  10.734  1.8456  1.1167 -0.3476
   84SAPS   C34 7967   3.285  -0.569  10.524 -0.2484  0.2541  0.2836
   84SAPS   H4X 7968   3.220  -0.653  10.557 -0.2151  1.4778  3.7219
   84SAPS   H4Y 7969   3.388  -0.611  10.528 -1.0042 -2.0111 -2.6966
   84SAPS   C35 7970   3.252  -0.521  10.383  0.3521 -0.5111  0.4689
   84SAPS   H5X 7971   3.290  -0.417  10.370 -3.6418  1.0585  0.8827
   84SAPS   H5Y 7972   3.142  -0.514  10.371  0.5238  0.2469 -0.6567
   84SAPS   C36 7973   3.299  -0.620  10.273  0.2744  0.0628  0.0130
   84SAPS   H6X 7974   3.281  -0.723  10.311 -0.5378  0.6383  1.2172
   84SAPS   H6Y 7975   3.408  -0.603  10.260  0.3789 -0.6110 -0.0103
   84SAPS   C37 7976   3.241  -0.585  10.137  0.5478  0.1157 -0.2668
   84SAPS   H7X 7977   3.288  -0.487  10.115 -2.0779  1.4404 -0.1996
   84SAPS   H7Y 7978   3.131  -0.568  10.139  0.5704  0.4117 -1.2609
   84SAPS   C38 7979   3.272  -0.694  10.029 -0.1378 -0.1206 -0.2266
   84SAPS   H8X 7980   3.230  -0.792  10.057 -1.7815  0.0812 -1.8437
   84SAPS   H8Y 7981   3.382  -0.703  10.020  0.0400  0.9063  0.8733
   84SAPS   C39 7982   3.208  -0.660   9.892  0.2109  0.3824 -0.0885
   84SAPS   H9X 7983   3.237  -0.561   9.849 -1.9443  0.9082 -0.3649
   84SAPS   H9Y 7984   3.097  -0.656   9.896  0.2529  1.6781  0.2739
   84SAPS  C310 7985   3.237  -0.776   9.804 -0.2283  0.5532  1.2841
   84SAPS  H10X 7986   3.192  -0.868   9.848 -0.3510 -0.7996 -1.6019
   84SAPS  H10Y 7987   3.347  -0.792   9.806 -0.4375 -1.0073  0.8684
   84SAPS  C311 7988   3.194  -0.775   9.658 -0.2518  0.1071  0.3369
   84SAPS  H11X 7989   3.215  -0.675   9.616 -0.8841 -0.3865 -1.1749
   84SAPS  H11Y 7990   3.087  -0.801   9.643  0.2403 -1.1667 -1.0680
   84SAPS  C312 7991   3.279  -0.872   9.570  0.1224  0.3232  0.5511
   84SAPS  H12X 7992   3.277  -0.972   9.619 -0.0014 -0.3324 -0.7774
   84SAPS  H12Y 7993   3.387  -0.847   9.558  0.3522 -1.5145 -1.4095
   84SAPS  C313 7994   3.221  -0.890   9.419 -0.0329 -0.2521 -0.0827
   84SAPS  H13X 7995   3.111  -0.903   9.406 -0.1781  0.4307  0.4166
   84SAPS  H13Y 7996   3.280  -0.977   9.382  1.8626  0.0710  2.0849
   84SAPS  C314 7997   3.269  -0.764   9.338  0.0143 -0.5248  0.6093
   84SAPS  H14X 7998   3.370  -0.735   9.375 -0.1020 -2.8045  2.8714
   84SAPS  H14Y 7999   3.201  -0.684   9.375  1.5975  2.1747 -2.1321
   84SAPS  C315 8000   3.273  -0.773   9.178  0.6071 -0.2928  0.4232
   84SAPS  H15X 8001   3.359  -0.841   9.160  0.5969  0.1896 -1.4827
   84SAPS  H15Y 8002   3.291  -0.670   9.142  1.6405  0.0297  1.8547
   84SAPS  C316 8003   3.146  -0.828   9.104 -0.0347 -0.1442 -1.2501
   84SAPS  H16X 8004   3.070  -0.747   9.109 -0.8126 -0.9875  1.4247
   84SAPS  H16Y 8005   3.116  -0.925   9.149  1.0130 -0.8114 -1.9702
   84SAPS  C317 8006   3.183  -0.869   8.966 -0.2148 -0.0538 -0.6708
   84SAPS  H17X 8007   3.266  -0.942   8.967  0.5270  0.7921 -0.0203
   84SAPS  H17Y 8008   3.222  -0.780   8.911  0.4027  0.7961  1.1198
   84SAPS  C318 8009   3.063  -0.923   8.879 -0.1008 -0.1038  0.2831
   84SAPS  H18X 8010   3.000  -0.840   8.841  1.2406  0.2499 -1.2569
   84SAPS  H18Y 8011   3.005  -0.992   8.943 -0.1466 -0.5006 -0.1855
   84SAPS  H18Z 8012   3.110  -0.982   8.798  0.2351 -2.2482  1.9791
   85SAPS     N 8013   0.767   1.285  10.829  0.1923  0.3337 -0.1033
   85SAPS   HN1 8014   0.762   1.209  10.758  3.9928  0.8511 -1.0148
   85SAPS   HN2 8015   0.702   1.362  10.805 -0.6578 -0.9833 -2.2314
   85SAPS   HN3 8016   0.866   1.318  10.827  0.2354  0.1882 -0.9659
   85SAPS   C12 8017   0.710   1.242  10.966  0.2831 -0.7587  0.9703
   85SAPS  H12A 8018   0.752   1.145  10.987  0.1805 -1.0273 -0.0331
   85SAPS   C13 8019   0.760   1.328  11.086  0.0932 -0.0240  0.0308
   85SAPS  O13A 8020   0.856   1.410  11.067  0.0753 -0.0190 -0.3217
   85SAPS  O13B 8021   0.721   1.292  11.197 -0.0864 -0.6685  0.2346
   85SAPS   C11 8022   0.558   1.229  10.964 -0.4286  0.2866 -0.2563
   85SAPS  H11A 8023   0.521   1.212  11.067  1.0114 -2.2136 -0.1210
   85SAPS  H11B 8024   0.528   1.142  10.902 -0.6018  0.6459 -0.6811
   85SAPS     P 8025   0.363   1.374  10.903  0.4381 -0.0266 -0.1241
   85SAPS   O13 8026   0.302   1.319  11.026  0.1692 -0.0967 -0.0628
   85SAPS   O14 8027   0.343   1.518  10.875 -0.2248  0.0190 -0.1034
   85SAPS   O12 8028   0.517   1.347  10.899  0.7540 -0.4822  0.3335
   85SAPS   O11 8029   0.306   1.286  10.774  0.3981  0.5221  0.0625
   85SAPS    C1 8030   0.387   1.263  10.657  0.2493  0.8265 -0.4960
   85SAPS    HA 8031   0.489   1.232  10.688 -0.5288  1.0088  2.4248
   85SAPS    HB 8032   0.347   1.169  10.614  0.4739 -0.4440  1.9741
   85SAPS    C2 8033   0.386   1.387  10.569 -0.3163  0.2755  1.0031
   85SAPS    HS 8034   0.394   1.475  10.636 -2.8610  2.4135 -1.3448
   85SAPS   O21 8035   0.255   1.388  10.503 -0.1728 -0.7691 -0.1706
   85SAPS   C21 8036   0.205   1.518  10.478 -0.2661  0.7104 -0.0654
   85SAPS   O22 8037   0.271   1.620  10.496 -0.5818  0.1714  0.2792
   85SAPS   C22 8038   0.058   1.512  10.422 -0.6659 -0.3479 -0.0554
   85SAPS   H2R 8039   0.050   1.429  10.348 -2.6534  0.3338 -0.6453
   85SAPS   H2S 8040  -0.012   1.488  10.505 -1.8720  3.4220  0.1189
   85SAPS    C3 8041   0.499   1.378  10.456  0.6889  0.2141  0.1569
   85SAPS    HX 8042   0.585   1.396  10.524  1.5635 -0.5032 -0.7539
   85SAPS    HY 8043   0.477   1.468  10.396  0.6403  1.2551  1.7041
   85SAPS   O31 8044   0.509   1.247  10.391 -0.7546 -0.2788  0.2529
   85SAPS   C31 8045   0.475   1.256  10.262  0.7725 -0.3300  0.0295
   85SAPS   O32 8046   0.409   1.340  10.206 -0.0731  0.6310  0.1597
   85SAPS   C32 8047   0.505   1.121  10.191  0.4406 -0.1992 -0.1847
   85SAPS   H2X 8048   0.410   1.075  10.156  0.1131  2.1707 -2.5921
   85SAPS   H2Y 8049   0.556   1.050  10.259 -0.1264 -0.9445 -0.5228
   85SAPS   C23 8050   0.016   1.643  10.349 -0.0351 -0.2463  0.2832
   85SAPS   H3R 8051   0.015   1.729  10.419 -0.9690  0.7957 -0.9696
   85SAPS   H3S 8052  -0.090   1.631  10.317 -0.1923  2.2731 -0.3090
   85SAPS   C24 8053   0.099   1.669  10.224 -0.9264 -0.1213  0.1061
   85SAPS   H4R 8054   0.207   1.675  10.247 -0.5185 -2.0339 -1.1911
   85SAPS   H4S 8055   0.085   1.772  10.185  0.4563  0.3842  0.9273
   85SAPS   C25 8056   0.065   1.570  10.116 -0.6845  0.3753 -0.7554
   85SAPS   H5R 8057  -0.027   1.519  10.147 -0.7943  0.3355 -1.1497
   85SAPS   C26 8058   0.130   1.552  10.002 -0.2408  0.3316  0.0893
   85SAPS   H6R 8059   0.087   1.481   9.930 -1.2932  0.8719  0.1872
   85SAPS   C27 8060   0.257   1.625   9.963 -0.0778  0.2236  0.1449
   85SAPS   H7R 8061   0.305   1.661  10.057 -0.3511  0.2987  0.2554
   85SAPS   H7S 8062   0.234   1.710   9.895  1.2771 -0.9863 -1.9000
   85SAPS   C28 8063   0.347   1.528   9.897 -1.1490 -0.4014  0.3405
   85SAPS   H8R 8064   0.428   1.488   9.960 -1.1807 -1.2296 -0.1394
   85SAPS   C29 8065   0.347   1.485   9.772  0.3972 -0.4533  0.2581
   85SAPS   H9R 8066   0.418   1.406   9.744  0.8269 -0.1263  0.4377
   85SAPS  C210 8067   0.241   1.513   9.665 -0.7283 -0.2903 -0.3119
   85SAPS  H10R 8068   0.154   1.563   9.713  0.0932  1.6913 -0.8369
   85SAPS  H10S 8069   0.206   1.420   9.616  0.1406 -1.1101  0.6136
   85SAPS  C211 8070   0.290   1.615   9.565 -0.5761 -0.8224 -0.0393
   85SAPS  H11R 8071   0.282   1.719   9.599 -1.7508 -0.4453 -1.4505
   85SAPS  C212 8072   0.332   1.594   9.438 -0.3041  0.7630  0.3626
   85SAPS  H12R 8073   0.359   1.680   9.376  0.6648  0.1580 -0.0772
   85SAPS  C213 8074   0.343   1.464   9.362 -0.3849 -0.5607 -0.3098
   85SAPS  H13R 8075   0.370   1.383   9.433 -1.0741  0.7602  1.4913
   85SAPS  H13S 8076   0.421   1.471   9.283  0.2852 -1.3121  0.2814
   85SAPS  C214 8077   0.206   1.412   9.318 -1.2057 -0.3423  0.0458
   85SAPS  H14R 8078   0.138   1.385   9.399 -0.9858 -0.7539  0.0939
   85SAPS  C215 8079   0.165   1.392   9.200  0.0483  0.6070  0.3858
   85SAPS  H15R 8080   0.066   1.344   9.191  1.1642 -1.3195 -2.1614
   85SAPS  C216 8081   0.231   1.426   9.068 -0.4384  0.7178 -0.4258
   85SAPS  H16R 8082   0.320   1.492   9.081 -0.2565  0.6603 -1.3412
   85SAPS  H16S 8083   0.162   1.489   9.008  0.1573 -1.1930 -3.2035
   85SAPS  C217 8084   0.287   1.303   9.003  0.1930  0.7061  0.4334
   85SAPS  H17R 8085   0.210   1.228   8.976  0.9630 -0.3374  1.1019
   85SAPS  H17S 8086   0.370   1.252   9.057  3.1574  1.6507 -3.0636
   85SAPS  C218 8087   0.340   1.346   8.867  0.3819 -0.4327 -0.5872
   85SAPS  H18R 8088   0.423   1.416   8.892 -0.1646  0.0199 -0.0187
   85SAPS  H18S 8089   0.262   1.401   8.810  0.5322 -2.3786 -2.7639
   85SAPS  C219 8090   0.387   1.229   8.788 -0.3087 -0.0593 -0.7831
   85SAPS  H19R 8091   0.425   1.148   8.855 -0.9766  0.1864 -0.1026
   85SAPS  H19S 8092   0.461   1.274   8.718 -0.8008  0.2632 -1.0910
   85SAPS  C220 8093   0.276   1.166   8.707  0.3368  0.5416 -0.1961
   85SAPS  H20R 8094   0.204   1.116   8.775 -0.6389  2.0142 -0.1191
   85SAPS  H20S 8095   0.308   1.082   8.642 -1.2049  0.3941 -0.7789
   85SAPS  H20T 8096   0.227   1.234   8.634 -4.2617 -1.5735  0.7046
   85SAPS   C33 8097   0.584   1.143  10.059 -0.6668 -0.2222 -0.4025
   85SAPS   H3X 8098   0.658   1.060  10.058  0.6614  0.9802 -1.4117
   85SAPS   H3Y 8099   0.634   1.241  10.058  1.3039 -1.1682  1.1514
   85SAPS   C34 8100   0.484   1.145   9.942  0.3710 -0.5792  0.1204
   85SAPS   H4X 8101   0.430   1.242   9.929 -0.1022 -0.9185 -0.5189
   85SAPS   H4Y 8102   0.413   1.061   9.954  0.0295 -0.5025 -1.2653
   85SAPS   C35 8103   0.561   1.128   9.809  0.2775 -0.5060 -0.7535
   85SAPS   H5X 8104   0.622   1.035   9.808 -0.6045 -1.1053  0.3575
   85SAPS   H5Y 8105   0.636   1.210   9.813  0.0571 -0.3789  1.8827
   85SAPS   C36 8106   0.464   1.128   9.699 -0.3297 -0.2555  0.3088
   85SAPS   H6X 8107   0.402   1.218   9.715  0.5181  0.2908  0.5644
   85SAPS   H6Y 8108   0.391   1.045   9.712 -3.0092  2.1054  0.7455
   85SAPS   C37 8109   0.524   1.127   9.560 -0.3384  0.4249  0.7578
   85SAPS   H7X 8110   0.607   1.053   9.551  0.2497  1.1763 -0.1366
   85SAPS   H7Y 8111   0.570   1.225   9.535 -1.4791  0.7368 -0.1349
   85SAPS   C38 8112   0.423   1.095   9.452 -0.1713 -0.0249  0.3523
   85SAPS   H8X 8113   0.332   1.159   9.452  0.7934  1.3787 -0.2640
   85SAPS   H8Y 8114   0.391   0.989   9.462 -0.8002  0.1655  0.4056
   85SAPS   C39 8115   0.478   1.113   9.310  1.4306 -0.4877 -0.1047
   85SAPS   H9X 8116   0.530   1.209   9.292 -1.5523  1.3659  0.8912
   85SAPS   H9Y 8117   0.396   1.108   9.236  2.4500  1.3682 -1.4019
   85SAPS  C310 8118   0.580   1.000   9.276  0.0294  0.0200  1.4011
   85SAPS  H10X 8119   0.541   0.900   9.306  0.0577 -0.1031  1.0379
   85SAPS  H10Y 8120   0.671   1.015   9.338  1.4568 -4.3645  0.5826
   85SAPS  C311 8121   0.618   0.999   9.129  0.3838  0.1248 -0.1720
   85SAPS  H11X 8122   0.654   1.102   9.110  1.9473 -0.4805 -0.5461
   85SAPS  H11Y 8123   0.530   0.990   9.062 -0.3317  2.7273  0.3757
   85SAPS  C312 8124   0.728   0.898   9.090  0.0118  0.5637 -0.3329
   85SAPS  H12X 8125   0.700   0.793   9.110 -0.9234  0.7700 -0.5185
   85SAPS  H12Y 8126   0.811   0.911   9.162 -1.6852  1.2458  1.5451
   85SAPS  C313 8127   0.760   0.910   8.939 -0.1876  0.8190 -0.1875
   85SAPS  H13X 8128   0.807   1.009   8.916 -1.2427  1.3049 -0.2697
   85SAPS  H13Y 8129   0.667   0.903   8.879 -1.4098 -0.2188  1.7919
   85SAPS  C314 8130   0.863   0.810   8.891 -0.2623  0.1782  0.2195
   85SAPS  H14X 8131   0.843   0.713   8.940 -1.9762  2.4318  4.2702
   85SAPS  H14Y 8132   0.953   0.850   8.942  0.0732 -0.0906 -0.1668
   85SAPS  C315 8133   0.872   0.801   8.743 -0.2460 -0.0989 -0.8091
   85SAPS  H15X 8134   0.898   0.900   8.699 -1.1343 -0.2601 -1.7052
   85SAPS  H15Y 8135   0.772   0.777   8.701 -0.0261 -1.3033 -0.6679
   85SAPS  C316 8136   0.978   0.699   8.698 -0.2005  0.1049  0.0139
   85SAPS  H16X 8137   0.971   0.606   8.759  0.0420 -0.5115 -0.8774
   85SAPS  H16Y 8138   1.074   0.752   8.716  0.1006 -0.2629 -0.4783
   85SAPS  C317 8139   0.964   0.665   8.555  0.0287 -0.5811  0.7854
   85SAPS  H17X 8140   1.063   0.637   8.512  1.5695  2.5368  2.1355
   85SAPS  H17Y 8141   0.937   0.757   8.499  1.0887 -0.6325  0.1664
   85SAPS  C318 8142   0.862   0.558   8.529 -0.8180  0.3484  0.0926
   85SAPS  H18X 8143   0.873   0.534   8.421 -1.4920  1.9838 -0.3655
   85SAPS  H18Y 8144   0.756   0.591   8.544 -1.4660 -2.0233  0.8816
   85SAPS  H18Z 8145   0.890   0.470   8.590  1.0547 -0.1707 -1.4805
   86SAPS     N 8146   2.487   2.014  10.975  0.3341 -0.2024  0.2687
   86SAPS   HN1 8147   2.546   1.984  10.894  1.2462  0.6690  0.6020
   86SAPS   HN2 8148   2.385   2.029  10.966 -0.1268 -2.0727  2.0930
   86SAPS   HN3 8149   2.506   2.111  11.009 -2.4645  0.0967  1.0463
   86SAPS   C12 8150   2.500   1.920  11.091 -0.1180  0.4910  0.0304
   86SAPS  H12A 8151   2.605   1.918  11.116  0.2047  3.0683 -0.9782
   86SAPS   C13 8152   2.437   1.964  11.221  0.0835 -0.0344 -0.5083
   86SAPS  O13A 8153   2.371   2.076  11.222  0.3831  0.0192  0.3693
   86SAPS  O13B 8154   2.440   1.889  11.324 -0.0802  0.0985 -0.0904
   86SAPS   C11 8155   2.447   1.785  11.038  0.4633  0.0573 -0.2828
   86SAPS  H11A 8156   2.462   1.708  11.117  0.9623 -0.4124 -0.8303
   86SAPS  H11B 8157   2.512   1.749  10.956  0.4342 -2.0945  0.6171
   86SAPS     P 8158   2.245   1.679  10.906 -0.4337 -0.2154 -0.1287
   86SAPS   O13 8159   2.222   1.557  10.992  0.0624 -0.6304  0.0235
   86SAPS   O14 8160   2.130   1.736  10.833 -0.3968 -0.4463  0.8767
   86SAPS   O12 8161   2.310   1.789  11.002 -0.1443 -0.0563 -0.1577
   86SAPS   O11 8162   2.363   1.641  10.809 -0.7515  0.0580 -0.3943
   86SAPS    C1 8163   2.400   1.730  10.708  0.2515 -0.0570  0.3212
   86SAPS    HA 8164   2.351   1.829  10.724 -0.6580 -0.5673  0.7166
   86SAPS    HB 8165   2.507   1.759  10.711  1.2118 -3.3586 -0.2019
   86SAPS    C2 8166   2.368   1.662  10.569  0.4003  0.1761 -0.2911
   86SAPS    HS 8167   2.414   1.720  10.487 -1.3644 -0.0835 -1.4952
   86SAPS   O21 8168   2.221   1.652  10.543  0.1721  0.4595  0.1598
   86SAPS   C21 8169   2.147   1.755  10.534  0.8346 -0.6358 -0.2672
   86SAPS   O22 8170   2.180   1.871  10.532  0.6076 -0.1281  0.5295
   86SAPS   C22 8171   2.000   1.715  10.512 -0.2338  0.6245  0.5837
   86SAPS   H2R 8172   1.959   1.632  10.573 -0.3684  0.1975 -0.0705
   86SAPS   H2S 8173   1.932   1.802  10.519 -0.2565  0.6719 -0.1729
   86SAPS    C3 8174   2.435   1.522  10.557 -0.6295  0.2573  0.0511
   86SAPS    HX 8175   2.409   1.472  10.652 -2.0146  1.4020  0.3084
   86SAPS    HY 8176   2.545   1.515  10.549 -0.6119 -1.0767  1.4145
   86SAPS   O31 8177   2.370   1.441  10.451  0.1039 -0.5269  0.0245
   86SAPS   C31 8178   2.404   1.466  10.326 -1.2486  0.4000  0.5196
   86SAPS   O32 8179   2.477   1.556  10.291 -0.2598  0.0964  0.0588
   86SAPS   C32 8180   2.331   1.375  10.221  0.7372 -1.1428 -0.9976
   86SAPS   H2X 8181   2.246   1.426  10.172  0.2954 -0.8267  0.0832
   86SAPS   H2Y 8182   2.278   1.288  10.264  1.2237 -0.2963  1.3948
   86SAPS   C23 8183   1.987   1.654  10.368  0.4916 -0.2884 -0.3354
   86SAPS   H3R 8184   1.894   1.595  10.377  0.0823  0.6081  1.6291
   86SAPS   H3S 8185   2.065   1.579  10.341 -1.4305 -2.5930  0.4375
   86SAPS   C24 8186   1.962   1.753  10.257  0.5751  0.1805  0.5475
   86SAPS   H4R 8187   1.866   1.803  10.285 -0.3630 -0.1331 -2.0105
   86SAPS   H4S 8188   1.927   1.684  10.177  2.1880 -1.5056  1.2691
   86SAPS   C25 8189   2.076   1.831  10.211  0.3949 -0.0318  0.0153
   86SAPS   H5R 8190   2.142   1.873  10.289 -0.8540  2.3407 -0.1450
   86SAPS   C26 8191   2.114   1.848  10.084 -0.2098 -1.0358  0.1667
   86SAPS   H6R 8192   2.184   1.931  10.064 -0.6711  0.1973  3.4727
   86SAPS   C27 8193   2.046   1.789   9.964  0.0806  0.4482 -0.5461
   86SAPS   H7R 8194   2.060   1.852   9.873 -0.4934 -1.7623 -2.2163
   86SAPS   H7S 8195   1.935   1.798   9.971 -0.1008  0.4384 -3.0189
   86SAPS   C28 8196   2.080   1.648   9.938 -0.7390 -0.7265  0.2464
   86SAPS   H8R 8197   2.012   1.573   9.983 -0.2013 -1.0605  0.5114
   86SAPS   C29 8198   2.186   1.602   9.866  0.1269 -0.2005 -0.0658
   86SAPS   H9R 8199   2.203   1.494   9.855  0.4388  0.0364 -2.0312
   86SAPS  C210 8200   2.295   1.678   9.794  0.0858 -0.2804 -0.3734
   86SAPS  H10R 8201   2.391   1.623   9.801 -0.1310 -0.5845  0.2317
   86SAPS  H10S 8202   2.312   1.780   9.833 -3.6056  0.2138  0.1487
   86SAPS  C211 8203   2.253   1.709   9.649  0.3185 -0.1183 -0.0565
   86SAPS  H11R 8204   2.208   1.808   9.629 -2.6338 -0.2751  5.0922
   86SAPS  C212 8205   2.294   1.640   9.538  0.9547  0.5436 -0.3492
   86SAPS  H12R 8206   2.258   1.679   9.442  2.2062  0.2936 -0.9255
   86SAPS  C213 8207   2.376   1.515   9.532  0.5420 -0.5001 -0.6142
   86SAPS  H13R 8208   2.352   1.455   9.622 -1.7378  0.0999 -0.7892
   86SAPS  H13S 8209   2.484   1.541   9.535  0.2265  0.7884  0.3322
   86SAPS  C214 8210   2.362   1.443   9.402  0.7907 -0.1551  0.4387
   86SAPS  H14R 8211   2.357   1.507   9.313  1.0883  0.7072  1.0381
   86SAPS  C215 8212   2.348   1.311   9.386 -0.3053  0.2117  0.1535
   86SAPS  H15R 8213   2.330   1.258   9.292  2.3198 -1.1421  0.3595
   86SAPS  C216 8214   2.355   1.208   9.498  0.5080  0.0243  0.4166
   86SAPS  H16R 8215   2.257   1.158   9.511  0.2618  0.5733  0.7316
   86SAPS  H16S 8216   2.388   1.269   9.586 -0.1659 -1.5740  1.7945
   86SAPS  C217 8217   2.457   1.100   9.483  0.6216  0.2991 -0.6197
   86SAPS  H17R 8218   2.445   1.032   9.569  0.9226  0.3821 -0.5132
   86SAPS  H17S 8219   2.559   1.142   9.474  2.1016 -3.0044  0.3479
   86SAPS  C218 8220   2.420   1.003   9.367  0.4421 -0.0396 -0.3087
   86SAPS  H18R 8221   2.485   1.022   9.279  0.6667 -0.8572 -0.3214
   86SAPS  H18S 8222   2.313   1.017   9.342  1.1060  0.9147 -2.6780
   86SAPS  C219 8223   2.460   0.856   9.389 -0.1628 -0.5372  0.4115
   86SAPS  H19R 8224   2.440   0.842   9.498 -1.4281 -0.8541  0.1547
   86SAPS  H19S 8225   2.567   0.836   9.366 -0.0296 -0.5932  1.0766
   86SAPS  C220 8226   2.371   0.763   9.308  0.2083 -0.7538  0.2938
   86SAPS  H20R 8227   2.387   0.786   9.201 -1.7633 -0.6368 -0.0060
   86SAPS  H20S 8228   2.261   0.777   9.318  0.3069 -0.8349  1.5793
   86SAPS  H20T 8229   2.406   0.659   9.321  1.4250 -0.4665 -0.6148
   86SAPS   C33 8230   2.430   1.332  10.105 -0.2152  0.6045 -0.2821
   86SAPS   H3X 8231   2.505   1.268  10.157 -0.5208 -1.8280 -2.7195
   86SAPS   H3Y 8232   2.477   1.418  10.054  1.1840  0.1288  0.1710
   86SAPS   C34 8233   2.371   1.234   9.998 -0.0725 -0.7212  0.2343
   86SAPS   H4X 8234   2.455   1.223   9.926 -1.5082 -1.2346 -1.3924
   86SAPS   H4Y 8235   2.296   1.299   9.949  0.3128  1.9676  3.0979
   86SAPS   C35 8236   2.327   1.095  10.044 -0.6173 -0.2052 -0.4404
   86SAPS   H5X 8237   2.228   1.119  10.088  0.9650  0.1517  3.1227
   86SAPS   H5Y 8238   2.403   1.056  10.115 -1.9414 -4.5867 -1.2897
   86SAPS   C36 8239   2.312   0.999   9.929 -0.1594 -0.4590 -0.2492
   86SAPS   H6X 8240   2.336   0.896   9.960  2.1182  0.4405  1.0620
   86SAPS   H6Y 8241   2.380   1.013   9.842 -2.6134  2.8339 -1.7574
   86SAPS   C37 8242   2.170   1.001   9.865 -0.0121 -0.0570  0.6610
   86SAPS   H7X 8243   2.143   1.104   9.833  1.8846  0.3193  0.2657
   86SAPS   H7Y 8244   2.091   0.966   9.935 -1.4699  0.4128 -0.7240
   86SAPS   C38 8245   2.162   0.899   9.749 -0.3263 -0.4630  0.2912
   86SAPS   H8X 8246   2.149   0.796   9.789 -0.7269 -0.3060  0.5787
   86SAPS   H8Y 8247   2.259   0.894   9.696 -0.4390  0.1429  0.0194
   86SAPS   C39 8248   2.059   0.938   9.640  0.3255  0.2681  0.2792
   86SAPS   H9X 8249   2.065   0.855   9.566 -2.2399  1.3907 -1.2876
   86SAPS   H9Y 8250   2.090   1.035   9.594  2.5525 -0.6309 -0.1935
   86SAPS  C310 8251   1.918   0.954   9.695  0.0010 -0.0737 -0.2580
   86SAPS  H10X 8252   1.927   1.043   9.760  1.2588 -3.3540  4.3035
   86SAPS  H10Y 8253   1.890   0.867   9.758  1.6142  0.6012  1.4321
   86SAPS  C311 8254   1.809   0.985   9.595 -0.3787 -0.1020  0.4468
   86SAPS  H11X 8255   1.738   1.036   9.664  1.0092 -1.5327  2.9935
   86SAPS  H11Y 8256   1.775   0.885   9.560  1.9118 -0.4289 -0.9599
   86SAPS  C312 8257   1.843   1.057   9.463  0.0011  0.8454  0.8036
   86SAPS  H12X 8258   1.937   1.013   9.422 -0.2618  1.2015 -0.2095
   86SAPS  H12Y 8259   1.860   1.163   9.494 -1.1285  0.2334  3.6111
   86SAPS  C313 8260   1.729   1.039   9.364  0.1170 -0.2725 -0.3606
   86SAPS  H13X 8261   1.644   1.099   9.404  0.6695 -0.0266  0.4461
   86SAPS  H13Y 8262   1.702   0.931   9.360  1.5085 -0.6208 -0.5126
   86SAPS  C314 8263   1.759   1.090   9.221  0.0496 -0.1700 -0.7797
   86SAPS  H14X 8264   1.852   1.042   9.184 -0.2426  0.6639 -2.6520
   86SAPS  H14Y 8265   1.795   1.195   9.227 -0.2215 -0.1983  1.8842
   86SAPS  C315 8266   1.651   1.060   9.120 -0.9044  0.1730 -0.2155
   86SAPS  H15X 8267   1.668   1.116   9.026 -1.1890  0.7429  0.0695
   86SAPS  H15Y 8268   1.554   1.100   9.156 -2.0264 -2.3191 -0.3237
   86SAPS  C316 8269   1.629   0.912   9.082  0.3152  0.2065 -0.3283
   86SAPS  H16X 8270   1.534   0.899   9.026  0.5579  0.8366 -0.8955
   86SAPS  H16Y 8271   1.627   0.859   9.179  2.4532 -0.0831 -0.4123
   86SAPS  C317 8272   1.738   0.855   8.989  0.0713 -0.3409  0.2822
   86SAPS  H17X 8273   1.729   0.745   8.981 -0.0494 -0.3759  0.9182
   86SAPS  H17Y 8274   1.843   0.871   9.023 -0.8211 -0.2292  3.0276
   86SAPS  C318 8275   1.725   0.904   8.840  0.7883  0.9241 -0.0267
   86SAPS  H18X 8276   1.783   0.996   8.821  1.4419  0.7160  0.9530
   86SAPS  H18Y 8277   1.618   0.918   8.810  0.2841 -2.0574  0.1898
   86SAPS  H18Z 8278   1.767   0.828   8.770  1.5907  1.4781 -0.1435
   87SAPS     N 8279   3.226   1.569  10.995  0.1707  0.3376  0.0248
   87SAPS   HN1 8280   3.314   1.618  10.971  0.0477  0.0915 -0.9205
   87SAPS   HN2 8281   3.237   1.467  11.010  1.1311  0.4268 -0.0855
   87SAPS   HN3 8282   3.154   1.582  10.921 -0.6758 -0.4899  0.6811
   87SAPS   C12 8283   3.175   1.620  11.128  0.5230 -0.0634 -0.3726
   87SAPS  H12A 8284   3.071   1.589  11.134  0.6383 -0.9124 -2.3001
   87SAPS   C13 8285   3.252   1.557  11.255  0.3078 -0.6061  0.1314
   87SAPS  O13A 8286   3.327   1.456  11.235  0.2039  0.2962 -0.2773
   87SAPS  O13B 8287   3.217   1.591  11.365  0.3710  0.6486 -0.0692
   87SAPS   C11 8288   3.198   1.780  11.134 -1.0596 -0.2387 -0.1484
   87SAPS  H11A 8289   3.305   1.787  11.107 -0.9697  1.6985  0.6811
   87SAPS  H11B 8290   3.184   1.815  11.238  0.2428  0.5407 -0.2268
   87SAPS     P 8291   2.953   1.846  11.083 -0.5819 -0.1573  0.0206
   87SAPS   O13 8292   2.894   1.715  11.063  0.5627 -0.3905  0.1160
   87SAPS   O14 8293   2.946   1.917  11.214 -0.1296 -0.0845 -0.1638
   87SAPS   O12 8294   3.108   1.847  11.037 -0.0461 -1.2829 -0.0889
   87SAPS   O11 8295   2.892   1.937  10.970  0.1575  0.2647  0.1653
   87SAPS    C1 8296   2.954   2.053  10.915  0.0603 -0.7465  0.7106
   87SAPS    HA 8297   2.965   2.133  10.992 -2.4942  0.0308  0.3146
   87SAPS    HB 8298   3.058   2.046  10.879 -0.1732  2.0140 -0.6591
   87SAPS    C2 8299   2.877   2.110  10.793 -0.6005 -0.2585 -0.0981
   87SAPS    HS 8300   2.790   2.148  10.850  1.7124  3.0761  1.3936
   87SAPS   O21 8301   2.862   2.019  10.693  0.1100 -0.0738  0.3666
   87SAPS   C21 8302   2.748   1.954  10.688 -0.7180  0.2874  0.1281
   87SAPS   O22 8303   2.660   1.958  10.769 -0.3357  0.2342 -0.1494
   87SAPS   C22 8304   2.741   1.872  10.557  0.2187  0.0634  0.1649
   87SAPS   H2R 8305   2.783   1.771  10.578  1.1332  0.3286 -0.3803
   87SAPS   H2S 8306   2.633   1.856  10.535  0.8312 -3.5522 -0.5069
   87SAPS    C3 8307   2.943   2.236  10.720  0.0204  0.0666  0.3376
   87SAPS    HX 8308   3.041   2.199  10.684  0.2544  2.1792 -1.3155
   87SAPS    HY 8309   2.967   2.306  10.802 -0.9721  0.1796  0.5383
   87SAPS   O31 8310   2.863   2.305  10.622  0.4743  0.6278  0.3090
   87SAPS   C31 8311   2.907   2.292  10.493 -1.0639 -0.7905 -0.0956
   87SAPS   O32 8312   2.993   2.216  10.453 -0.0875 -0.3970 -0.1824
   87SAPS   C32 8313   2.798   2.366  10.405 -1.1117  0.7994  1.1750
   87SAPS   H2X 8314   2.819   2.475  10.405 -0.9507  0.7750 -0.3779
   87SAPS   H2Y 8315   2.695   2.353  10.443 -1.2246 -0.3661  0.4785
   87SAPS   C23 8316   2.821   1.926  10.430 -0.2134  0.9958 -0.3618
   87SAPS   H3R 8317   2.918   1.973  10.459 -0.5776  1.0915  0.7518
   87SAPS   H3S 8318   2.758   2.007  10.387  1.4982  1.1515 -2.7016
   87SAPS   C24 8319   2.847   1.816  10.328 -0.5918 -0.4839  0.0889
   87SAPS   H4R 8320   2.858   1.723  10.387  1.5853 -0.6890 -0.6033
   87SAPS   H4S 8321   2.947   1.832  10.283 -0.8636  1.7851  0.1942
   87SAPS   C25 8322   2.745   1.809  10.219 -0.6405 -0.2717  0.5427
   87SAPS   H5R 8323   2.643   1.793  10.258 -1.1411  1.7617  0.0998
   87SAPS   C26 8324   2.758   1.846  10.088  0.1475  0.1706 -0.1199
   87SAPS   H6R 8325   2.683   1.814  10.015 -1.8337 -1.0663  2.3657
   87SAPS   C27 8326   2.872   1.909  10.017 -0.3747 -1.1682 -0.2626
   87SAPS   H7R 8327   2.951   1.955  10.081 -1.1439  3.1924 -2.2678
   87SAPS   H7S 8328   2.836   2.000   9.965  0.5092 -0.9808 -0.5519
   87SAPS   C28 8329   2.951   1.809   9.931 -1.1857 -0.4274  0.2492
   87SAPS   H8R 8330   3.022   1.748   9.990  1.3343 -0.4793 -2.6671
   87SAPS   C29 8331   2.948   1.807   9.797 -0.0198  0.5486  0.4224
   87SAPS   H9R 8332   3.004   1.725   9.751 -1.0694  0.7404 -1.2390
   87SAPS  C210 8333   2.859   1.887   9.701 -0.3297  0.2095 -0.0292
   87SAPS  H10R 8334   2.908   1.914   9.605  0.8779  1.7402  1.0093
   87SAPS  H10S 8335   2.822   1.981   9.747 -0.7005  0.2942 -0.4969
   87SAPS  C211 8336   2.741   1.806   9.666  1.1962  0.2455  0.3380
   87SAPS  H11R 8337   2.681   1.787   9.756  0.4084 -2.0843 -0.6266
   87SAPS  C212 8338   2.697   1.768   9.542  0.0149 -0.0123  0.1403
   87SAPS  H12R 8339   2.604   1.712   9.523 -0.2120  0.2643  0.4282
   87SAPS  C213 8340   2.770   1.791   9.409  0.2510  0.6395  0.3155
   87SAPS  H13R 8341   2.777   1.692   9.361 -2.7989 -0.0676  1.2302
   87SAPS  H13S 8342   2.877   1.817   9.424  0.0213  1.0377  1.3504
   87SAPS  C214 8343   2.718   1.895   9.320 -0.5714 -0.5298 -0.3582
   87SAPS  H14R 8344   2.750   1.999   9.340 -1.0051 -0.5607  0.5269
   87SAPS  C215 8345   2.614   1.877   9.236 -1.1253 -0.6251  0.5275
   87SAPS  H15R 8346   2.569   1.960   9.179  0.0175 -0.3169  0.0624
   87SAPS  C216 8347   2.539   1.751   9.210 -0.7730  0.5479 -0.9321
   87SAPS  H16R 8348   2.430   1.770   9.221 -0.9021 -1.3965  1.6986
   87SAPS  H16S 8349   2.570   1.682   9.291  1.1105  2.0345 -0.3517
   87SAPS  C217 8350   2.566   1.690   9.076 -0.3815  0.5448  0.2626
   87SAPS  H17R 8351   2.671   1.686   9.038 -1.2186 -1.0767 -1.9914
   87SAPS  H17S 8352   2.517   1.755   9.000 -0.2388  1.7043  1.1495
   87SAPS  C218 8353   2.520   1.547   9.071 -0.3988 -0.5728  0.2393
   87SAPS  H18R 8354   2.409   1.541   9.083 -0.7011  2.2088 -0.8372
   87SAPS  H18S 8355   2.568   1.492   9.155 -0.3523 -2.4066 -0.9693
   87SAPS  C219 8356   2.570   1.476   8.945  0.6937 -0.7746 -0.1759
   87SAPS  H19R 8357   2.556   1.366   8.943 -0.1942 -0.7304  2.1758
   87SAPS  H19S 8358   2.681   1.478   8.944  0.7204 -1.8577 -0.7415
   87SAPS  C220 8359   2.521   1.524   8.815  0.3104 -0.8152 -0.0170
   87SAPS  H20R 8360   2.413   1.504   8.801  0.4093 -0.8095 -0.8052
   87SAPS  H20S 8361   2.578   1.476   8.733  1.9656  0.8499  0.1063
   87SAPS  H20T 8362   2.554   1.629   8.798  1.4933 -0.9180  1.5284
   87SAPS   C33 8363   2.785   2.327  10.252 -0.4746 -0.4315 -0.4427
   87SAPS   H3X 8364   2.687   2.348  10.203  0.2036 -0.2120 -1.7333
   87SAPS   H3Y 8365   2.810   2.218  10.246  1.8506 -0.2104  3.6021
   87SAPS   C34 8366   2.897   2.398  10.171 -1.2026 -0.3253  0.0885
   87SAPS   H4X 8367   2.985   2.407  10.238 -0.1746  2.6331 -1.5321
   87SAPS   H4Y 8368   2.859   2.502  10.157  1.2349  0.6908  0.6425
   87SAPS   C35 8369   2.936   2.344  10.035 -0.3108  0.4152 -0.1817
   87SAPS   H5X 8370   2.951   2.235  10.053  0.5505  0.7221  1.0763
   87SAPS   H5Y 8371   3.036   2.383  10.005  0.2087 -0.5790  0.2057
   87SAPS   C36 8372   2.830   2.362   9.931  0.8537 -0.5569  0.0922
   87SAPS   H6X 8373   2.822   2.471   9.911 -1.5051 -0.4077  1.6680
   87SAPS   H6Y 8374   2.728   2.324   9.949  0.8269 -1.0332 -1.0000
   87SAPS   C37 8375   2.876   2.290   9.809 -0.0685  0.3038 -0.2424
   87SAPS   H7X 8376   2.867   2.180   9.815 -0.0470  0.3064 -0.1694
   87SAPS   H7Y 8377   2.985   2.314   9.804 -0.2319  1.1095 -0.0729
   87SAPS   C38 8378   2.821   2.353   9.679 -0.4679 -0.0967 -0.9049
   87SAPS   H8X 8379   2.856   2.459   9.674 -2.0036  0.4858  0.2129
   87SAPS   H8Y 8380   2.712   2.370   9.693  0.0131  1.4819  1.2899
   87SAPS   C39 8381   2.849   2.272   9.557 -0.3259  0.4746  0.1207
   87SAPS   H9X 8382   2.799   2.173   9.562 -0.3675  0.5120  0.4271
   87SAPS   H9Y 8383   2.959   2.259   9.551 -0.3024  0.2891  0.9654
   87SAPS  C310 8384   2.802   2.348   9.433  0.1885 -0.4131  0.0538
   87SAPS  H10X 8385   2.831   2.455   9.441 -0.1349  0.0473 -3.7868
   87SAPS  H10Y 8386   2.693   2.347   9.455  0.2055 -0.6042  0.1262
   87SAPS  C311 8387   2.812   2.289   9.299 -0.4150 -0.0973 -0.3460
   87SAPS  H11X 8388   2.745   2.201   9.284 -0.3567 -0.6580  2.3392
   87SAPS  H11Y 8389   2.922   2.275   9.287 -0.3673  1.6403 -2.2129
   87SAPS  C312 8390   2.778   2.395   9.194 -0.5288 -0.1093  0.4289
   87SAPS  H12X 8391   2.839   2.486   9.211  0.2496 -1.0729  3.0476
   87SAPS  H12Y 8392   2.673   2.425   9.216 -0.6432  0.8968 -1.3148
   87SAPS  C313 8393   2.799   2.347   9.050 -0.0460  0.0208  0.3617
   87SAPS  H13X 8394   2.909   2.338   9.035  0.2428 -3.9832  3.7331
   87SAPS  H13Y 8395   2.773   2.425   8.976  0.6559  0.4960  0.6089
   87SAPS  C314 8396   2.727   2.211   9.026 -0.2124  0.2146 -0.5309
   87SAPS  H14X 8397   2.633   2.202   9.085 -1.2979  0.4187 -2.2148
   87SAPS  H14Y 8398   2.802   2.138   9.065  0.5511  1.7728  0.9636
   87SAPS  C315 8399   2.694   2.168   8.879  0.6402 -0.0672  0.0941
   87SAPS  H15X 8400   2.794   2.166   8.831  0.2493 -1.2187 -0.7104
   87SAPS  H15Y 8401   2.628   2.240   8.825  1.3185  1.9902  1.9301
   87SAPS  C316 8402   2.630   2.029   8.877 -0.0071  0.2455 -0.6473
   87SAPS  H16X 8403   2.530   2.057   8.917 -0.5835 -3.2419  0.5054
   87SAPS  H16Y 8404   2.657   1.957   8.957  2.0186  0.4462 -1.1309
   87SAPS  C317 8405   2.625   1.951   8.744  0.1313  0.2278 -0.0317
   87SAPS  H17X 8406   2.568   1.857   8.761  1.5754 -0.7172 -0.2266
   87SAPS  H17Y 8407   2.733   1.929   8.725 -0.0708  1.5146 -2.9504
   87SAPS  C318 8408   2.565   2.020   8.628 -0.2443 -0.0775  0.1978
   87SAPS  H18X 8409   2.563   1.967   8.530 -0.6760 -2.7128  1.5920
   87SAPS  H18Y 8410   2.619   2.116   8.615  0.7938 -0.7377 -0.4636
   87SAPS  H18Z 8411   2.458   2.035   8.655 -0.1104  2.5429 -0.5650
   88SAPS     N 8412   5.146   0.376  10.712 -0.5836  0.4683 -0.0873
   88SAPS   HN1 8413   5.128   0.323  10.800  2.3387  0.4861  0.5785
   88SAPS   HN2 8414   5.051   0.405  10.683 -0.6588 -2.0979 -2.5532
   88SAPS   HN3 8415   5.199   0.319  10.643 -0.4063 -0.6786  0.9856
   88SAPS   C12 8416   5.230   0.502  10.745  0.0650 -0.1029 -0.4462
   88SAPS  H12A 8417   5.266   0.538  10.650  2.3673 -0.7872  0.1368
   88SAPS   C13 8418   5.147   0.612  10.812 -0.4062  0.0883  0.3902
   88SAPS  O13A 8419   5.024   0.591  10.836 -0.5998  0.4584 -0.6384
   88SAPS  O13B 8420   5.206   0.722  10.837 -0.2181  0.4212  0.3043
   88SAPS   C11 8421   5.344   0.465  10.847  0.5437 -0.0822  0.7067
   88SAPS  H11A 8422   5.287   0.442  10.940 -1.3963  0.4441 -0.3148
   88SAPS  H11B 8423   5.414   0.547  10.873 -0.3508  1.4817 -1.5828
   88SAPS     P 8424   5.535   0.354  10.695  0.1938  0.3577 -0.0301
   88SAPS   O13 8425   5.628   0.467  10.717 -0.8604  1.3090 -0.0817
   88SAPS   O14 8426   5.595   0.218  10.682  0.2734 -0.0282 -0.0398
   88SAPS   O12 8427   5.423   0.357  10.802 -1.0952 -0.0337 -0.2832
   88SAPS   O11 8428   5.471   0.383  10.559  0.4786  0.4203 -0.3412
   88SAPS    C1 8429   5.508   0.456  10.448  0.1236  0.7445 -0.3535
   88SAPS    HA 8430   5.429   0.533  10.436 -2.0265 -1.3419  0.0444
   88SAPS    HB 8431   5.609   0.500  10.459  2.2534 -4.0019 -0.0036
   88SAPS    C2 8432   5.508   0.380  10.317 -0.8072  0.2967 -0.0589
   88SAPS    HS 8433   5.525   0.457  10.238  0.5721  1.2255  1.1039
   88SAPS   O21 8434   5.381   0.301  10.296  0.6681  0.2452 -0.5014
   88SAPS   C21 8435   5.284   0.379  10.258  0.0291 -0.2831 -0.2221
   88SAPS   O22 8436   5.290   0.501  10.255  0.3487  0.0815  0.1978
   88SAPS   C22 8437   5.151   0.298  10.242  0.3706 -0.3825 -0.5395
   88SAPS   H2R 8438   5.173   0.189  10.237  0.7166 -0.3676  0.5747
   88SAPS   H2S 8439   5.087   0.308  10.332 -0.1763 -0.8546 -0.8752
   88SAPS    C3 8440   5.631   0.281  10.307 -0.8200 -0.1447  0.2115
   88SAPS    HX 8441   5.622   0.207  10.390 -1.0681  1.7093  1.8885
   88SAPS    HY 8442   5.721   0.345  10.316 -1.6726  1.1124 -0.0969
   88SAPS   O31 8443   5.637   0.207  10.185  0.0327 -1.0312 -0.1378
   88SAPS   C31 8444   5.732   0.110  10.174 -0.0633 -0.0480  0.7990
   88SAPS   O32 8445   5.797   0.072  10.269 -0.0186  0.0735  0.2898
   88SAPS   C32 8446   5.731   0.061  10.032  0.3604 -0.3914  0.5477
   88SAPS   H2X 8447   5.823  -0.001  10.024  0.2871 -0.4129 -0.1911
   88SAPS   H2Y 8448   5.742   0.147   9.963  0.2827 -1.9452 -1.4473
   88SAPS   C23 8449   5.069   0.347  10.118  0.0404 -0.4789  0.2788
   88SAPS   H3R 8450   5.058   0.457  10.123 -0.6275 -0.5600  0.6350
   88SAPS   H3S 8451   4.963   0.314  10.115 -0.2167  0.4040 -0.8392
   88SAPS   C24 8452   5.132   0.313   9.983  0.3896 -0.4721  0.4003
   88SAPS   H4R 8453   5.067   0.243   9.926 -1.4851 -0.6873  2.7520
   88SAPS   H4S 8454   5.229   0.259   9.993  0.1582 -0.8107  0.8293
   88SAPS   C25 8455   5.161   0.441   9.903  0.3210  0.2515 -0.0322
   88SAPS   H5R 8456   5.203   0.528   9.955  0.2651  0.0549  0.3436
   88SAPS   C26 8457   5.127   0.467   9.776 -0.9061  0.1915 -0.4683
   88SAPS   H6R 8458   5.156   0.567   9.741 -1.3458  0.2462 -0.6780
   88SAPS   C27 8459   5.049   0.378   9.680 -0.5828  0.3512 -0.4447
   88SAPS   H7R 8460   4.963   0.434   9.637  0.6304  2.4589 -0.1777
   88SAPS   H7S 8461   5.006   0.295   9.741 -1.1332 -0.3732 -1.7907
   88SAPS   C28 8462   5.153   0.328   9.576 -0.0952  0.3897  1.3110
   88SAPS   H8R 8463   5.258   0.315   9.607 -0.0959  0.4189  1.3273
   88SAPS   C29 8464   5.121   0.286   9.452 -0.6174 -0.1646  0.7490
   88SAPS   H9R 8465   5.206   0.251   9.392 -1.1525  1.0293 -0.7508
   88SAPS  C210 8466   4.982   0.284   9.395  0.0020 -0.5188  0.0307
   88SAPS  H10R 8467   4.904   0.330   9.460  1.7189 -1.4325  2.8494
   88SAPS  H10S 8468   4.955   0.177   9.408 -2.5550  0.2572  1.4903
   88SAPS  C211 8469   4.978   0.337   9.248 -0.8899  0.0597 -0.5654
   88SAPS  H11R 8470   5.062   0.397   9.210 -0.1767 -0.3451  0.3547
   88SAPS  C212 8471   4.878   0.305   9.163 -0.0834  0.5549 -0.5532
   88SAPS  H12R 8472   4.876   0.346   9.061 -3.0210 -0.5750 -1.0140
   88SAPS  C213 8473   4.756   0.230   9.197  0.7471  0.3082  0.4936
   88SAPS  H13R 8474   4.722   0.238   9.303 -1.5589  2.5644 -0.3566
   88SAPS  H13S 8475   4.762   0.125   9.161 -3.4250  0.0110  0.4134
   88SAPS  C214 8476   4.634   0.284   9.120 -0.3108 -0.5839 -0.2804
   88SAPS  H14R 8477   4.625   0.393   9.130  1.5681 -0.4854  0.5254
   88SAPS  C215 8478   4.538   0.221   9.051 -0.1959 -1.1255  0.3736
   88SAPS  H15R 8479   4.457   0.277   9.002 -0.7273 -2.6489 -0.5241
   88SAPS  C216 8480   4.533   0.070   9.023  0.1892 -0.3028 -0.2403
   88SAPS  H16R 8481   4.426   0.039   9.021 -0.2736  1.2967 -2.2869
   88SAPS  H16S 8482   4.576   0.016   9.110 -0.0450  0.2666  0.2259
   88SAPS  C217 8483   4.596   0.032   8.886 -0.1645 -0.2388 -0.2511
   88SAPS  H17R 8484   4.600  -0.079   8.884 -0.0733 -0.2379 -0.1305
   88SAPS  H17S 8485   4.701   0.066   8.875 -0.5791  0.8139 -1.1144
   88SAPS  C218 8486   4.512   0.079   8.768 -0.3684  0.0873  0.2624
   88SAPS  H18R 8487   4.505   0.190   8.768 -1.0680  0.0522  0.8579
   88SAPS  H18S 8488   4.413   0.027   8.774 -0.3482 -0.2642 -2.2320
   88SAPS  C219 8489   4.567   0.029   8.634 -0.3206  0.2615  0.8388
   88SAPS  H19R 8490   4.601  -0.077   8.642 -0.4662  0.1054 -0.5146
   88SAPS  H19S 8491   4.660   0.087   8.616 -0.6957  0.5055 -0.3427
   88SAPS  C220 8492   4.473   0.050   8.512  0.3656 -0.3054 -0.4846
   88SAPS  H20R 8493   4.394  -0.027   8.506  0.6036 -0.6575  0.7840
   88SAPS  H20S 8494   4.532   0.053   8.418  1.1126  1.2071  0.0107
   88SAPS  H20T 8495   4.427   0.151   8.505  1.5757  0.2019 -1.2517
   88SAPS   C33 8496   5.614  -0.027   9.996  0.5029  0.0134 -0.0817
   88SAPS   H3X 8497   5.526   0.039   9.983  1.0344  0.4809 -1.4441
   88SAPS   H3Y 8498   5.582  -0.091  10.081  1.7342  2.7303  2.4955
   88SAPS   C34 8499   5.646  -0.122   9.873  0.2110 -0.0477 -0.1645
   88SAPS   H4X 8500   5.558  -0.185   9.848  0.6991 -1.4128  1.4665
   88SAPS   H4Y 8501   5.737  -0.182   9.897 -0.4350 -0.9337  0.1093
   88SAPS   C35 8502   5.677  -0.047   9.745 -0.1085 -0.7844  0.1744
   88SAPS   H5X 8503   5.776  -0.002   9.767 -0.5214  0.0647  0.3393
   88SAPS   H5Y 8504   5.607   0.037   9.726 -0.9441 -1.0074  2.1269
   88SAPS   C36 8505   5.687  -0.133   9.619  0.2647  0.6050  0.2207
   88SAPS   H6X 8506   5.584  -0.165   9.593 -0.0393  1.7305 -0.0180
   88SAPS   H6Y 8507   5.751  -0.221   9.639 -2.6375 -1.5563  0.2198
   88SAPS   C37 8508   5.750  -0.058   9.499 -0.1165  0.4148  0.4757
   88SAPS   H7X 8509   5.860  -0.049   9.506 -0.0578 -1.6789  2.8899
   88SAPS   H7Y 8510   5.712   0.045   9.514  0.0640  0.4130  0.9557
   88SAPS   C38 8511   5.713  -0.092   9.351  0.2973  0.7012 -0.5764
   88SAPS   H8X 8512   5.605  -0.116   9.347  0.8017 -1.9501  0.5601
   88SAPS   H8Y 8513   5.762  -0.185   9.315  0.8481 -0.1829  2.2894
   88SAPS   C39 8514   5.739   0.026   9.265 -0.0760  0.3120  0.9148
   88SAPS   H9X 8515   5.849   0.026   9.249  0.0124 -0.8108  1.5159
   88SAPS   H9Y 8516   5.709   0.129   9.295  1.7286  1.0268  0.3569
   88SAPS  C310 8517   5.668   0.005   9.128  0.8181 -0.2853 -1.1335
   88SAPS  H10X 8518   5.561   0.034   9.133  0.5129 -1.4820 -0.5571
   88SAPS  H10Y 8519   5.674  -0.104   9.111  1.5877 -0.4071 -0.1472
   88SAPS  C311 8520   5.745   0.079   9.012 -0.2689 -0.1592 -1.2800
   88SAPS  H11X 8521   5.855   0.069   9.024 -0.4756 -0.5678  0.3443
   88SAPS  H11Y 8522   5.712   0.185   9.014  1.4763  0.3747  1.3349
   88SAPS  C312 8523   5.713   0.013   8.871 -0.7391  0.0800 -0.2560
   88SAPS  H12X 8524   5.604   0.008   8.853 -0.5297  1.5817 -2.2141
   88SAPS  H12Y 8525   5.745  -0.093   8.881 -2.4246 -0.3732  0.3525
   88SAPS  C313 8526   5.769   0.096   8.758 -0.1330  0.1341  0.0607
   88SAPS  H13X 8527   5.733   0.199   8.777  0.8466  0.8659 -1.9184
   88SAPS  H13Y 8528   5.723   0.041   8.673  0.2399 -2.8770  1.7152
   88SAPS  C314 8529   5.922   0.083   8.740 -0.0089  0.0911  0.0168
   88SAPS  H14X 8530   5.980   0.124   8.826  0.5687 -1.2553  0.2850
   88SAPS  H14Y 8531   5.944   0.139   8.646 -1.6902  0.7284 -0.0170
   88SAPS  C315 8532   5.959  -0.064   8.709 -0.5273  0.8695  0.0423
   88SAPS  H15X 8533   5.865  -0.116   8.681 -1.0004  1.7393 -0.0215
   88SAPS  H15Y 8534   6.005  -0.102   8.803  1.1742  1.2265 -0.6300
   88SAPS  C316 8535   6.070  -0.079   8.604  0.2064 -0.1028 -0.0022
   88SAPS  H16X 8536   6.150  -0.014   8.646  0.1733 -1.2143  1.8308
   88SAPS  H16Y 8537   6.045  -0.038   8.504  0.2993  1.0192  0.4247
   88SAPS  C317 8538   6.128  -0.220   8.591 -0.4813 -0.0120 -0.1474
   88SAPS  H17X 8539   6.168  -0.225   8.488 -0.9986  2.0364 -0.4663
   88SAPS  H17Y 8540   6.042  -0.290   8.597  0.7002 -1.5245 -0.2025
   88SAPS  C318 8541   6.236  -0.249   8.690 -0.0766 -0.3884  1.1385
   88SAPS  H18X 8542   6.306  -0.163   8.686 -0.1612 -0.3753 -0.5693
   88SAPS  H18Y 8543   6.301  -0.332   8.653  2.3631  1.3706  1.3620
   88SAPS  H18Z 8544   6.197  -0.267   8.793  1.5287  0.1176  1.8437
   89SAPS     N 8545   4.927   2.558  10.850 -0.3506  0.0073  0.0298
   89SAPS   HN1 8546   4.873   2.500  10.782 -2.4529  0.7214  1.0405
   89SAPS   HN2 8547   5.008   2.592  10.794  0.3574 -1.0598  0.3902
   89SAPS   HN3 8548   4.969   2.497  10.922  0.0495  2.8768  2.3314
   89SAPS   C12 8549   4.846   2.672  10.907  0.5024  0.0062 -0.1050
   89SAPS  H12A 8550   4.743   2.648  10.927 -0.0388  4.1430  2.4911
   89SAPS   C13 8551   4.895   2.707  11.046 -0.2249  0.3103 -0.0872
   89SAPS  O13A 8552   4.979   2.633  11.105 -0.3007  0.0802 -0.4082
   89SAPS  O13B 8553   4.849   2.809  11.108  0.0066  0.1102 -0.1007
   89SAPS   C11 8554   4.856   2.799  10.818 -0.1272 -0.4360 -0.2675
   89SAPS  H11A 8555   4.960   2.838  10.810 -0.7866  0.6782 -3.8477
   89SAPS  H11B 8556   4.790   2.873  10.867  2.0277 -0.0997  2.2495
   89SAPS     P 8557   4.667   2.809  10.635 -0.0579  0.1192 -0.1024
   89SAPS   O13 8558   4.657   2.788  10.486 -0.5919  0.4170 -0.4030
   89SAPS   O14 8559   4.575   2.737  10.725 -0.4834  0.5915 -0.9249
   89SAPS   O12 8560   4.815   2.782  10.681  0.4310  0.2769  0.5552
   89SAPS   O11 8561   4.650   2.958  10.675 -0.7142  0.7112 -0.1477
   89SAPS    C1 8562   4.633   3.063  10.577 -0.3922  0.1831  0.1998
   89SAPS    HA 8563   4.570   3.036  10.489 -1.8207 -0.4187  1.3772
   89SAPS    HB 8564   4.585   3.145  10.634  1.6034  0.6649  1.2011
   89SAPS    C2 8565   4.766   3.132  10.526  1.0300 -0.1563  0.7150
   89SAPS    HS 8566   4.748   3.239  10.504 -2.9584 -0.3883  2.5336
   89SAPS   O21 8567   4.813   3.059  10.409  0.0057 -0.4379 -0.7572
   89SAPS   C21 8568   4.742   3.075  10.299  0.3797 -0.1052  0.5585
   89SAPS   O22 8569   4.663   3.164  10.278 -0.5871 -0.0016 -0.2134
   89SAPS   C22 8570   4.783   2.977  10.192  0.3509  0.3281  0.4135
   89SAPS   H2R 8571   4.893   2.988  10.188  0.3601  1.0373  2.2125
   89SAPS   H2S 8572   4.742   2.877  10.220  1.4417 -0.6725 -1.4316
   89SAPS    C3 8573   4.880   3.129  10.635 -0.2185  0.1512 -0.2984
   89SAPS    HX 8574   4.904   3.024  10.664  1.2178  0.3374 -0.7714
   89SAPS    HY 8575   4.840   3.182  10.724  0.5519  1.6632 -0.8479
   89SAPS   O31 8576   4.998   3.198  10.593  0.2235  0.2065 -0.1869
   89SAPS   C31 8577   4.993   3.335  10.583 -0.7195 -0.1231  1.1106
   89SAPS   O32 8578   4.893   3.401  10.596 -0.4405 -0.0649 -0.2458
   89SAPS   C32 8579   5.121   3.387  10.519  0.0678  0.0924 -0.3456
   89SAPS   H2X 8580   5.190   3.302  10.537  0.5502  0.6549  0.4458
   89SAPS   H2Y 8581   5.153   3.482  10.564  1.2451 -1.0374  1.2291
   89SAPS   C23 8582   4.721   3.017  10.053  0.1423  0.6401  0.2700
   89SAPS   H3R 8583   4.727   3.125  10.027 -1.4006  0.6232 -0.2071
   89SAPS   H3S 8584   4.611   3.013  10.069 -0.2994  2.6894 -1.8708
   89SAPS   C24 8585   4.779   2.945   9.933  0.0469  0.2102 -0.5297
   89SAPS   H4R 8586   4.889   2.962   9.936  0.1249 -0.2822 -0.5439
   89SAPS   H4S 8587   4.748   2.992   9.837 -1.9281  0.7890  0.3745
   89SAPS   C25 8588   4.766   2.790   9.930 -0.1433 -0.5194 -0.2218
   89SAPS   H5R 8589   4.682   2.751   9.989 -0.7176  0.0677 -0.6383
   89SAPS   C26 8590   4.828   2.702   9.851 -0.8626 -0.0210 -0.3374
   89SAPS   H6R 8591   4.806   2.595   9.862  1.0584 -0.0907  3.2758
   89SAPS   C27 8592   4.936   2.723   9.747 -0.5265 -0.4856 -0.5497
   89SAPS   H7R 8593   4.962   2.829   9.727  0.0741  0.0624  2.7993
   89SAPS   H7S 8594   4.891   2.693   9.650 -0.1665  0.4396 -1.0060
   89SAPS   C28 8595   5.060   2.640   9.765 -0.6067  0.1812  0.3808
   89SAPS   H8R 8596   5.116   2.668   9.855  1.6743  1.3405 -1.3735
   89SAPS   C29 8597   5.105   2.537   9.693 -0.0741  0.1076  0.0238
   89SAPS   H9R 8598   5.204   2.492   9.709  1.0512  2.1428 -0.8605
   89SAPS  C210 8599   5.056   2.489   9.560  0.0733  0.1481  0.2338
   89SAPS  H10R 8600   4.947   2.506   9.553  0.3715  1.9259 -0.3756
   89SAPS  H10S 8601   5.070   2.380   9.546 -0.6601  0.2561 -1.4733
   89SAPS  C211 8602   5.118   2.567   9.438  0.0462 -0.1128 -0.8567
   89SAPS  H11R 8603   5.175   2.656   9.469  0.2361 -0.3249 -0.5928
   89SAPS  C212 8604   5.111   2.539   9.303 -0.5667 -0.2394 -0.0426
   89SAPS  H12R 8605   5.166   2.600   9.230 -0.1387  0.4683  0.8651
   89SAPS  C213 8606   5.043   2.420   9.243  0.0876  0.3490  0.2899
   89SAPS  H13R 8607   5.010   2.347   9.320 -4.8584  1.1433 -0.9020
   89SAPS  H13S 8608   5.105   2.372   9.164  1.3443  3.2247 -0.5073
   89SAPS  C214 8609   4.922   2.480   9.172  0.0494  0.1778  0.3729
   89SAPS  H14R 8610   4.851   2.529   9.241  0.3670  0.7824  0.2696
   89SAPS  C215 8611   4.880   2.463   9.046 -1.0484 -0.3354 -0.1677
   89SAPS  H15R 8612   4.800   2.529   9.010  0.6973 -0.0249 -3.6190
   89SAPS  C216 8613   4.959   2.387   8.943  0.3030  0.1175  0.2645
   89SAPS  H16R 8614   4.901   2.294   8.924  1.1032  0.1107 -2.3962
   89SAPS  H16S 8615   5.060   2.363   8.981  0.4071 -2.8167 -1.7037
   89SAPS  C217 8616   4.973   2.454   8.803  0.0567  0.3191  0.3787
   89SAPS  H17R 8617   5.024   2.552   8.817  0.2485  0.4748 -1.2523
   89SAPS  H17S 8618   4.873   2.478   8.761  0.2805  1.1199  0.2902
   89SAPS  C218 8619   5.053   2.381   8.695 -0.2145 -0.1167 -0.5404
   89SAPS  H18R 8620   5.030   2.273   8.706  0.4065 -0.0196  1.9738
   89SAPS  H18S 8621   5.155   2.389   8.738 -0.9821 -1.5825  1.6092
   89SAPS  C219 8622   5.040   2.444   8.554 -0.2651  0.2449 -0.4248
   89SAPS  H19R 8623   4.934   2.459   8.528 -0.8423 -2.0377  0.4258
   89SAPS  H19S 8624   5.082   2.371   8.481 -1.7419 -0.9401 -0.1129
   89SAPS  C220 8625   5.119   2.579   8.540 -0.2449  0.0657  0.4215
   89SAPS  H20R 8626   5.229   2.565   8.543  0.1289  2.7907 -0.0541
   89SAPS  H20S 8627   5.089   2.660   8.610 -0.2784 -0.5275  1.1054
   89SAPS  H20T 8628   5.102   2.610   8.435 -0.6025  0.5537  0.6217
   89SAPS   C33 8629   5.109   3.417  10.371 -0.5440 -0.9127  0.4012
   89SAPS   H3X 8630   5.197   3.476  10.338 -1.2778 -1.4886 -2.7495
   89SAPS   H3Y 8631   5.023   3.484  10.352  0.4551 -0.4105 -2.7083
   89SAPS   C34 8632   5.094   3.297  10.270 -0.5609  0.4098  0.0578
   89SAPS   H4X 8633   4.992   3.252  10.277  0.1955 -1.1588  1.2994
   89SAPS   H4Y 8634   5.175   3.223  10.286  0.3074  0.5813 -3.1174
   89SAPS   C35 8635   5.105   3.345  10.122  0.0464  0.9981  0.0392
   89SAPS   H5X 8636   5.194   3.408  10.099  0.0034  0.2479 -2.2261
   89SAPS   H5Y 8637   5.026   3.422  10.111 -0.5916  0.5283  1.1970
   89SAPS   C36 8638   5.079   3.255   9.997 -0.3084 -0.1427 -0.1271
   89SAPS   H6X 8639   4.978   3.217  10.022 -0.4845  1.4305  1.7480
   89SAPS   H6Y 8640   5.144   3.166  10.011  1.4284  1.1707  0.5290
   89SAPS   C37 8641   5.073   3.325   9.856  0.1359 -0.0583 -0.3231
   89SAPS   H7X 8642   5.174   3.359   9.825  0.3708  2.3255  2.7623
   89SAPS   H7Y 8643   5.001   3.409   9.871  0.7563  0.4933 -0.4323
   89SAPS   C38 8644   5.027   3.235   9.735  0.2072 -0.4240  0.8454
   89SAPS   H8X 8645   4.923   3.204   9.761 -0.1688  0.3895  0.3384
   89SAPS   H8Y 8646   5.090   3.143   9.729 -3.2529 -2.8065 -0.8201
   89SAPS   C39 8647   5.029   3.318   9.595 -0.3116  0.3468 -0.6205
   89SAPS   H9X 8648   5.135   3.312   9.564  0.6755  0.5633  2.5271
   89SAPS   H9Y 8649   4.986   3.420   9.613 -0.9266  0.3072 -1.8380
   89SAPS  C310 8650   4.956   3.250   9.486  0.2200 -1.1862  0.2867
   89SAPS  H10X 8651   4.860   3.231   9.538  0.7805 -1.2810  1.3251
   89SAPS  H10Y 8652   5.007   3.154   9.465  0.0183 -0.8367 -1.9219
   89SAPS  C311 8653   4.932   3.322   9.356 -0.4518  0.1324  0.2727
   89SAPS  H11X 8654   4.897   3.421   9.392 -0.3991 -0.0347  0.7949
   89SAPS  H11Y 8655   4.871   3.267   9.281  3.0460 -3.2825 -0.2801
   89SAPS  C312 8656   5.058   3.365   9.279 -0.4575  0.0580 -0.6015
   89SAPS  H12X 8657   5.119   3.428   9.347  1.4745  0.6173 -2.8306
   89SAPS  H12Y 8658   5.028   3.425   9.190  2.3633  0.3802 -1.3653
   89SAPS  C313 8659   5.147   3.253   9.233 -0.2221  0.7786  0.1992
   89SAPS  H13X 8660   5.120   3.168   9.299  2.7917 -0.8300 -0.5474
   89SAPS  H13Y 8661   5.255   3.278   9.236  0.0871 -0.6822  1.9363
   89SAPS  C314 8662   5.102   3.202   9.099  0.4121  0.3269  0.3285
   89SAPS  H14X 8663   4.992   3.191   9.088  0.5637  0.6485 -1.7672
   89SAPS  H14Y 8664   5.143   3.100   9.083  1.2229  0.8618 -1.2109
   89SAPS  C315 8665   5.153   3.296   8.983  0.2848  0.2712 -0.2544
   89SAPS  H15X 8666   5.264   3.303   8.981  0.4145 -0.9394  1.6217
   89SAPS  H15Y 8667   5.121   3.399   9.007  0.0640  0.1648 -0.0880
   89SAPS  C316 8668   5.103   3.255   8.840  0.0897  0.5370 -0.5717
   89SAPS  H16X 8669   4.996   3.227   8.853 -0.2610  2.7081  1.7622
   89SAPS  H16Y 8670   5.175   3.187   8.790 -1.7179 -1.5155 -0.4859
   89SAPS  C317 8671   5.087   3.378   8.752  0.5918 -0.3684 -0.1334
   89SAPS  H17X 8672   5.187   3.415   8.722  0.8037 -0.9700 -0.1812
   89SAPS  H17Y 8673   5.043   3.466   8.803  0.2902 -0.1952 -0.6830
   89SAPS  C318 8674   4.996   3.346   8.626  0.1051 -0.1833 -0.4806
   89SAPS  H18X 8675   4.912   3.288   8.670  0.7119 -0.0615  0.8937
   89SAPS  H18Y 8676   5.045   3.276   8.555 -1.5440 -2.2805  0.3859
   89SAPS  H18Z 8677   4.967   3.444   8.582  1.2295 -0.3415 -1.6001
   90SAPS     N 8678   6.768   3.102  10.627 -0.2896 -0.2023  0.1713
   90SAPS   HN1 8679   6.861   3.149  10.627 -0.8567  0.9464 -0.9739
   90SAPS   HN2 8680   6.734   3.081  10.531  1.0418 -2.1953  0.1065
   90SAPS   HN3 8681   6.705   3.168  10.677 -0.5978 -1.9120  2.1135
   90SAPS   C12 8682   6.774   2.977  10.701  0.5903  0.6457 -0.8209
   90SAPS  H12A 8683   6.868   2.927  10.684 -0.0549 -0.6774 -0.6369
   90SAPS   C13 8684   6.761   2.995  10.857  1.1429  0.0587  0.4621
   90SAPS  O13A 8685   6.763   3.112  10.903  0.2799  0.5569 -0.1052
   90SAPS  O13B 8686   6.717   2.899  10.925  0.6971  0.4381 -0.1077
   90SAPS   C11 8687   6.649   2.885  10.655 -0.1772 -0.1347 -0.0224
   90SAPS  H11A 8688   6.646   2.787  10.707 -1.4217  0.0040  0.1846
   90SAPS  H11B 8689   6.661   2.870  10.545  1.6584  0.1285  0.1277
   90SAPS     P 8690   6.388   2.901  10.607  0.2413  0.0447  0.4199
   90SAPS   O13 8691   6.380   2.755  10.638 -0.3745 -0.1132 -0.5225
   90SAPS   O14 8692   6.275   2.976  10.667 -0.3709  0.4282  0.1737
   90SAPS   O12 8693   6.522   2.961  10.660  0.0389 -0.1526 -0.4880
   90SAPS   O11 8694   6.410   2.935  10.455 -0.2109  0.7913  0.0991
   90SAPS    C1 8695   6.299   2.939  10.368  0.7442  0.2817 -0.3330
   90SAPS    HA 8696   6.216   2.995  10.418  0.6188 -0.2036  0.0076
   90SAPS    HB 8697   6.323   3.004  10.281  0.1482 -1.4426 -1.8046
   90SAPS    C2 8698   6.267   2.800  10.309  0.9898  0.3184 -0.3744
   90SAPS    HS 8699   6.250   2.731  10.395  3.4687  0.4299  0.2450
   90SAPS   O21 8700   6.378   2.752  10.229  0.4150  0.0805  0.5343
   90SAPS   C21 8701   6.450   2.643  10.268  0.1982 -0.0653  1.1799
   90SAPS   O22 8702   6.442   2.592  10.377  0.3779 -0.0671 -0.4622
   90SAPS   C22 8703   6.536   2.593  10.153 -0.3963  0.5065  0.5534
   90SAPS   H2R 8704   6.475   2.587  10.060 -0.8287  1.4953  0.7612
   90SAPS   H2S 8705   6.632   2.648  10.141  0.3698 -0.9734 -0.2807
   90SAPS    C3 8706   6.140   2.802  10.218  0.2968  0.3051 -0.2648
   90SAPS    HX 8707   6.070   2.876  10.262 -2.7040 -1.6216 -1.6664
   90SAPS    HY 8708   6.096   2.700  10.222  0.8039  0.1010  0.2326
   90SAPS   O31 8709   6.170   2.839  10.082  0.0961  0.1627  0.1692
   90SAPS   C31 8710   6.093   2.788   9.988  0.3295  0.4476  0.1547
   90SAPS   O32 8711   5.985   2.732  10.016  0.0929 -0.5019 -0.5978
   90SAPS   C32 8712   6.158   2.805   9.854  0.4238  0.2944  0.2501
   90SAPS   H2X 8713   6.264   2.773   9.855  0.7245  1.2708 -0.3349
   90SAPS   H2Y 8714   6.142   2.910   9.820 -0.6010 -0.5099 -1.8181
   90SAPS   C23 8715   6.593   2.449  10.178 -0.1982  0.3148  0.1493
   90SAPS   H3R 8716   6.513   2.384  10.221  1.5142 -1.3149  0.9309
   90SAPS   H3S 8717   6.676   2.461  10.250  2.0239 -0.7289 -2.1822
   90SAPS   C24 8718   6.638   2.377  10.049 -0.1674 -0.2078 -0.6547
   90SAPS   H4R 8719   6.546   2.347   9.994 -0.8178  0.6635 -0.0382
   90SAPS   H4S 8720   6.693   2.283  10.070 -1.8197 -0.8234  1.1042
   90SAPS   C25 8721   6.719   2.465   9.963 -0.1423  0.0136  0.1495
   90SAPS   H5R 8722   6.815   2.498  10.004 -0.1955  0.6106 -0.2012
   90SAPS   C26 8723   6.693   2.504   9.839 -0.1723 -0.3131  0.5471
   90SAPS   H6R 8724   6.764   2.572   9.789 -1.7435  2.2935  1.7455
   90SAPS   C27 8725   6.563   2.461   9.762 -0.2301 -0.1974 -0.4539
   90SAPS   H7R 8726   6.479   2.466   9.835  1.5139 -1.9867  1.7409
   90SAPS   H7S 8727   6.574   2.354   9.736  2.8659 -0.2013  0.6427
   90SAPS   C28 8728   6.551   2.538   9.640  0.0232  0.5102 -0.0054
   90SAPS   H8R 8729   6.488   2.628   9.646 -0.9849 -0.1349 -0.7647
   90SAPS   C29 8730   6.599   2.508   9.519  0.0758  0.8174  0.8160
   90SAPS   H9R 8731   6.576   2.575   9.436  0.6630 -0.6566 -0.5544
   90SAPS  C210 8732   6.679   2.392   9.463 -0.4846 -0.5460  0.4004
   90SAPS  H10R 8733   6.737   2.324   9.528 -1.2594  1.4831  3.2826
   90SAPS  H10S 8734   6.768   2.437   9.413 -0.3925 -0.1473  0.9194
   90SAPS  C211 8735   6.604   2.304   9.367 -0.6973  0.5792 -0.2369
   90SAPS  H11R 8736   6.529   2.238   9.414  0.6782 -1.3588 -0.6968
   90SAPS  C212 8737   6.632   2.294   9.235  0.2221 -0.3569  0.1484
   90SAPS  H12R 8738   6.570   2.227   9.173  2.2285 -1.9973 -0.1534
   90SAPS  C213 8739   6.739   2.359   9.158  0.0097 -1.2505 -0.0464
   90SAPS  H13R 8740   6.741   2.465   9.191 -2.2376 -0.8853 -0.9745
   90SAPS  H13S 8741   6.718   2.355   9.049 -0.7812 -3.0372  0.1549
   90SAPS  C214 8742   6.863   2.280   9.187  0.0165  0.1396  0.9963
   90SAPS  H14R 8743   6.873   2.266   9.295  1.0381  0.9546  1.0092
   90SAPS  C215 8744   6.958   2.240   9.098  0.3760 -0.0163  0.0874
   90SAPS  H15R 8745   7.046   2.187   9.139  0.0591 -1.0041 -0.4821
   90SAPS  C216 8746   6.961   2.261   8.947  0.2241  0.6905  0.0253
   90SAPS  H16R 8747   6.855   2.273   8.917  0.6603  0.2014 -1.7722
   90SAPS  H16S 8748   6.992   2.167   8.896 -0.6465  1.5152 -2.0640
   90SAPS  C217 8749   7.060   2.372   8.900  0.0328  0.3606  0.2870
   90SAPS  H17R 8750   7.047   2.368   8.790  0.0585 -1.1267  0.3286
   90SAPS  H17S 8751   7.165   2.344   8.924 -0.1885  0.8129  1.8250
   90SAPS  C218 8752   7.022   2.506   8.961  0.3440  0.6058 -0.7351
   90SAPS  H18R 8753   7.038   2.516   9.070 -1.2054 -1.2543 -0.3045
   90SAPS  H18S 8754   6.917   2.530   8.936  0.0041  0.1755  0.2652
   90SAPS  C219 8755   7.102   2.625   8.911  0.4507 -0.6428 -0.0847
   90SAPS  H19R 8756   7.203   2.623   8.957 -0.1423  0.4668  1.3015
   90SAPS  H19S 8757   7.049   2.714   8.952  1.5410 -0.1554  0.3004
   90SAPS  C220 8758   7.127   2.638   8.759  0.2075  0.5368 -0.3265
   90SAPS  H20R 8759   7.162   2.739   8.726 -0.8522  0.3768 -1.9911
   90SAPS  H20S 8760   7.025   2.632   8.715  0.3601  1.1262 -0.7816
   90SAPS  H20T 8761   7.204   2.565   8.727  0.1368  0.2943  0.0588
   90SAPS   C33 8762   6.100   2.708   9.750 -0.1593 -0.2711 -0.2434
   90SAPS   H3X 8763   5.989   2.711   9.753 -0.1364  0.0613  0.3926
   90SAPS   H3Y 8764   6.130   2.607   9.785 -0.1499  0.1270  0.9229
   90SAPS   C34 8765   6.150   2.738   9.607  0.5920 -0.5016  0.1361
   90SAPS   H4X 8766   6.260   2.731   9.599  0.3640 -1.8536 -2.4142
   90SAPS   H4Y 8767   6.108   2.834   9.570  1.3081  0.6275  2.1571
   90SAPS   C35 8768   6.111   2.631   9.506 -0.2924 -1.1632 -0.6923
   90SAPS   H5X 8769   6.006   2.633   9.471 -0.4755  0.3213 -0.0868
   90SAPS   H5Y 8770   6.122   2.535   9.561  0.8819 -0.8946 -0.4349
   90SAPS   C36 8771   6.207   2.632   9.389  0.3931 -0.5579  0.0977
   90SAPS   H6X 8772   6.308   2.617   9.432 -0.2274 -1.3461  1.2859
   90SAPS   H6Y 8773   6.211   2.726   9.329  2.2290 -0.6941 -0.0389
   90SAPS   C37 8774   6.172   2.525   9.284  0.2525 -0.2258 -0.7065
   90SAPS   H7X 8775   6.260   2.508   9.219  1.3032 -1.4009  0.9691
   90SAPS   H7Y 8776   6.081   2.559   9.230  0.1663 -0.3973 -0.6716
   90SAPS   C38 8777   6.143   2.385   9.346  0.5857 -0.2473  0.0016
   90SAPS   H8X 8778   6.042   2.377   9.390  1.3729 -2.6150  1.4855
   90SAPS   H8Y 8779   6.220   2.386   9.425  1.0188  2.5963 -0.4175
   90SAPS   C39 8780   6.149   2.270   9.247 -0.3442 -0.0916  0.1482
   90SAPS   H9X 8781   6.062   2.280   9.180  0.2746 -1.3912 -0.8714
   90SAPS   H9Y 8782   6.118   2.182   9.308  1.5467 -1.4848 -0.8678
   90SAPS  C310 8783   6.276   2.248   9.166 -1.1237 -0.2243 -0.5077
   90SAPS  H10X 8784   6.362   2.248   9.237 -0.8817 -1.2547 -0.7929
   90SAPS  H10Y 8785   6.290   2.327   9.089  2.2208 -0.8192 -0.5820
   90SAPS  C311 8786   6.252   2.121   9.084 -0.2117 -0.2210 -0.8227
   90SAPS  H11X 8787   6.168   2.137   9.013  0.2076  1.4571 -0.9476
   90SAPS  H11Y 8788   6.229   2.032   9.148  0.7843 -2.8710 -4.0087
   90SAPS  C312 8789   6.384   2.083   9.005  0.1008 -0.0514  0.1123
   90SAPS  H12X 8790   6.468   2.067   9.075  0.9521 -0.6672 -1.0352
   90SAPS  H12Y 8791   6.418   2.161   8.934 -1.1891 -0.3055 -0.8204
   90SAPS  C313 8792   6.373   1.961   8.908 -0.1557 -0.0944  0.1767
   90SAPS  H13X 8793   6.288   1.967   8.835 -0.8354 -1.7487  0.8027
   90SAPS  H13Y 8794   6.357   1.877   8.978  1.0348  0.0465  0.6226
   90SAPS  C314 8795   6.502   1.924   8.841 -0.0543 -0.2152 -0.1740
   90SAPS  H14X 8796   6.493   1.840   8.769  1.1015 -0.3902 -0.1210
   90SAPS  H14Y 8797   6.575   1.892   8.918 -0.8255  1.5091  1.3023
   90SAPS  C315 8798   6.582   2.026   8.768  0.3299 -0.6978  0.0374
   90SAPS  H15X 8799   6.594   2.123   8.821 -0.9319 -0.5768  0.1052
   90SAPS  H15Y 8800   6.530   2.055   8.675 -1.7082 -1.8686  0.7856
   90SAPS  C316 8801   6.720   1.981   8.738 -0.2381 -0.4894  0.1434
   90SAPS  H16X 8802   6.709   1.891   8.674  0.7233  0.2996 -1.1610
   90SAPS  H16Y 8803   6.766   1.952   8.835 -1.3695 -1.2537  0.4624
   90SAPS  C317 8804   6.810   2.076   8.660  0.4057 -0.2030 -0.4578
   90SAPS  H17X 8805   6.829   2.166   8.723 -1.2013 -0.2073  0.0564
   90SAPS  H17Y 8806   6.749   2.106   8.572  1.1054  1.3892 -0.4170
   90SAPS  C318 8807   6.941   2.029   8.612  0.2008 -0.3987  0.0156
   90SAPS  H18X 8808   7.006   1.989   8.693 -1.1323 -1.3166  0.6431
   90SAPS  H18Y 8809   7.002   2.108   8.562 -1.1873  0.9022  0.3523
   90SAPS  H18Z 8810   6.935   1.947   8.537  0.9257 -0.2803 -0.1734
   91SAPS     N 8811   4.445   0.017   5.901 -0.1157  0.3078 -0.0238
   91SAPS   HN1 8812   4.372   0.030   5.974 -2.2374  0.3397 -2.0877
   91SAPS   HN2 8813   4.398  -0.034   5.823 -0.4112  1.8230 -0.8600
   91SAPS   HN3 8814   4.522  -0.039   5.944 -0.3986  0.2682  0.4338
   91SAPS   C12 8815   4.497   0.139   5.846  0.0657 -0.4920  0.1131
   91SAPS  H12A 8816   4.566   0.131   5.764  0.6393  1.2748  0.4109
   91SAPS   C13 8817   4.388   0.230   5.787 -0.2878  0.2504  0.6525
   91SAPS  O13A 8818   4.269   0.215   5.831  0.0857 -0.0635  0.1306
   91SAPS  O13B 8819   4.430   0.341   5.744 -0.2143 -0.1113  0.4783
   91SAPS   C11 8820   4.579   0.219   5.962 -0.2905 -0.7850 -0.4582
   91SAPS  H11A 8821   4.513   0.238   6.049  0.4840 -0.1798 -0.0028
   91SAPS  H11B 8822   4.624   0.312   5.922 -0.1782 -0.3227  0.7110
   91SAPS     P 8823   4.817   0.140   6.065 -0.0865 -0.3009 -0.0968
   91SAPS   O13 8824   4.845   0.026   6.147 -0.2838  0.8767  0.1709
   91SAPS   O14 8825   4.909   0.172   5.954 -0.0376 -0.3649  0.2858
   91SAPS   O12 8826   4.674   0.124   6.008  0.2526 -0.3067 -0.7004
   91SAPS   O11 8827   4.808   0.259   6.164 -0.4884  0.4605 -0.1950
   91SAPS    C1 8828   4.847   0.392   6.118  0.1842  1.0725  0.0248
   91SAPS    HA 8829   4.957   0.407   6.110 -0.1268  3.5130 -0.0409
   91SAPS    HB 8830   4.804   0.416   6.019 -2.0116  1.2829  1.0118
   91SAPS    C2 8831   4.794   0.504   6.218 -0.2078 -0.3110 -0.0310
   91SAPS    HS 8832   4.851   0.596   6.193 -0.5227  0.0025  0.3950
   91SAPS   O21 8833   4.815   0.455   6.357  0.0637 -0.2608 -0.5118
   91SAPS   C21 8834   4.929   0.467   6.406  0.0646  0.1866 -0.4317
   91SAPS   O22 8835   5.018   0.536   6.358 -0.7075  0.4551  0.3126
   91SAPS   C22 8836   4.920   0.404   6.542 -0.0344 -0.3571 -1.0242
   91SAPS   H2R 8837   4.816   0.418   6.576 -0.4335  0.7588 -2.6553
   91SAPS   H2S 8838   4.936   0.295   6.529  1.0822 -0.1430 -1.5451
   91SAPS    C3 8839   4.644   0.528   6.194 -0.1197  0.5457 -0.3367
   91SAPS    HX 8840   4.584   0.435   6.185  0.9407 -0.1403 -0.3688
   91SAPS    HY 8841   4.633   0.572   6.093 -2.9556 -0.3735 -0.4797
   91SAPS   O31 8842   4.590   0.620   6.295 -0.0915  0.1398  0.0828
   91SAPS   C31 8843   4.495   0.574   6.377 -0.2745  0.0640 -0.5604
   91SAPS   O32 8844   4.460   0.458   6.380 -0.3023  0.2823  0.1781
   91SAPS   C32 8845   4.441   0.690   6.461  0.2416 -0.1045 -0.4084
   91SAPS   H2X 8846   4.331   0.695   6.456  0.2979  0.9598 -0.5540
   91SAPS   H2Y 8847   4.483   0.784   6.421 -0.9105  0.5728 -0.0358
   91SAPS   C23 8848   5.035   0.453   6.637 -0.3382 -0.1758  0.0621
   91SAPS   H3R 8849   5.004   0.548   6.686 -1.4133  0.0565 -1.0348
   91SAPS   H3S 8850   5.130   0.464   6.581 -0.0797 -0.1478  0.5100
   91SAPS   C24 8851   5.053   0.363   6.759 -1.0577  0.0408  0.1599
   91SAPS   H4R 8852   5.131   0.416   6.818 -0.7682  1.2925 -1.3308
   91SAPS   H4S 8853   5.085   0.261   6.729 -1.0775  0.3668 -0.9727
   91SAPS   C25 8854   4.933   0.352   6.849  0.0492  0.4025 -0.0587
   91SAPS   H5R 8855   4.861   0.273   6.821  0.1777  0.5438 -0.7887
   91SAPS   C26 8856   4.900   0.435   6.952 -0.5179 -0.6025 -0.0094
   91SAPS   H6R 8857   4.806   0.408   7.002  0.0694 -1.6969  0.5211
   91SAPS   C27 8858   4.983   0.546   7.009  0.3501 -0.8867 -0.3389
   91SAPS   H7R 8859   4.923   0.629   7.053 -1.3926 -2.9555  1.2750
   91SAPS   H7S 8860   5.040   0.590   6.925 -0.2807  1.7889  0.5637
   91SAPS   C28 8861   5.070   0.505   7.126 -0.2801  0.1770 -0.0323
   91SAPS   H8R 8862   5.160   0.445   7.109 -1.1662 -1.4342  0.7685
   91SAPS   C29 8863   5.028   0.494   7.252  0.1864  0.0167  0.4528
   91SAPS   H9R 8864   5.104   0.465   7.325  0.8271 -0.2680 -0.3232
   91SAPS  C210 8865   4.900   0.547   7.308  0.0663 -0.1347  0.1843
   91SAPS  H10R 8866   4.838   0.471   7.360  1.3507  0.1369  2.1840
   91SAPS  H10S 8867   4.829   0.592   7.236  1.0322 -0.4763 -1.0010
   91SAPS  C211 8868   4.941   0.662   7.396 -0.2169 -0.3782 -0.1558
   91SAPS  H11R 8869   4.910   0.762   7.362 -1.2391 -0.2665  1.0655
   91SAPS  C212 8870   4.970   0.656   7.528 -0.6927  0.7925  0.6530
   91SAPS  H12R 8871   5.017   0.744   7.573 -1.2853  1.6381 -0.3457
   91SAPS  C213 8872   4.967   0.527   7.611  0.7144  0.2789  0.2638
   91SAPS  H13R 8873   4.938   0.433   7.558 -0.0694  0.7935 -0.2300
   91SAPS  H13S 8874   4.887   0.534   7.687  0.5161 -2.8374  0.4391
   91SAPS  C214 8875   5.086   0.488   7.683 -0.1033  1.0461 -0.1063
   91SAPS  H14R 8876   5.174   0.515   7.623  0.0733 -0.9502 -0.7662
   91SAPS  C215 8877   5.097   0.419   7.794  0.2819 -0.3468 -0.0317
   91SAPS  H15R 8878   5.197   0.392   7.830  0.8449  0.5404 -0.9066
   91SAPS  C216 8879   4.984   0.366   7.879 -0.5026 -0.1358  0.5068
   91SAPS  H16R 8880   5.012   0.260   7.895  2.4573  0.2239 -1.8410
   91SAPS  H16S 8881   4.888   0.367   7.823 -0.5479  2.5599  0.5371
   91SAPS  C217 8882   4.972   0.426   8.019  0.0764  0.0679  0.5450
   91SAPS  H17R 8883   4.885   0.373   8.062 -0.5123 -1.4074 -2.3648
   91SAPS  H17S 8884   4.960   0.536   8.008  4.2221  0.3907 -1.8285
   91SAPS  C218 8885   5.086   0.390   8.118  0.4256 -0.2031  0.0545
   91SAPS  H18R 8886   5.055   0.424   8.219  1.6698  1.7229 -0.1775
   91SAPS  H18S 8887   5.175   0.452   8.093 -0.5028  1.6902  1.3791
   91SAPS  C219 8888   5.116   0.239   8.143  1.0090  0.0153 -0.2321
   91SAPS  H19R 8889   5.167   0.199   8.053 -0.4031 -2.8506  0.2159
   91SAPS  H19S 8890   5.024   0.184   8.170  1.8946 -1.3066  0.1654
   91SAPS  C220 8891   5.211   0.230   8.261 -0.5213 -0.5888  0.2649
   91SAPS  H20R 8892   5.218   0.128   8.302 -0.8502  0.5766  3.3392
   91SAPS  H20S 8893   5.179   0.291   8.348 -0.5459 -1.3337  0.7705
   91SAPS  H20T 8894   5.313   0.262   8.231 -0.2129 -1.7398  0.0639
   91SAPS   C33 8895   4.490   0.674   6.610  0.6030  1.0603  0.9599
   91SAPS   H3X 8896   4.445   0.581   6.649 -2.8191  1.8171 -1.0128
   91SAPS   H3Y 8897   4.429   0.744   6.670  2.2982  0.1494  3.8777
   91SAPS   C34 8898   4.634   0.692   6.643  0.1711  1.1140  0.1313
   91SAPS   H4X 8899   4.664   0.796   6.622 -0.0438  1.6055  2.1240
   91SAPS   H4Y 8900   4.708   0.632   6.586  0.2154  2.5460 -1.3253
   91SAPS   C35 8901   4.667   0.667   6.794  0.4105 -0.3707 -0.7745
   91SAPS   H5X 8902   4.771   0.692   6.823  0.1112  0.0656 -0.0627
   91SAPS   H5Y 8903   4.656   0.557   6.799 -0.6278 -0.3415 -2.0596
   91SAPS   C36 8904   4.569   0.724   6.897  0.5550  0.1680 -0.4553
   91SAPS   H6X 8905   4.474   0.668   6.881  0.7126  0.2251 -1.6294
   91SAPS   H6Y 8906   4.554   0.829   6.865 -0.5499  0.4003  0.7969
   91SAPS   C37 8907   4.608   0.713   7.046  0.6476 -0.2494 -0.3287
   91SAPS   H7X 8908   4.708   0.759   7.054  1.0945 -1.2795  0.0560
   91SAPS   H7Y 8909   4.614   0.604   7.067  3.1809 -0.0404  0.1000
   91SAPS   C38 8910   4.517   0.791   7.137  0.2903 -0.1376  0.4803
   91SAPS   H8X 8911   4.412   0.757   7.128 -0.3650  1.5570  1.4861
   91SAPS   H8Y 8912   4.516   0.898   7.107 -0.9643 -0.0859  0.6754
   91SAPS   C39 8913   4.566   0.783   7.288 -0.4423  0.0334  0.9004
   91SAPS   H9X 8914   4.677   0.781   7.287 -0.4214 -0.2339 -2.7131
   91SAPS   H9Y 8915   4.551   0.681   7.329  2.8663 -0.9481 -0.1812
   91SAPS  C310 8916   4.531   0.899   7.378 -0.4029 -0.3008 -0.4192
   91SAPS  H10X 8917   4.421   0.890   7.391 -0.4150 -0.4800 -0.6329
   91SAPS  H10Y 8918   4.559   0.996   7.333  1.9942  0.1534  1.8947
   91SAPS  C311 8919   4.612   0.893   7.511 -0.0195 -0.9335 -0.0991
   91SAPS  H11X 8920   4.592   0.988   7.565 -0.7954 -0.8096 -0.6038
   91SAPS  H11Y 8921   4.717   0.875   7.480  0.3789 -2.9768  2.2624
   91SAPS  C312 8922   4.577   0.773   7.599  0.2767  0.2100 -0.0091
   91SAPS  H12X 8923   4.595   0.673   7.553 -2.3956 -2.1049  3.6220
   91SAPS  H12Y 8924   4.469   0.771   7.627 -0.1059 -0.5325 -1.4900
   91SAPS  C313 8925   4.659   0.793   7.728  0.4229  0.9835 -0.6295
   91SAPS  H13X 8926   4.636   0.884   7.787  0.3910  0.8793 -0.4805
   91SAPS  H13Y 8927   4.764   0.801   7.692  1.4913 -0.4779  1.9727
   91SAPS  C314 8928   4.646   0.675   7.821  0.2756  0.3039  0.6015
   91SAPS  H14X 8929   4.669   0.584   7.760 -1.4149 -0.5972  1.2581
   91SAPS  H14Y 8930   4.538   0.664   7.843  0.3571 -2.6650 -0.2578
   91SAPS  C315 8931   4.722   0.691   7.951  0.3155 -0.1710 -0.0892
   91SAPS  H15X 8932   4.827   0.708   7.918  0.1501  0.0564 -0.5117
   91SAPS  H15Y 8933   4.703   0.600   8.011 -0.3093 -0.0990 -0.1684
   91SAPS  C316 8934   4.695   0.809   8.036  0.0849  0.2006 -0.9728
   91SAPS  H16X 8935   4.586   0.817   8.055  0.3678  2.0571 -0.0059
   91SAPS  H16Y 8936   4.730   0.892   7.970  2.0721 -1.5711 -2.2111
   91SAPS  C317 8937   4.773   0.799   8.170 -0.7167  0.8496 -0.2411
   91SAPS  H17X 8938   4.880   0.780   8.146 -0.7411 -0.3844  0.6087
   91SAPS  H17Y 8939   4.726   0.713   8.223 -3.5334  1.1429 -2.1134
   91SAPS  C318 8940   4.777   0.917   8.259 -0.1755  0.1828 -0.4650
   91SAPS  H18X 8941   4.676   0.954   8.289  0.6087  0.1347  2.3961
   91SAPS  H18Y 8942   4.831   0.999   8.206 -2.4732  1.7178 -0.5153
   91SAPS  H18Z 8943   4.834   0.904   8.353 -1.9480  3.7557  1.2289
   92SAPS     N 8944   3.612   5.603   6.557 -1.1223 -0.1472 -0.6587
   92SAPS   HN1 8945   3.525   5.654   6.581 -0.4589 -0.5474  2.7968
   92SAPS   HN2 8946   3.613   5.509   6.602  2.2309  0.1736  0.1246
   92SAPS   HN3 8947   3.692   5.652   6.601 -0.5681 -1.5108 -0.1149
   92SAPS   C12 8948   3.644   5.589   6.421  0.5777 -0.3182 -0.2843
   92SAPS  H12A 8949   3.547   5.572   6.377  1.0354 -0.5118 -1.2360
   92SAPS   C13 8950   3.703   5.706   6.345 -0.3541 -0.1559 -0.2448
   92SAPS  O13A 8951   3.750   5.801   6.411 -0.1397  0.0533 -0.2939
   92SAPS  O13B 8952   3.734   5.691   6.222 -0.3477 -0.2025  0.4147
   92SAPS   C11 8953   3.732   5.466   6.408 -0.5469  0.6807 -0.4701
   92SAPS  H11A 8954   3.828   5.474   6.463 -0.2819 -0.8862 -0.6780
   92SAPS  H11B 8955   3.750   5.460   6.299  0.9201  0.4801 -0.2264
   92SAPS     P 8956   3.714   5.215   6.420 -0.1794 -0.1327 -0.2741
   92SAPS   O13 8957   3.620   5.109   6.467 -0.5238  0.0360  0.8230
   92SAPS   O14 8958   3.763   5.214   6.277 -0.3843  0.7394 -0.3889
   92SAPS   O12 8959   3.655   5.356   6.456 -0.2599  0.2653  0.2082
   92SAPS   O11 8960   3.842   5.195   6.508  0.0185  0.1763  0.2392
   92SAPS    C1 8961   3.833   5.208   6.651 -1.0089  0.2294  1.0894
   92SAPS    HA 8962   3.910   5.281   6.685  2.3300 -1.1004 -3.1669
   92SAPS    HB 8963   3.735   5.249   6.684  0.2341  1.3597  3.5610
   92SAPS    C2 8964   3.866   5.067   6.713  0.2773  0.2576 -0.2304
   92SAPS    HS 8965   3.954   5.017   6.667  1.4624  0.1955  2.0404
   92SAPS   O21 8966   3.752   4.979   6.706  0.1737 -0.1440  0.0878
   92SAPS   C21 8967   3.758   4.890   6.615  0.3865  0.0519 -0.4706
   92SAPS   O22 8968   3.838   4.881   6.525 -0.2771 -0.1639 -0.2897
   92SAPS   C22 8969   3.669   4.768   6.653  0.3628  0.3599 -0.2981
   92SAPS   H2R 8970   3.566   4.809   6.661  0.8391  1.6582 -0.6069
   92SAPS   H2S 8971   3.668   4.708   6.559  0.5869 -0.0808 -0.0168
   92SAPS    C3 8972   3.896   5.073   6.865 -0.2382  0.2128  0.1152
   92SAPS    HX 8973   3.916   4.968   6.894  1.4603  0.1861 -1.0100
   92SAPS    HY 8974   3.808   5.104   6.924 -0.7886 -0.3747 -0.4002
   92SAPS   O31 8975   4.005   5.161   6.891  0.2982  0.2916  0.2867
   92SAPS   C31 8976   4.121   5.102   6.895 -0.1743  0.1931  0.8556
   92SAPS   O32 8977   4.141   4.978   6.887  0.6419 -0.4570 -0.0861
   92SAPS   C32 8978   4.236   5.198   6.922  0.4870  0.6872 -0.8901
   92SAPS   H2X 8979   4.209   5.264   7.007 -1.3815 -1.2945  0.1052
   92SAPS   H2Y 8980   4.255   5.257   6.830 -1.0790  0.4126 -1.4111
   92SAPS   C23 8981   3.716   4.691   6.776 -0.1305  0.1434  0.3529
   92SAPS   H3R 8982   3.827   4.687   6.772 -0.0189  2.0009  1.3196
   92SAPS   H3S 8983   3.679   4.587   6.764  0.6167  0.0032 -0.9136
   92SAPS   C24 8984   3.655   4.743   6.911  0.2992  0.0714 -0.2624
   92SAPS   H4R 8985   3.548   4.714   6.907 -0.0365  1.4860 -3.5463
   92SAPS   H4S 8986   3.658   4.854   6.910  1.8684  0.0387 -0.7502
   92SAPS   C25 8987   3.720   4.698   7.042  0.9995  0.1219 -0.0834
   92SAPS   H5R 8988   3.751   4.593   7.029  0.4312 -0.2120  1.1453
   92SAPS   C26 8989   3.740   4.768   7.154 -0.6540 -0.1929 -0.2091
   92SAPS   H6R 8990   3.782   4.724   7.246  0.1796 -0.2311 -0.5967
   92SAPS   C27 8991   3.707   4.920   7.170 -0.4570 -0.8783 -0.8970
   92SAPS   H7R 8992   3.616   4.939   7.231  1.6044  1.3560  1.6462
   92SAPS   H7S 8993   3.702   4.979   7.076  0.7918  2.6708  1.1420
   92SAPS   C28 8994   3.826   4.973   7.236 -0.5173  0.6643 -0.2117
   92SAPS   H8R 8995   3.922   4.933   7.203 -0.1850  1.2481  0.0391
   92SAPS   C29 8996   3.833   5.045   7.350 -0.2716 -0.0559  0.4943
   92SAPS   H9R 8997   3.932   5.077   7.386  0.6954 -0.2822 -1.8895
   92SAPS  C210 8998   3.708   5.088   7.422 -0.2910 -0.2071 -0.4300
   92SAPS  H10R 8999   3.661   5.003   7.477 -0.9017  1.0912  1.0992
   92SAPS  H10S 9000   3.626   5.124   7.356 -0.8675 -0.1827  0.2912
   92SAPS  C211 9001   3.734   5.208   7.514 -0.0303  0.1100 -0.1989
   92SAPS  H11R 9002   3.717   5.303   7.461  0.3390  0.7080  0.7450
   92SAPS  C212 9003   3.783   5.211   7.644 -0.0555  0.0151  0.8295
   92SAPS  H12R 9004   3.788   5.301   7.708  2.3519 -1.1464  2.3329
   92SAPS  C213 9005   3.808   5.087   7.722  0.0555  0.8473  0.7417
   92SAPS  H13R 9006   3.799   5.000   7.654  2.8572  1.5163 -0.5311
   92SAPS  H13S 9007   3.722   5.081   7.793 -0.1829 -2.2258  0.2572
   92SAPS  C214 9008   3.946   5.086   7.782  0.4031 -0.5826 -0.3393
   92SAPS  H14R 9009   4.022   5.049   7.711  1.0128 -3.4640  1.7281
   92SAPS  C215 9010   3.983   5.142   7.898  0.5014  0.0126 -0.0523
   92SAPS  H15R 9011   4.087   5.136   7.934  0.6270 -0.6268 -0.5104
   92SAPS  C216 9012   3.900   5.225   7.991  0.7713 -0.3033 -0.1558
   92SAPS  H16R 9013   3.790   5.208   7.985  0.7245 -0.1933  0.4192
   92SAPS  H16S 9014   3.913   5.328   7.951  2.9510 -0.1181  0.9632
   92SAPS  C217 9015   3.954   5.240   8.140  0.4928  0.1732  0.5694
   92SAPS  H17R 9016   3.925   5.336   8.187  1.0719 -0.4036  2.1408
   92SAPS  H17S 9017   4.065   5.244   8.135  0.8779 -4.0322  3.0071
   92SAPS  C218 9018   3.906   5.124   8.226  1.2590 -0.4247  0.4135
   92SAPS  H18R 9019   3.940   5.033   8.173  1.1606  0.3935 -1.0849
   92SAPS  H18S 9020   3.796   5.128   8.240  1.1096  0.2590 -0.9074
   92SAPS  C219 9021   3.945   5.143   8.368  0.3079  0.4370  0.3450
   92SAPS  H19R 9022   4.051   5.170   8.389  0.2218 -0.1814  1.6213
   92SAPS  H19S 9023   3.929   5.038   8.401  1.1217  0.2554  0.1817
   92SAPS  C220 9024   3.858   5.241   8.451  0.7482  0.5643  0.6614
   92SAPS  H20R 9025   3.873   5.343   8.410  0.3811  1.4832  2.6960
   92SAPS  H20S 9026   3.890   5.242   8.558  2.7376  1.5790  0.0744
   92SAPS  H20T 9027   3.749   5.217   8.451  0.2633  2.6573 -1.0512
   92SAPS   C33 9028   4.364   5.128   6.966 -0.4664 -0.0971  0.4506
   92SAPS   H3X 9029   4.404   5.058   6.890 -2.0168 -2.3055  1.6286
   92SAPS   H3Y 9030   4.347   5.067   7.057  0.2473  0.9354  1.2893
   92SAPS   C34 9031   4.476   5.220   7.010 -0.0642 -0.7384 -0.2586
   92SAPS   H4X 9032   4.434   5.276   7.096  0.9404 -2.3342  1.3088
   92SAPS   H4Y 9033   4.487   5.290   6.925  2.3604  0.2047  0.8073
   92SAPS   C35 9034   4.602   5.151   7.050  0.1595  0.1343  0.5159
   92SAPS   H5X 9035   4.681   5.229   7.053 -0.6355  0.8986  2.3163
   92SAPS   H5Y 9036   4.623   5.077   6.970 -0.0154  1.9892 -1.2814
   92SAPS   C36 9037   4.608   5.074   7.180 -0.4817  0.0436 -0.1570
   92SAPS   H6X 9038   4.555   4.977   7.175  1.6475 -1.1928  0.6880
   92SAPS   H6Y 9039   4.570   5.148   7.255 -0.8255  1.0066 -1.2672
   92SAPS   C37 9040   4.749   5.021   7.229 -0.4792  0.2192 -0.5228
   92SAPS   H7X 9041   4.806   5.107   7.271  1.3986 -0.6185 -1.2862
   92SAPS   H7Y 9042   4.802   4.965   7.149 -0.2579 -0.7525  0.2920
   92SAPS   C38 9043   4.751   4.911   7.341 -0.9132 -0.0463  0.0467
   92SAPS   H8X 9044   4.861   4.890   7.342 -0.8473  0.1895 -1.8635
   92SAPS   H8Y 9045   4.686   4.825   7.314 -0.3620 -0.4908  0.1181
   92SAPS   C39 9046   4.701   4.953   7.482  0.4994 -0.5283 -0.4242
   92SAPS   H9X 9047   4.591   4.947   7.489  0.6173 -0.8061  1.7693
   92SAPS   H9Y 9048   4.736   5.058   7.493 -0.5782  0.0169 -2.1400
   92SAPS  C310 9049   4.773   4.875   7.595  0.1025 -0.2175 -0.0117
   92SAPS  H10X 9050   4.883   4.889   7.587 -0.1451  2.3896  0.5272
   92SAPS  H10Y 9051   4.765   4.765   7.598 -3.2953  0.0289  2.7514
   92SAPS  C311 9052   4.742   4.908   7.740  0.0751 -0.0510 -0.0359
   92SAPS  H11X 9053   4.638   4.877   7.761  0.4433 -1.7952 -0.7056
   92SAPS  H11Y 9054   4.773   5.014   7.757  0.4990 -0.3126  0.8438
   92SAPS  C312 9055   4.827   4.816   7.835  0.4246 -0.0490  0.0256
   92SAPS  H12X 9056   4.934   4.848   7.833  0.2381  0.5969  0.3732
   92SAPS  H12Y 9057   4.835   4.714   7.791 -1.5154  0.4532 -1.5535
   92SAPS  C313 9058   4.777   4.825   7.975 -0.0852  0.0122 -0.8800
   92SAPS  H13X 9059   4.696   4.752   7.995 -0.7354  0.5863 -1.3899
   92SAPS  H13Y 9060   4.721   4.918   7.998 -0.9026 -0.7885  0.4733
   92SAPS  C314 9061   4.881   4.811   8.089 -0.7441  0.0621 -0.6968
   92SAPS  H14X 9062   4.949   4.727   8.063 -1.6778 -1.3138  1.2018
   92SAPS  H14Y 9063   4.820   4.778   8.176  0.7445 -1.1037 -0.0866
   92SAPS  C315 9064   4.946   4.944   8.119  0.3058  0.2307  0.7272
   92SAPS  H15X 9065   4.884   5.021   8.170  0.2213 -0.4233  1.6235
   92SAPS  H15Y 9066   4.980   4.980   8.020 -2.0835 -1.6678 -0.8613
   92SAPS  C316 9067   5.079   4.915   8.201 -0.0126 -0.2758  0.7092
   92SAPS  H16X 9068   5.134   5.009   8.221  1.0893 -1.3680  3.0009
   92SAPS  H16Y 9069   5.145   4.843   8.147  0.5943 -0.5713  1.8348
   92SAPS  C317 9070   5.054   4.851   8.338 -0.2021  0.2578 -0.9262
   92SAPS  H17X 9071   5.006   4.752   8.324  2.2470 -1.6265  2.9310
   92SAPS  H17Y 9072   4.988   4.922   8.394  0.9033  1.0544 -0.6092
   92SAPS  C318 9073   5.189   4.832   8.415 -0.8127 -0.2422  0.4933
   92SAPS  H18X 9074   5.232   4.928   8.451  1.4905 -0.5953 -1.1532
   92SAPS  H18Y 9075   5.255   4.780   8.342 -0.6424 -0.1266  0.5651
   92SAPS  H18Z 9076   5.171   4.761   8.498  2.4990 -0.6488  0.9125
   93SAPS     N 9077   4.689   5.967   6.181 -0.0262 -0.4528  0.2165
   93SAPS   HN1 9078   4.649   5.974   6.085  0.0206 -0.8794  0.1635
   93SAPS   HN2 9079   4.639   5.892   6.235 -0.4749  0.3192  0.8793
   93SAPS   HN3 9080   4.665   6.054   6.232 -0.4747  0.1428 -0.9958
   93SAPS   C12 9081   4.826   5.938   6.190  0.2976  0.5250 -0.1173
   93SAPS  H12A 9082   4.827   5.836   6.153 -0.0537  0.9209 -1.2282
   93SAPS   C13 9083   4.921   6.024   6.106 -0.7396  0.9617  0.5955
   93SAPS  O13A 9084   4.880   6.108   6.023  0.0591 -0.3783  0.0121
   93SAPS  O13B 9085   5.044   6.017   6.126  0.1246  0.0702  0.7581
   93SAPS   C11 9086   4.856   5.935   6.341 -0.0543 -0.4361 -0.7399
   93SAPS  H11A 9087   4.851   6.035   6.388  0.5784  0.4341 -2.4703
   93SAPS  H11B 9088   4.964   5.909   6.345  0.2968  1.0837 -0.2005
   93SAPS     P 9089   4.834   5.741   6.501  0.0150 -0.3832  0.0692
   93SAPS   O13 9090   4.743   5.693   6.605 -0.0294  0.6523 -0.7644
   93SAPS   O14 9091   4.898   5.644   6.410  0.0574  0.3350 -0.0201
   93SAPS   O12 9092   4.764   5.847   6.409  1.0268  0.1337 -0.1103
   93SAPS   O11 9093   4.957   5.817   6.575 -0.5530  0.1913 -0.1262
   93SAPS    C1 9094   4.930   5.925   6.664  0.3148  0.3558 -0.6222
   93SAPS    HA 9095   4.912   6.020   6.609  0.4385  0.4899 -0.4275
   93SAPS    HB 9096   4.843   5.891   6.724 -0.9346  2.0007 -1.4408
   93SAPS    C2 9097   5.038   5.960   6.771 -0.2441 -0.3630 -0.7143
   93SAPS    HS 9098   4.993   6.021   6.852 -1.0763 -0.9008 -0.7636
   93SAPS   O21 9099   5.160   6.012   6.712 -0.3004  0.8353  0.2540
   93SAPS   C21 9100   5.158   6.146   6.693 -0.5109  0.2840  0.2854
   93SAPS   O22 9101   5.073   6.218   6.734  0.6938  0.5751 -0.5065
   93SAPS   C22 9102   5.286   6.190   6.620  0.5733 -0.3371 -1.0191
   93SAPS   H2R 9103   5.376   6.125   6.624  1.0294  0.2277 -1.8174
   93SAPS   H2S 9104   5.260   6.196   6.512  0.0883  2.0495 -0.7942
   93SAPS    C3 9105   5.072   5.830   6.858  0.5192  0.3314 -0.6327
   93SAPS    HX 9106   5.135   5.865   6.943  0.9124  0.0146 -0.7930
   93SAPS    HY 9107   5.129   5.770   6.785  0.6800  2.0015 -1.9171
   93SAPS   O31 9108   4.951   5.764   6.903 -0.3745 -1.0010 -0.3366
   93SAPS   C31 9109   4.928   5.636   6.864 -0.9413 -0.6340  0.7158
   93SAPS   O32 9110   5.015   5.563   6.814  0.2688 -0.0771  0.0231
   93SAPS   C32 9111   4.789   5.599   6.911  0.4189  0.5956 -0.1190
   93SAPS   H2X 9112   4.755   5.506   6.860  0.1881  0.5621  0.0973
   93SAPS   H2Y 9113   4.719   5.679   6.878  0.2157  0.1979 -0.6487
   93SAPS   C23 9114   5.329   6.336   6.655 -0.3692  0.3669 -0.1842
   93SAPS   H3R 9115   5.250   6.406   6.622  1.7201  2.1724 -1.5114
   93SAPS   H3S 9116   5.420   6.355   6.594  0.3854 -1.1744  0.4325
   93SAPS   C24 9117   5.348   6.370   6.806 -0.3756  0.4238 -0.6015
   93SAPS   H4R 9118   5.247   6.355   6.852  0.5236  0.9617  1.6069
   93SAPS   H4S 9119   5.381   6.475   6.811  3.6887 -0.7969 -0.2102
   93SAPS   C25 9120   5.452   6.274   6.867  0.2502  0.6021 -0.1872
   93SAPS   H5R 9121   5.536   6.247   6.802 -0.3267  0.7594 -1.0093
   93SAPS   C26 9122   5.436   6.220   6.992 -0.2424  0.0971 -0.2421
   93SAPS   H6R 9123   5.519   6.154   7.023 -1.0711 -2.2737 -2.8619
   93SAPS   C27 9124   5.320   6.242   7.088 -0.0028 -0.5120  0.1072
   93SAPS   H7R 9125   5.264   6.336   7.069  0.3285 -0.3371  0.0061
   93SAPS   H7S 9126   5.366   6.235   7.189  0.3272  2.1082  0.1831
   93SAPS   C28 9127   5.214   6.133   7.065 -0.6564 -0.4608  0.3617
   93SAPS   H8R 9128   5.173   6.124   6.963 -2.5986  0.7950  0.9922
   93SAPS   C29 9129   5.142   6.077   7.163  0.2529 -0.6575 -0.8596
   93SAPS   H9R 9130   5.070   6.000   7.130  0.0940 -0.6122 -0.6241
   93SAPS  C210 9131   5.153   6.104   7.313 -0.8726 -0.2987  0.1711
   93SAPS  H10R 9132   5.260   6.119   7.336 -0.6806  1.2973 -1.6368
   93SAPS  H10S 9133   5.136   6.007   7.365 -1.0774  0.9119  2.4170
   93SAPS  C211 9134   5.067   6.223   7.365  1.2275  0.5949  0.1419
   93SAPS  H11R 9135   4.999   6.272   7.293 -0.5675 -0.6462  0.9546
   93SAPS  C212 9136   5.081   6.273   7.485 -1.0919 -0.2403 -0.1717
   93SAPS  H12R 9137   5.023   6.361   7.517 -0.9382 -0.3370  0.3709
   93SAPS  C213 9138   5.170   6.226   7.594 -0.2131 -0.7324  0.7481
   93SAPS  H13R 9139   5.209   6.315   7.647 -0.2903 -1.6027  2.2928
   93SAPS  H13S 9140   5.258   6.177   7.545 -1.9669 -0.4903 -2.7837
   93SAPS  C214 9141   5.100   6.134   7.684 -0.1439 -0.2448  0.4928
   93SAPS  H14R 9142   5.076   6.041   7.629 -1.0363  1.8901 -2.8749
   93SAPS  C215 9143   5.070   6.153   7.809 -0.0551  0.0340  0.3123
   93SAPS  H15R 9144   5.017   6.067   7.853 -1.6436 -0.8876 -3.2657
   93SAPS  C216 9145   5.087   6.272   7.900 -0.1105  0.7114 -0.0647
   93SAPS  H16R 9146   5.142   6.348   7.840  0.2940 -1.6390 -2.8112
   93SAPS  H16S 9147   5.151   6.248   7.987  0.7924 -0.8619 -1.1386
   93SAPS  C217 9148   4.955   6.325   7.952  0.1518  0.0932  0.6047
   93SAPS  H17R 9149   4.883   6.336   7.868 -0.0271  0.0228  0.7478
   93SAPS  H17S 9150   4.986   6.415   8.009  0.9258 -1.0795  2.0931
   93SAPS  C218 9151   4.891   6.231   8.057  0.5374 -0.0348  0.1089
   93SAPS  H18R 9152   4.863   6.130   8.019 -0.4808  0.0461  0.6247
   93SAPS  H18S 9153   4.794   6.269   8.095  0.5014  2.5068 -2.3927
   93SAPS  C219 9154   4.990   6.207   8.180  0.0366 -0.2138  0.6914
   93SAPS  H19R 9155   5.033   6.301   8.221  0.0018  1.1116 -2.1515
   93SAPS  H19S 9156   5.070   6.137   8.147  2.6999  2.2105  1.8244
   93SAPS  C220 9157   4.916   6.152   8.299 -0.0630  0.8779  0.0510
   93SAPS  H20R 9158   4.993   6.124   8.374 -0.8962 -2.3761 -0.2282
   93SAPS  H20S 9159   4.866   6.056   8.272  1.6462 -0.0670  0.1769
   93SAPS  H20T 9160   4.860   6.233   8.351 -1.4193  0.1936 -0.3098
   93SAPS   C33 9161   4.783   5.592   7.068 -0.3452  0.7042  0.1848
   93SAPS   H3X 9162   4.678   5.575   7.099 -1.3445  2.3205 -2.2091
   93SAPS   H3Y 9163   4.802   5.693   7.109  1.2865  0.7839 -0.7050
   93SAPS   C34 9164   4.872   5.474   7.128 -0.3446  0.1516  0.1546
   93SAPS   H4X 9165   4.975   5.510   7.105 -0.4436 -0.2785 -0.9708
   93SAPS   H4Y 9166   4.863   5.375   7.079  1.6280  1.6374 -3.3803
   93SAPS   C35 9167   4.881   5.470   7.283  0.3839  0.4709 -0.2228
   93SAPS   H5X 9168   4.781   5.437   7.319  0.4013  1.8763  1.1595
   93SAPS   H5Y 9169   4.896   5.572   7.324 -0.0597 -0.7587  3.1028
   93SAPS   C36 9170   5.011   5.399   7.334 -0.2995  0.3048 -0.1219
   93SAPS   H6X 9171   5.104   5.454   7.305  0.0537 -1.0857 -1.6955
   93SAPS   H6Y 9172   5.020   5.299   7.286 -0.8434 -0.6039  1.6488
   93SAPS   C37 9173   5.031   5.386   7.484  0.7172 -0.4777 -0.0904
   93SAPS   H7X 9174   5.044   5.486   7.530 -1.2801 -0.7573  1.1773
   93SAPS   H7Y 9175   5.136   5.349   7.484  1.9304  2.8309 -1.7349
   93SAPS   C38 9176   4.937   5.291   7.560 -0.1241 -0.2920 -0.0405
   93SAPS   H8X 9177   4.917   5.204   7.495 -0.5674  1.9693 -3.0209
   93SAPS   H8Y 9178   4.842   5.339   7.592  0.3620 -1.6684  3.7447
   93SAPS   C39 9179   5.002   5.233   7.695  0.0360  0.2315  0.6589
   93SAPS   H9X 9180   5.105   5.194   7.677 -0.8925 -1.4496 -1.4008
   93SAPS   H9Y 9181   4.932   5.151   7.722  0.3295  0.1556  1.1769
   93SAPS  C310 9182   5.003   5.331   7.814 -0.0676  0.6404 -0.3169
   93SAPS  H10X 9183   4.897   5.328   7.846  0.2651 -2.4771  0.6439
   93SAPS  H10Y 9184   5.044   5.428   7.780  0.1790  0.2155 -1.2452
   93SAPS  C311 9185   5.087   5.287   7.934  0.3105 -0.2640 -0.1550
   93SAPS  H11X 9186   5.195   5.273   7.909  0.7557  0.5437  1.2745
   93SAPS  H11Y 9187   5.043   5.190   7.968 -0.8174  0.9078  1.8426
   93SAPS  C312 9188   5.055   5.374   8.058  0.2945  0.2710  0.5008
   93SAPS  H12X 9189   4.944   5.376   8.061  0.3006 -0.7701  1.4348
   93SAPS  H12Y 9190   5.092   5.478   8.045 -0.7028  0.4085 -1.3610
   93SAPS  C313 9191   5.116   5.318   8.186 -0.2091 -0.8461 -0.3155
   93SAPS  H13X 9192   5.227   5.312   8.174 -0.3398  1.1715 -3.0097
   93SAPS  H13Y 9193   5.076   5.215   8.202  0.8691 -1.0887  0.9687
   93SAPS  C314 9194   5.097   5.405   8.311 -0.6686 -0.4515  0.5869
   93SAPS  H14X 9195   4.990   5.433   8.320 -0.2850  2.0457 -2.0826
   93SAPS  H14Y 9196   5.150   5.497   8.280  0.2603 -1.4954 -0.9777
   93SAPS  C315 9197   5.162   5.355   8.437  0.2863 -0.0781 -0.1826
   93SAPS  H15X 9198   5.158   5.437   8.512 -1.6305  1.3655 -1.7928
   93SAPS  H15Y 9199   5.270   5.333   8.422  0.0353 -1.7308  0.2846
   93SAPS  C316 9200   5.096   5.230   8.501 -0.6144  0.6732  0.1705
   93SAPS  H16X 9201   5.095   5.154   8.420 -0.9133 -0.6568  1.4006
   93SAPS  H16Y 9202   4.989   5.252   8.521 -0.5414 -0.0327  1.4262
   93SAPS  C317 9203   5.155   5.195   8.634  0.5189  0.1598 -0.7855
   93SAPS  H17X 9204   5.101   5.103   8.663 -0.5584  0.6015 -1.3243
   93SAPS  H17Y 9205   5.137   5.272   8.712  3.6553  0.9588 -0.7926
   93SAPS  C318 9206   5.307   5.163   8.642 -0.0830 -0.2776  0.6600
   93SAPS  H18X 9207   5.335   5.097   8.558 -1.0644 -0.1122  0.1933
   93SAPS  H18Y 9208   5.333   5.106   8.734  0.7848 -1.1875 -0.1448
   93SAPS  H18Z 9209   5.378   5.247   8.629  0.4605 -1.1317 -2.1335
   94SAPS     N 9210   4.672   0.425   5.620  1.3956  1.0193  0.2717
   94SAPS   HN1 9211   4.667   0.507   5.555  0.0261 -0.0137 -0.9657
   94SAPS   HN2 9212   4.681   0.335   5.570  3.4912  1.4907 -0.2730
   94SAPS   HN3 9213   4.575   0.434   5.657  0.0979  0.1494 -2.7575
   94SAPS   C12 9214   4.780   0.453   5.722 -0.6830  0.5308 -0.1307
   94SAPS  H12A 9215   4.772   0.369   5.790  1.3903 -0.9168 -1.5987
   94SAPS   C13 9216   4.927   0.435   5.664 -0.5671  0.3970  0.3024
   94SAPS  O13A 9217   4.926   0.455   5.543  0.1901 -0.3729  0.0386
   94SAPS  O13B 9218   5.026   0.455   5.738  0.3925 -0.6371 -0.1100
   94SAPS   C11 9219   4.756   0.593   5.788  0.2077 -0.0129 -0.3127
   94SAPS  H11A 9220   4.748   0.675   5.713  0.8157  0.2333 -0.1126
   94SAPS  H11B 9221   4.848   0.630   5.839  0.6091  1.0323 -1.7608
   94SAPS     P 9222   4.523   0.715   5.838  1.0938  0.1176  0.1678
   94SAPS   O13 9223   4.492   0.717   5.697  0.4768  0.0048 -0.1169
   94SAPS   O14 9224   4.410   0.701   5.927  0.3995  0.4350  0.3679
   94SAPS   O12 9225   4.636   0.601   5.866  0.1517 -0.4934 -0.7267
   94SAPS   O11 9226   4.609   0.842   5.869 -0.7759 -0.5552 -0.1280
   94SAPS    C1 9227   4.709   0.852   5.975 -0.2116  0.4140  0.1985
   94SAPS    HA 9228   4.732   0.754   6.021 -3.8208 -0.2290  0.8114
   94SAPS    HB 9229   4.800   0.902   5.936 -0.7728  0.8874 -0.5198
   94SAPS    C2 9230   4.656   0.944   6.095  0.1856 -0.5684  0.1738
   94SAPS    HS 9231   4.673   1.048   6.060  2.8643 -0.9059  0.3257
   94SAPS   O21 9232   4.739   0.906   6.209 -0.9377  0.5119  0.0757
   94SAPS   C21 9233   4.780   1.003   6.285  0.5703 -0.0353 -0.2964
   94SAPS   O22 9234   4.765   1.124   6.262 -0.0322  0.0065 -0.1557
   94SAPS   C22 9235   4.848   0.947   6.404 -0.4062  0.1742  0.6997
   94SAPS   H2R 9236   4.775   0.885   6.461 -2.6130  1.3704 -0.7523
   94SAPS   H2S 9237   4.937   0.886   6.376 -1.0693 -0.6284  0.2913
   94SAPS    C3 9238   4.507   0.922   6.138  0.0902 -0.1765 -0.3681
   94SAPS    HX 9239   4.498   0.814   6.162  1.9240  0.4538  3.5227
   94SAPS    HY 9240   4.439   0.939   6.051 -0.0539 -4.4964 -1.2033
   94SAPS   O31 9241   4.460   0.998   6.259  0.3543  0.5528 -0.0587
   94SAPS   C31 9242   4.453   1.124   6.244  0.5523  0.2483  0.3082
   94SAPS   O32 9243   4.454   1.184   6.135 -0.7448  0.2892  0.3231
   94SAPS   C32 9244   4.439   1.196   6.372  0.2084  0.4404  1.0135
   94SAPS   H2X 9245   4.366   1.277   6.355  0.2015 -0.0960 -1.6380
   94SAPS   H2Y 9246   4.538   1.247   6.375 -0.7931  2.4007  1.7008
   94SAPS   C23 9247   4.904   1.056   6.503 -0.3669 -0.1814  0.6785
   94SAPS   H3R 9248   4.959   1.128   6.439 -0.3462 -0.8217 -0.0468
   94SAPS   H3S 9249   4.971   1.003   6.574 -0.3510  1.0764  1.6085
   94SAPS   C24 9250   4.795   1.138   6.569 -0.6686  0.0376  0.0160
   94SAPS   H4R 9251   4.716   1.061   6.584 -1.0963  0.1437 -1.5932
   94SAPS   H4S 9252   4.744   1.209   6.501 -0.9409 -0.3886 -0.2303
   94SAPS   C25 9253   4.830   1.202   6.704 -0.5829  0.2111  0.9712
   94SAPS   H5R 9254   4.870   1.304   6.691 -0.9742  0.3144  0.5861
   94SAPS   C26 9255   4.826   1.145   6.827 -0.2244 -0.4849  0.4937
   94SAPS   H6R 9256   4.833   1.208   6.917 -3.0384 -0.0398  0.4599
   94SAPS   C27 9257   4.796   1.007   6.873  0.1620  0.0319  0.1252
   94SAPS   H7R 9258   4.775   0.935   6.790 -1.7859 -0.7244  1.2394
   94SAPS   H7S 9259   4.705   1.008   6.937  1.0811 -1.4839  1.4898
   94SAPS   C28 9260   4.901   0.939   6.957 -0.3727 -0.7244  0.1295
   94SAPS   H8R 9261   4.980   0.881   6.907  0.5191  2.0408 -1.7829
   94SAPS   C29 9262   4.926   0.953   7.091  0.3041 -0.3228 -0.1412
   94SAPS   H9R 9263   5.007   0.891   7.132  0.6087 -1.1301 -1.9261
   94SAPS  C210 9264   4.840   1.029   7.188  0.5263  0.2406 -0.1014
   94SAPS  H10R 9265   4.841   0.979   7.287 -2.1241 -1.3407 -0.8292
   94SAPS  H10S 9266   4.736   1.036   7.149 -0.4473  2.5098  2.6823
   94SAPS  C211 9267   4.888   1.166   7.226 -0.9903  0.0816  0.2817
   94SAPS  H11R 9268   4.837   1.251   7.179  0.7172 -0.3010 -2.3837
   94SAPS  C212 9269   4.974   1.202   7.323 -0.2153 -0.6407 -0.3514
   94SAPS  H12R 9270   5.007   1.306   7.332  2.9733 -1.7345  1.2780
   94SAPS  C213 9271   5.053   1.110   7.417 -0.2093 -0.0830 -0.8332
   94SAPS  H13R 9272   5.150   1.160   7.439  0.7728 -1.6163 -1.5758
   94SAPS  H13S 9273   5.083   1.023   7.354  2.2521 -2.0628  2.9083
   94SAPS  C214 9274   4.978   1.053   7.534 -0.2949 -0.0750  0.2555
   94SAPS  H14R 9275   4.892   0.990   7.507 -1.2692  0.4737  2.0472
   94SAPS  C215 9276   5.017   1.055   7.665  0.2629 -0.4554 -0.2419
   94SAPS  H15R 9277   4.949   1.000   7.732 -1.0563  0.4173 -0.8278
   94SAPS  C216 9278   5.134   1.117   7.730 -0.0637 -0.4413 -0.0614
   94SAPS  H16R 9279   5.098   1.180   7.815 -0.9594  1.6705 -1.9530
   94SAPS  H16S 9280   5.177   1.198   7.667 -3.2633  0.1371 -1.5747
   94SAPS  C217 9281   5.240   1.021   7.785 -0.0587  1.0423 -0.0515
   94SAPS  H17R 9282   5.329   1.081   7.815  0.6176  1.5835 -3.0141
   94SAPS  H17S 9283   5.270   0.965   7.694 -1.2247 -0.6330  0.5788
   94SAPS  C218 9284   5.201   0.922   7.894 -0.0102  0.4845 -0.3192
   94SAPS  H18R 9285   5.125   0.850   7.855  2.2654 -1.4190 -1.3752
   94SAPS  H18S 9286   5.146   0.984   7.968  0.7828 -1.7374  2.2265
   94SAPS  C219 9287   5.314   0.838   7.967 -0.2511 -0.1558  0.4547
   94SAPS  H19R 9288   5.383   0.908   8.019  1.2949 -0.4431 -1.1534
   94SAPS  H19S 9289   5.376   0.799   7.883 -0.0148 -2.9118  1.8386
   94SAPS  C220 9290   5.265   0.723   8.054 -0.0140 -0.1520 -0.5085
   94SAPS  H20R 9291   5.354   0.681   8.105 -0.0637 -1.4043 -1.4117
   94SAPS  H20S 9292   5.208   0.642   8.002 -0.0178 -0.8898  0.6309
   94SAPS  H20T 9293   5.204   0.764   8.137  1.6837 -0.7228  1.0427
   94SAPS   C33 9294   4.406   1.116   6.501  0.2772  0.2880  0.0962
   94SAPS   H3X 9295   4.474   1.029   6.493  0.9749  0.8380 -0.0015
   94SAPS   H3Y 9296   4.301   1.084   6.483  0.1416  0.3106  0.8250
   94SAPS   C34 9297   4.427   1.198   6.628 -0.5685  0.1702  0.5893
   94SAPS   H4X 9298   4.381   1.297   6.606 -0.2573  0.3300  0.6550
   94SAPS   H4Y 9299   4.537   1.212   6.636 -0.0838 -2.8079 -0.2288
   94SAPS   C35 9300   4.370   1.140   6.756 -0.6806  0.1325  0.2485
   94SAPS   H5X 9301   4.389   1.031   6.769  4.2755  0.9049  0.2866
   94SAPS   H5Y 9302   4.259   1.148   6.749 -0.7684 -0.5518  0.7588
   94SAPS   C36 9303   4.416   1.210   6.885 -0.0117 -0.6905  0.3394
   94SAPS   H6X 9304   4.387   1.317   6.877 -0.3719 -0.7133  1.3664
   94SAPS   H6Y 9305   4.525   1.193   6.898  0.0970 -2.1186 -2.0556
   94SAPS   C37 9306   4.360   1.157   7.018  0.0387  0.0038 -0.5610
   94SAPS   H7X 9307   4.395   1.052   7.022 -1.9933 -0.6374  2.0824
   94SAPS   H7Y 9308   4.249   1.165   7.018 -0.0126 -0.7504 -1.1889
   94SAPS   C38 9309   4.413   1.233   7.138  0.5382  0.7606 -0.8857
   94SAPS   H8X 9310   4.384   1.340   7.132  0.3633  0.7316 -0.5324
   94SAPS   H8Y 9311   4.523   1.224   7.140  0.5375  0.3844 -2.0843
   94SAPS   C39 9312   4.351   1.190   7.272 -0.3890  0.8985  0.5702
   94SAPS   H9X 9313   4.346   1.079   7.272  0.6370  0.8026 -2.0574
   94SAPS   H9Y 9314   4.252   1.239   7.282 -1.1835 -0.1282 -1.7181
   94SAPS  C310 9315   4.442   1.244   7.384 -0.2997 -0.0262 -0.2066
   94SAPS  H10X 9316   4.457   1.354   7.383 -0.3197 -0.0292 -0.9732
   94SAPS  H10Y 9317   4.545   1.202   7.383 -0.5224 -0.5844 -0.0500
   94SAPS  C311 9318   4.384   1.195   7.523  0.4366 -0.3241  0.1389
   94SAPS  H11X 9319   4.368   1.085   7.522  0.0444 -0.2625 -0.7784
   94SAPS  H11Y 9320   4.283   1.236   7.541 -0.2677 -0.5619 -3.0220
   94SAPS  C312 9321   4.473   1.238   7.635  0.2609  0.1009  0.2277
   94SAPS  H12X 9322   4.452   1.346   7.650 -1.2252 -0.2255  0.5995
   94SAPS  H12Y 9323   4.583   1.232   7.621  0.2672  1.3591 -0.3313
   94SAPS  C313 9324   4.436   1.175   7.776  0.8305  0.0277 -0.6437
   94SAPS  H13X 9325   4.458   1.066   7.765 -2.5584 -0.8449  0.6501
   94SAPS  H13Y 9326   4.325   1.177   7.774  0.7792  0.4140  1.2930
   94SAPS  C314 9327   4.495   1.248   7.892  0.1114 -0.8462  0.0256
   94SAPS  H14X 9328   4.431   1.334   7.922 -0.3971 -2.0283  2.4641
   94SAPS  H14Y 9329   4.597   1.276   7.857  0.0267 -0.2353  0.2531
   94SAPS  C315 9330   4.514   1.168   8.025 -0.5640 -0.2702 -0.2626
   94SAPS  H15X 9331   4.578   1.222   8.098 -2.7636 -0.3172  1.7459
   94SAPS  H15Y 9332   4.564   1.072   7.999 -1.4643 -0.5267 -1.0529
   94SAPS  C316 9333   4.383   1.130   8.081 -0.3027 -0.4787 -0.0545
   94SAPS  H16X 9334   4.306   1.087   8.013  1.5142 -2.1037 -1.1397
   94SAPS  H16Y 9335   4.338   1.225   8.119 -1.5725 -1.2794  0.4593
   94SAPS  C317 9336   4.389   1.047   8.212 -0.1538  0.5094 -0.0078
   94SAPS  H17X 9337   4.446   1.095   8.294 -0.1149 -1.3287  1.0750
   94SAPS  H17Y 9338   4.420   0.942   8.192  1.4669  1.0706 -0.5916
   94SAPS  C318 9339   4.251   1.041   8.275 -0.3674 -0.2799 -0.5142
   94SAPS  H18X 9340   4.189   1.010   8.188  1.0512  1.0514 -2.0407
   94SAPS  H18Y 9341   4.223   1.143   8.312  0.7076  0.1827 -0.9553
   94SAPS  H18Z 9342   4.245   0.963   8.354 -1.4797  0.6222  0.3212
   95SAPS     N 9343   1.446   5.179   6.044 -0.7104  0.1330  0.0230
   95SAPS   HN1 9344   1.374   5.162   5.971 -0.1914  0.7826 -0.6492
   95SAPS   HN2 9345   1.413   5.145   6.136 -0.2868 -0.1427  0.0745
   95SAPS   HN3 9346   1.442   5.282   6.052 -0.5997  0.1342  0.0686
   95SAPS   C12 9347   1.574   5.123   5.991 -0.3621 -0.6203  0.7402
   95SAPS  H12A 9348   1.563   5.015   5.984 -0.6814 -0.5317 -0.3237
   95SAPS   C13 9349   1.616   5.180   5.854 -0.7074  0.6557  0.1785
   95SAPS  O13A 9350   1.544   5.268   5.795  0.1408  0.8565 -0.3722
   95SAPS  O13B 9351   1.715   5.128   5.797 -0.1408 -0.2455 -0.3218
   95SAPS   C11 9352   1.689   5.154   6.087 -0.1891 -0.9450  0.1351
   95SAPS  H11A 9353   1.689   5.265   6.090 -0.7383 -0.8349 -2.4121
   95SAPS  H11B 9354   1.784   5.119   6.043 -1.1513 -4.1486  0.4738
   95SAPS     P 9355   1.773   5.067   6.325  0.3678 -0.3258 -0.2584
   95SAPS   O13 9356   1.750   4.924   6.338  0.7363  0.1800 -0.2974
   95SAPS   O14 9357   1.908   5.119   6.281 -0.4545 -0.1750 -0.2318
   95SAPS   O12 9358   1.663   5.109   6.217 -0.5601 -0.2012 -0.2590
   95SAPS   O11 9359   1.730   5.134   6.467 -0.4001  0.0983  0.0690
   95SAPS    C1 9360   1.676   5.266   6.487 -0.4923  0.1346 -0.0838
   95SAPS    HA 9361   1.761   5.337   6.500  0.3132 -1.0461  1.2269
   95SAPS    HB 9362   1.616   5.310   6.405  0.8199  0.5196 -0.8410
   95SAPS    C2 9363   1.588   5.275   6.616 -0.6776  0.0910  0.3070
   95SAPS    HS 9364   1.539   5.374   6.609 -1.6782 -0.3994  0.1695
   95SAPS   O21 9365   1.662   5.254   6.735 -0.4827 -0.2240  0.6831
   95SAPS   C21 9366   1.623   5.322   6.837 -0.3378 -1.1614  0.0467
   95SAPS   O22 9367   1.541   5.408   6.836 -0.2224 -0.5764 -0.3519
   95SAPS   C22 9368   1.696   5.294   6.966 -0.0168  0.2739 -0.1039
   95SAPS   H2R 9369   1.793   5.246   6.940 -0.0072 -0.3801  1.0812
   95SAPS   H2S 9370   1.712   5.388   7.023 -2.0148 -0.7170  2.1633
   95SAPS    C3 9371   1.477   5.160   6.605 -0.1138  0.3776 -0.1693
   95SAPS    HX 9372   1.532   5.071   6.641 -1.6015 -0.1498  0.8070
   95SAPS    HY 9373   1.452   5.130   6.501 -0.1705  0.7073 -0.2510
   95SAPS   O31 9374   1.364   5.189   6.684  0.0562  0.0298 -0.1048
   95SAPS   C31 9375   1.280   5.277   6.639 -0.3917  0.1439 -0.1926
   95SAPS   O32 9376   1.306   5.343   6.536 -0.2776 -0.4978 -0.5696
   95SAPS   C32 9377   1.155   5.275   6.723  0.5840 -1.3911  0.4056
   95SAPS   H2X 9378   1.099   5.178   6.726 -1.9252  0.0703  2.8035
   95SAPS   H2Y 9379   1.090   5.351   6.674 -0.3670 -1.7689  1.0598
   95SAPS   C23 9380   1.615   5.205   7.063  0.8918 -0.2126  0.7103
   95SAPS   H3R 9381   1.587   5.108   7.017 -0.8352 -0.2029  1.7237
   95SAPS   H3S 9382   1.531   5.271   7.093  1.7162  0.9280  0.5611
   95SAPS   C24 9383   1.713   5.177   7.180  0.1272  0.7191 -0.5355
   95SAPS   H4R 9384   1.728   5.261   7.251  0.2404 -0.8018  1.2893
   95SAPS   H4S 9385   1.809   5.140   7.139 -0.8550 -0.0925 -2.1342
   95SAPS   C25 9386   1.653   5.062   7.260  0.0172  0.1737  0.6439
   95SAPS   H5R 9387   1.691   4.964   7.228  3.4369 -0.1438  5.2820
   95SAPS   C26 9388   1.612   5.072   7.388  0.3313  0.8990  0.3839
   95SAPS   H6R 9389   1.584   4.976   7.435 -0.3751 -0.3186 -2.4075
   95SAPS   C27 9390   1.603   5.197   7.470  0.6471 -0.5041  0.2074
   95SAPS   H7R 9391   1.532   5.172   7.552  1.1315  0.4942  0.9574
   95SAPS   H7S 9392   1.555   5.273   7.406  1.9257  1.4638  1.5010
   95SAPS   C28 9393   1.732   5.249   7.522  0.1096 -0.4833  0.2946
   95SAPS   H8R 9394   1.787   5.313   7.451  0.6258 -0.3943  0.7665
   95SAPS   C29 9395   1.781   5.233   7.644 -0.4714  0.0778  0.6536
   95SAPS   H9R 9396   1.870   5.290   7.675 -1.4631  2.0364  0.0248
   95SAPS  C210 9397   1.728   5.158   7.758 -0.0899  0.0982 -1.0600
   95SAPS  H10R 9398   1.803   5.131   7.835 -2.3626 -0.5778  0.9622
   95SAPS  H10S 9399   1.680   5.060   7.736 -0.8771  0.5838 -1.4960
   95SAPS  C211 9400   1.630   5.245   7.832  0.5371 -0.7388  0.4670
   95SAPS  H11R 9401   1.554   5.299   7.774  0.5784 -0.0371  1.0598
   95SAPS  C212 9402   1.631   5.256   7.967 -0.3569  0.0015  0.4786
   95SAPS  H12R 9403   1.553   5.325   8.002  0.9431  2.0930 -0.6555
   95SAPS  C213 9404   1.713   5.184   8.068 -0.7892  0.3292  0.1734
   95SAPS  H13R 9405   1.709   5.245   8.161 -3.2777  3.0299 -1.6263
   95SAPS  H13S 9406   1.820   5.209   8.049 -1.1107  1.8344  0.2608
   95SAPS  C214 9407   1.689   5.037   8.073  0.0590 -0.7946  0.6926
   95SAPS  H14R 9408   1.659   4.988   7.980  2.3523  0.2683 -0.6459
   95SAPS  C215 9409   1.692   4.973   8.186  0.6394 -0.1835 -0.0887
   95SAPS  H15R 9410   1.673   4.865   8.187 -1.4524  0.1591  0.3247
   95SAPS  C216 9411   1.713   5.031   8.326 -0.9047  0.0987 -0.0476
   95SAPS  H16R 9412   1.696   5.141   8.327 -0.1432  0.2746 -2.8453
   95SAPS  H16S 9413   1.818   5.012   8.354 -1.1318  2.6733  2.8125
   95SAPS  C217 9414   1.618   4.972   8.431  0.6621  0.3254 -0.2521
   95SAPS  H17R 9415   1.614   4.861   8.436 -1.3434  0.3954  0.0189
   95SAPS  H17S 9416   1.520   5.001   8.388 -0.2303  1.0118  2.1564
   95SAPS  C218 9417   1.620   5.028   8.569  0.1930  0.4289  0.0060
   95SAPS  H18R 9418   1.546   4.981   8.637  1.1884 -0.4924  0.4656
   95SAPS  H18S 9419   1.584   5.133   8.571  1.2858  0.8081  0.2224
   95SAPS  C219 9420   1.752   5.011   8.649 -0.5922  0.4116  0.6729
   95SAPS  H19R 9421   1.836   5.047   8.587 -1.1626  0.1336 -0.2832
   95SAPS  H19S 9422   1.765   4.901   8.659  2.8503  0.6655 -0.5443
   95SAPS  C220 9423   1.728   5.078   8.790  0.1044 -0.5686 -0.3034
   95SAPS  H20R 9424   1.820   5.089   8.850 -0.5919 -0.1337  0.7148
   95SAPS  H20S 9425   1.647   5.025   8.846  0.5773 -1.3891 -0.3917
   95SAPS  H20T 9426   1.677   5.175   8.773  0.5190 -0.5679 -1.6044
   95SAPS   C33 9427   1.178   5.330   6.866 -0.1634 -0.5515 -0.9386
   95SAPS   H3X 9428   1.094   5.398   6.893 -1.2146 -1.8904 -0.7903
   95SAPS   H3Y 9429   1.274   5.387   6.871 -0.6946  0.4761 -2.1348
   95SAPS   C34 9430   1.170   5.210   6.972 -0.4596 -0.1436  0.2082
   95SAPS   H4X 9431   1.258   5.145   6.953 -0.4123 -0.7649  2.4426
   95SAPS   H4Y 9432   1.078   5.150   6.953 -0.9342  0.6991 -0.1718
   95SAPS   C35 9433   1.179   5.257   7.115 -0.7416 -0.4805  0.3387
   95SAPS   H5X 9434   1.081   5.305   7.136 -0.8648  0.1542 -1.6058
   95SAPS   H5Y 9435   1.252   5.339   7.134 -0.9761  0.0776 -1.1435
   95SAPS   C36 9436   1.187   5.143   7.218 -0.7011  0.7418 -0.4549
   95SAPS   H6X 9437   1.290   5.101   7.230 -0.9623  0.9255  3.0064
   95SAPS   H6Y 9438   1.121   5.061   7.183 -0.7678  0.0720  1.1495
   95SAPS   C37 9439   1.129   5.182   7.358  0.3615  0.7805 -0.3099
   95SAPS   H7X 9440   1.115   5.081   7.403 -0.5238  1.3194  0.6466
   95SAPS   H7Y 9441   1.032   5.236   7.358  0.8216  1.7335 -3.2205
   95SAPS   C38 9442   1.224   5.255   7.454 -0.2726 -0.3445  0.1769
   95SAPS   H8X 9443   1.272   5.343   7.406  0.0847 -0.5120  0.2256
   95SAPS   H8Y 9444   1.307   5.187   7.483 -0.3220 -0.8035 -0.7330
   95SAPS   C39 9445   1.148   5.289   7.583 -0.1250 -0.2945 -0.3800
   95SAPS   H9X 9446   1.040   5.310   7.564 -0.0274  0.0711 -0.5363
   95SAPS   H9Y 9447   1.190   5.385   7.620  1.0566 -0.6105 -0.8986
   95SAPS  C310 9448   1.165   5.190   7.699 -0.0795  0.2136  0.9543
   95SAPS  H10X 9449   1.274   5.168   7.694 -0.2002  0.1093 -1.8198
   95SAPS  H10Y 9450   1.106   5.099   7.676  0.1205 -0.0819  1.5998
   95SAPS  C311 9451   1.129   5.237   7.841  0.0946  0.2600  0.5683
   95SAPS  H11X 9452   1.123   5.149   7.908  1.0178  0.7281  1.2805
   95SAPS  H11Y 9453   1.035   5.295   7.832 -0.3649 -0.4877  0.5390
   95SAPS  C312 9454   1.252   5.317   7.897  0.2699  0.3302 -0.0778
   95SAPS  H12X 9455   1.298   5.393   7.829 -0.0861  0.6717  0.0562
   95SAPS  H12Y 9456   1.337   5.247   7.908 -0.9361 -0.9604  1.2473
   95SAPS  C313 9457   1.230   5.391   8.026  0.1513 -0.5744  0.9404
   95SAPS  H13X 9458   1.162   5.476   8.001  1.8985  0.9533  1.3206
   95SAPS  H13Y 9459   1.325   5.441   8.056  0.3440 -1.7155  2.2509
   95SAPS  C314 9460   1.182   5.317   8.151 -0.5982 -0.7070  0.1008
   95SAPS  H14X 9461   1.252   5.231   8.166 -0.0750 -0.3655 -0.3608
   95SAPS  H14Y 9462   1.088   5.268   8.119 -1.4722  1.4388 -0.6931
   95SAPS  C315 9463   1.169   5.402   8.270 -0.1470 -0.2243  0.3783
   95SAPS  H15X 9464   1.077   5.464   8.268 -1.3728 -1.9872  1.1210
   95SAPS  H15Y 9465   1.257   5.471   8.276  1.6345 -2.2294 -1.7254
   95SAPS  C316 9466   1.179   5.313   8.399 -0.1367 -0.0150  0.3602
   95SAPS  H16X 9467   1.282   5.273   8.389 -0.1741  0.4121 -2.0375
   95SAPS  H16Y 9468   1.108   5.228   8.392 -1.0239  0.7794 -0.3606
   95SAPS  C317 9469   1.172   5.398   8.530 -0.0601 -0.0375  0.5856
   95SAPS  H17X 9470   1.236   5.488   8.518 -0.1097 -0.2368 -1.2500
   95SAPS  H17Y 9471   1.218   5.335   8.609 -1.5475 -0.4188  1.1789
   95SAPS  C318 9472   1.028   5.438   8.580  0.0267 -0.3585  0.5688
   95SAPS  H18X 9473   0.971   5.343   8.591 -0.0362 -0.2269  1.4464
   95SAPS  H18Y 9474   0.985   5.500   8.499 -2.4568 -3.6867 -0.7953
   95SAPS  H18Z 9475   1.030   5.489   8.679 -1.5366 -1.8399  1.4113
   96SAPS     N 9476   1.983   5.910   6.336  0.3072 -0.5078 -0.5053
   96SAPS   HN1 9477   1.986   5.825   6.396 -4.2565 -1.8162 -1.9279
   96SAPS   HN2 9478   1.940   5.987   6.391  0.4766 -1.3276  0.7968
   96SAPS   HN3 9479   1.916   5.889   6.259  0.0626 -0.0030 -0.4308
   96SAPS   C12 9480   2.118   5.954   6.299 -0.1290  0.7061  0.0591
   96SAPS  H12A 9481   2.180   5.960   6.387 -1.3601 -2.1532  1.1574
   96SAPS   C13 9482   2.189   5.859   6.201  0.9010  0.0159  0.4412
   96SAPS  O13A 9483   2.129   5.770   6.134  0.0700 -0.6942 -0.5667
   96SAPS  O13B 9484   2.317   5.878   6.201  0.4016  0.5011 -0.2943
   96SAPS   C11 9485   2.101   6.096   6.226 -0.1884  0.2820  0.5480
   96SAPS  H11A 9486   2.020   6.093   6.151 -0.1409  2.6890  0.3550
   96SAPS  H11B 9487   2.192   6.120   6.167 -1.6368  1.4888 -1.2432
   96SAPS     P 9488   2.075   6.354   6.281  0.1664  0.4295  0.4557
   96SAPS   O13 9489   2.005   6.390   6.154 -0.3141  0.1892  0.0575
   96SAPS   O14 9490   2.024   6.428   6.394 -0.5708  0.3032 -0.4066
   96SAPS   O12 9491   2.064   6.197   6.317 -0.4681 -0.8544 -0.0591
   96SAPS   O11 9492   2.228   6.377   6.272  0.8833 -0.1280 -0.5212
   96SAPS    C1 9493   2.322   6.313   6.357 -1.5137  0.0456 -0.1147
   96SAPS    HA 9494   2.284   6.239   6.431  1.5673 -2.7195 -1.1939
   96SAPS    HB 9495   2.380   6.249   6.288  0.1874 -0.8558  2.1147
   96SAPS    C2 9496   2.416   6.414   6.426  0.8861 -0.5262 -0.5782
   96SAPS    HS 9497   2.495   6.352   6.474 -0.4754 -1.5589  0.3739
   96SAPS   O21 9498   2.328   6.483   6.530  0.1429 -0.3050 -0.0039
   96SAPS   C21 9499   2.297   6.419   6.639 -0.3818  0.6983 -0.0393
   96SAPS   O22 9500   2.337   6.309   6.677  0.8589 -0.0102  0.8543
   96SAPS   C22 9501   2.201   6.515   6.716 -0.2849  0.2176  0.1954
   96SAPS   H2R 9502   2.253   6.613   6.725  2.3299 -1.0420 -0.5556
   96SAPS   H2S 9503   2.111   6.521   6.652 -0.4897  1.2968  0.5822
   96SAPS    C3 9504   2.491   6.510   6.334 -0.5047  0.4643  0.4182
   96SAPS    HX 9505   2.423   6.583   6.286  2.3839  2.1586 -1.2369
   96SAPS    HY 9506   2.544   6.459   6.251  1.1885  0.8336  1.2460
   96SAPS   O31 9507   2.601   6.584   6.402 -0.3298  0.2952 -0.0307
   96SAPS   C31 9508   2.559   6.699   6.459  0.0138 -0.3425  0.3399
   96SAPS   O32 9509   2.443   6.736   6.448 -0.2465 -0.8423 -0.0519
   96SAPS   C32 9510   2.666   6.771   6.542  0.3922 -0.1242  0.1999
   96SAPS   H2X 9511   2.722   6.842   6.477  1.2700 -0.5046  0.5282
   96SAPS   H2Y 9512   2.733   6.693   6.586  0.2316 -0.6647 -0.4947
   96SAPS   C23 9513   2.179   6.464   6.863  0.2816 -0.0904 -0.0980
   96SAPS   H3R 9514   2.279   6.472   6.910 -0.5017 -0.1578  1.6214
   96SAPS   H3S 9515   2.155   6.357   6.880 -1.6292  0.5434  1.3366
   96SAPS   C24 9516   2.078   6.548   6.929  0.5766  0.7091  0.1035
   96SAPS   H4R 9517   2.104   6.656   6.915 -1.8454  1.4960  1.4684
   96SAPS   H4S 9518   2.088   6.527   7.038  0.6292 -2.1508 -0.4148
   96SAPS   C25 9519   1.939   6.518   6.889 -0.3357  0.0351  0.2719
   96SAPS   H5R 9520   1.920   6.509   6.781  0.0308  0.8805  0.1367
   96SAPS   C26 9521   1.834   6.512   6.965 -0.9211 -0.7475  0.0514
   96SAPS   H6R 9522   1.738   6.493   6.916  0.8023 -0.3355 -3.6430
   96SAPS   C27 9523   1.827   6.529   7.115  0.0550  0.1678 -0.0893
   96SAPS   H7R 9524   1.905   6.599   7.151 -0.1916  0.3659  0.0551
   96SAPS   H7S 9525   1.861   6.434   7.162  4.2706  2.0918  0.9858
   96SAPS   C28 9526   1.698   6.579   7.170 -0.7130  0.2412 -0.3409
   96SAPS   H8R 9527   1.629   6.624   7.097 -1.4317  0.2626  0.3353
   96SAPS   C29 9528   1.655   6.573   7.297  0.7048 -0.3952 -0.4898
   96SAPS   H9R 9529   1.549   6.597   7.315  0.2453 -0.4313 -3.0318
   96SAPS  C210 9530   1.739   6.508   7.400 -0.4683  0.1878  0.1790
   96SAPS  H10R 9531   1.724   6.565   7.494 -0.6065 -1.2712  1.0531
   96SAPS  H10S 9532   1.846   6.534   7.393 -0.8057  1.2010 -1.6402
   96SAPS  C211 9533   1.725   6.366   7.433  0.3391  0.1378  0.1405
   96SAPS  H11R 9534   1.754   6.300   7.349 -0.1676 -1.0882  0.9109
   96SAPS  C212 9535   1.682   6.317   7.542 -0.1002  0.7678 -0.3721
   96SAPS  H12R 9536   1.654   6.211   7.553 -3.8471  1.7062 -0.4522
   96SAPS  C213 9537   1.640   6.389   7.664  0.2088 -0.5610 -0.8252
   96SAPS  H13R 9538   1.566   6.328   7.720 -0.6619  1.9920  0.9270
   96SAPS  H13S 9539   1.573   6.472   7.634  0.8798 -0.5768 -2.4363
   96SAPS  C214 9540   1.739   6.447   7.764 -0.3164 -0.7753 -0.3231
   96SAPS  H14R 9541   1.768   6.550   7.737  0.4349 -0.0087  3.1570
   96SAPS  C215 9542   1.779   6.399   7.887 -0.5088 -0.0108  0.3270
   96SAPS  H15R 9543   1.857   6.453   7.943 -1.6284  1.0095  0.9437
   96SAPS  C216 9544   1.730   6.265   7.942  0.0060  0.0835  0.1231
   96SAPS  H16R 9545   1.815   6.195   7.957 -0.2914 -0.2837  0.0725
   96SAPS  H16S 9546   1.666   6.220   7.864 -2.9867  0.7950  2.0989
   96SAPS  C217 9547   1.658   6.270   8.082  0.4385  0.3404 -0.1342
   96SAPS  H17R 9548   1.662   6.168   8.127 -0.0202 -0.3566 -1.6650
   96SAPS  H17S 9549   1.550   6.293   8.067  1.1485  4.0267 -0.1105
   96SAPS  C218 9550   1.702   6.372   8.185 -0.7321  0.8284  0.3200
   96SAPS  H18R 9551   1.670   6.470   8.143 -3.2562 -0.0403  0.1264
   96SAPS  H18S 9552   1.812   6.378   8.200 -0.6108  2.0294 -0.9635
   96SAPS  C219 9553   1.634   6.359   8.317  0.2001 -0.3690 -0.2773
   96SAPS  H19R 9554   1.560   6.276   8.316 -0.0934 -0.1156  0.1412
   96SAPS  H19S 9555   1.578   6.449   8.350  0.2954 -0.7276  0.8735
   96SAPS  C220 9556   1.726   6.308   8.432 -0.1491 -0.2603  0.0207
   96SAPS  H20R 9557   1.758   6.202   8.419 -1.4285 -0.8613  1.6844
   96SAPS  H20S 9558   1.671   6.315   8.528 -0.2749 -0.4039 -0.0415
   96SAPS  H20T 9559   1.818   6.370   8.439 -0.6189  0.3293  1.1894
   96SAPS   C33 9560   2.586   6.842   6.655 -0.6572  0.3392 -0.0423
   96SAPS   H3X 9561   2.505   6.909   6.617 -1.0363 -0.3284 -0.4322
   96SAPS   H3Y 9562   2.659   6.913   6.700  0.2603 -0.5432 -0.1247
   96SAPS   C34 9563   2.515   6.764   6.766 -0.8750  0.0303  0.1932
   96SAPS   H4X 9564   2.482   6.669   6.720  0.7618  0.6570 -2.3892
   96SAPS   H4Y 9565   2.428   6.826   6.796 -0.2008  1.1501 -0.1173
   96SAPS   C35 9566   2.608   6.730   6.878  0.2841  0.6304  0.1965
   96SAPS   H5X 9567   2.623   6.834   6.912 -1.6214  1.5284 -1.6316
   96SAPS   H5Y 9568   2.704   6.683   6.849 -0.3074 -1.8308  2.0736
   96SAPS   C36 9569   2.547   6.638   6.992 -0.3393 -0.6902  0.1659
   96SAPS   H6X 9570   2.626   6.619   7.068 -0.6025 -0.1459  0.5741
   96SAPS   H6Y 9571   2.510   6.543   6.948  1.6270 -2.0784  1.4230
   96SAPS   C37 9572   2.432   6.713   7.069  0.3031  0.3212 -0.1416
   96SAPS   H7X 9573   2.334   6.716   7.016 -0.1170 -1.8952  0.4420
   96SAPS   H7Y 9574   2.468   6.814   7.098  0.5215  0.1184  0.2972
   96SAPS   C38 9575   2.404   6.638   7.194  0.6134 -0.6114  0.5499
   96SAPS   H8X 9576   2.496   6.634   7.257 -0.2924 -0.9710  1.8714
   96SAPS   H8Y 9577   2.387   6.532   7.166  2.1577 -0.7011 -0.1123
   96SAPS   C39 9578   2.279   6.690   7.263  0.4662 -1.3515 -0.0436
   96SAPS   H9X 9579   2.200   6.723   7.192  0.8070  1.0268  0.6314
   96SAPS   H9Y 9580   2.315   6.784   7.310 -2.1807 -0.4806  0.2759
   96SAPS  C310 9581   2.229   6.585   7.365  0.3164 -0.5964 -0.6812
   96SAPS  H10X 9582   2.310   6.524   7.410  0.9687 -0.2109 -1.3257
   96SAPS  H10Y 9583   2.147   6.530   7.314 -0.1525  1.3206 -2.0468
   96SAPS  C311 9584   2.167   6.670   7.479 -0.3170 -0.1863 -0.6171
   96SAPS  H11X 9585   2.103   6.754   7.445 -0.5443 -0.1593 -0.1303
   96SAPS  H11Y 9586   2.260   6.718   7.516 -1.0675  0.1103  0.9394
   96SAPS  C312 9587   2.084   6.593   7.587 -0.3682  0.6339  0.3994
   96SAPS  H12X 9588   2.145   6.502   7.608  1.5566  1.0016 -3.0766
   96SAPS  H12Y 9589   1.993   6.556   7.535  0.5789 -1.4896  0.1641
   96SAPS  C313 9590   2.067   6.671   7.713  0.1671 -0.3208 -0.6168
   96SAPS  H13X 9591   2.160   6.720   7.749  0.8787 -0.4123 -2.2819
   96SAPS  H13Y 9592   2.032   6.607   7.797  2.4200 -1.0660 -0.1937
   96SAPS  C314 9593   1.952   6.778   7.694 -0.1197 -0.0032  0.2805
   96SAPS  H14X 9594   1.853   6.729   7.677 -0.8223  1.8614 -1.1374
   96SAPS  H14Y 9595   1.982   6.849   7.614 -1.5248 -0.1675 -0.4147
   96SAPS  C315 9596   1.924   6.867   7.820 -0.0366 -0.0126  0.6613
   96SAPS  H15X 9597   1.832   6.924   7.796  0.4643  0.1345 -1.0173
   96SAPS  H15Y 9598   2.001   6.946   7.826  0.1307 -0.1469  0.3339
   96SAPS  C316 9599   1.916   6.793   7.948 -0.2318  0.1575 -0.8154
   96SAPS  H16X 9600   2.005   6.729   7.969 -0.2328  0.6446  0.7851
   96SAPS  H16Y 9601   1.827   6.727   7.940 -1.6940  1.4902  3.0724
   96SAPS  C317 9602   1.889   6.881   8.072 -0.2582 -0.5550  0.0952
   96SAPS  H17X 9603   1.798   6.941   8.053 -0.1927 -0.5839 -0.3245
   96SAPS  H17Y 9604   1.967   6.960   8.080 -1.3577  0.7000 -1.3065
   96SAPS  C318 9605   1.886   6.804   8.199 -0.0125 -0.2280  0.0235
   96SAPS  H18X 9606   1.828   6.857   8.278  1.4666  2.0074 -0.3432
   96SAPS  H18Y 9607   1.982   6.760   8.234 -1.3184 -1.9283  1.5672
   96SAPS  H18Z 9608   1.822   6.715   8.183 -0.7432  0.1285  0.8828
   97SAPS     N 9609   2.943   4.724   6.066  0.4585  0.0920 -0.1840
   97SAPS   HN1 9610   3.042   4.700   6.046  0.1112  0.4854 -2.5586
   97SAPS   HN2 9611   2.889   4.639   6.092 -1.4234  0.6770 -2.0480
   97SAPS   HN3 9612   2.895   4.752   5.978  0.8349  0.2275 -0.3458
   97SAPS   C12 9613   2.943   4.836   6.171  0.5364 -0.5670  0.1149
   97SAPS  H12A 9614   3.005   4.915   6.130  1.9725 -2.3734 -1.2770
   97SAPS   C13 9615   2.813   4.911   6.200 -1.0511 -0.0459  0.4287
   97SAPS  O13A 9616   2.730   4.914   6.101 -0.3466 -0.1138  0.0975
   97SAPS  O13B 9617   2.814   5.001   6.290 -0.4613 -0.4513  0.7339
   97SAPS   C11 9618   2.990   4.777   6.303 -0.0390 -1.0169 -0.0790
   97SAPS  H11A 9619   2.903   4.718   6.338 -2.8499  2.9827 -0.0243
   97SAPS  H11B 9620   3.008   4.859   6.376  0.2302 -2.7246  1.8173
   97SAPS     P 9621   3.160   4.608   6.402  0.1260  0.0928  0.0415
   97SAPS   O13 9622   3.135   4.474   6.346  0.1440 -0.2051  0.6408
   97SAPS   O14 9623   3.295   4.644   6.450  0.1318 -0.0416  0.2292
   97SAPS   O12 9624   3.111   4.704   6.290  0.1629  0.0300 -0.5843
   97SAPS   O11 9625   3.059   4.619   6.526 -0.1767  0.1488  0.0994
   97SAPS    C1 9626   3.061   4.706   6.641 -0.2098  0.3120  0.1679
   97SAPS    HA 9627   3.150   4.773   6.645  0.2958  0.0053 -3.9249
   97SAPS    HB 9628   2.980   4.781   6.628 -1.1416 -0.3410  2.0172
   97SAPS    C2 9629   3.043   4.625   6.770  0.1137 -0.8541  0.0512
   97SAPS    HS 9630   3.055   4.697   6.853 -0.3301 -1.0304  0.2661
   97SAPS   O21 9631   3.144   4.520   6.775 -0.1974  0.0551  0.2669
   97SAPS   C21 9632   3.275   4.558   6.779  0.0860  0.4666  1.1024
   97SAPS   O22 9633   3.307   4.670   6.807 -0.2092 -0.4190  0.1655
   97SAPS   C22 9634   3.374   4.448   6.743  0.4409  0.0505  0.2192
   97SAPS   H2R 9635   3.325   4.391   6.661 -0.6914  0.8192  0.3448
   97SAPS   H2S 9636   3.461   4.503   6.703 -0.1426  0.5643 -0.3523
   97SAPS    C3 9637   2.902   4.565   6.778 -0.2621  0.1904  0.0122
   97SAPS    HX 9638   2.898   4.466   6.728  1.9355 -0.9362  1.9335
   97SAPS    HY 9639   2.821   4.627   6.735  1.9945  2.5947 -0.9106
   97SAPS   O31 9640   2.873   4.534   6.919  0.4199 -0.1467  0.1338
   97SAPS   C31 9641   2.803   4.623   6.981 -0.1795 -0.4252  0.9500
   97SAPS   O32 9642   2.747   4.720   6.930  0.3789 -0.7314  0.5260
   97SAPS   C32 9643   2.792   4.599   7.129 -0.1803  0.0915 -0.5364
   97SAPS   H2X 9644   2.866   4.524   7.165  0.5829  0.5560 -1.1380
   97SAPS   H2Y 9645   2.687   4.576   7.158 -0.6114  1.5779 -0.8975
   97SAPS   C23 9646   3.426   4.355   6.858 -0.1272 -0.3757 -0.6087
   97SAPS   H3R 9647   3.331   4.309   6.893 -1.2469  1.8006 -0.7211
   97SAPS   H3S 9648   3.472   4.405   6.945 -0.0759 -0.9102 -0.3227
   97SAPS   C24 9649   3.527   4.241   6.817  0.3670 -0.3362 -0.1479
   97SAPS   H4R 9650   3.463   4.176   6.754 -3.4051  1.4734  1.6674
   97SAPS   H4S 9651   3.552   4.185   6.910 -0.7982 -0.2148  0.2526
   97SAPS   C25 9652   3.657   4.289   6.751  0.5720 -0.0697  0.2918
   97SAPS   H5R 9653   3.661   4.291   6.641  1.2518 -0.7554  0.2989
   97SAPS   C26 9654   3.766   4.319   6.821 -0.3632  0.0063  0.1530
   97SAPS   H6R 9655   3.863   4.347   6.777  0.4115 -0.7650  1.3341
   97SAPS   C27 9656   3.783   4.320   6.970 -0.6151  0.1084 -0.3120
   97SAPS   H7R 9657   3.690   4.350   7.022  1.3303  0.7667  2.9028
   97SAPS   H7S 9658   3.845   4.403   7.010 -3.7750  1.3700  2.1618
   97SAPS   C28 9659   3.837   4.193   7.021 -0.3327  0.4020 -0.1506
   97SAPS   H8R 9660   3.842   4.116   6.942 -1.4609 -0.7089  0.8391
   97SAPS   C29 9661   3.888   4.161   7.140 -0.2166 -0.2609 -0.2193
   97SAPS   H9R 9662   3.942   4.066   7.156 -0.8082 -0.8009 -1.3978
   97SAPS  C210 9663   3.901   4.259   7.256 -0.2467 -0.4669  0.4063
   97SAPS  H10R 9664   3.863   4.207   7.347  0.6874 -1.6983  0.1140
   97SAPS  H10S 9665   3.834   4.346   7.241 -1.5101 -1.1009  2.1131
   97SAPS  C211 9666   4.047   4.299   7.281  0.5400  0.1693  0.3618
   97SAPS  H11R 9667   4.111   4.317   7.193  0.8403 -0.8811  0.3634
   97SAPS  C212 9668   4.101   4.319   7.406 -0.6677  0.2779  0.3533
   97SAPS  H12R 9669   4.205   4.355   7.402 -1.4458  2.7645  1.4393
   97SAPS  C213 9670   4.032   4.310   7.542  0.5229 -0.4531 -0.3621
   97SAPS  H13R 9671   3.926   4.276   7.540  0.2258  0.4125  0.4737
   97SAPS  H13S 9672   4.027   4.411   7.588  2.5176 -0.0692 -0.9212
   97SAPS  C214 9673   4.094   4.203   7.627 -1.5469  0.3620  0.3385
   97SAPS  H14R 9674   4.097   4.100   7.588 -2.2537  0.2112  0.6828
   97SAPS  C215 9675   4.137   4.219   7.759 -0.1069 -0.5929  0.1300
   97SAPS  H15R 9676   4.173   4.134   7.820 -1.1655 -0.6259  0.7074
   97SAPS  C216 9677   4.116   4.347   7.840  0.8931 -0.6697 -0.1778
   97SAPS  H16R 9678   4.039   4.417   7.800 -0.6859 -1.4261  1.4575
   97SAPS  H16S 9679   4.211   4.404   7.833  0.1930  0.9143  2.4276
   97SAPS  C217 9680   4.082   4.348   7.991  0.9563 -0.0451  0.1704
   97SAPS  H17R 9681   3.988   4.290   8.003  0.6381  0.5677  0.7455
   97SAPS  H17S 9682   4.049   4.449   8.024  0.8437  0.2329 -0.7699
   97SAPS  C218 9683   4.194   4.288   8.080 -0.2941  0.1065 -0.0186
   97SAPS  H18R 9684   4.281   4.354   8.103 -0.8460  0.3907  1.2916
   97SAPS  H18S 9685   4.239   4.203   8.024  2.0537  1.9979 -1.1289
   97SAPS  C219 9686   4.138   4.245   8.223  0.4795  0.0097 -0.2382
   97SAPS  H19R 9687   4.219   4.197   8.283 -0.1904  0.8708  1.3803
   97SAPS  H19S 9688   4.054   4.174   8.207  0.6465 -0.5559  1.3178
   97SAPS  C220 9689   4.092   4.368   8.298  0.2825  0.5011 -0.0240
   97SAPS  H20R 9690   4.171   4.438   8.333 -0.2935  2.2980 -2.1584
   97SAPS  H20S 9691   4.047   4.330   8.392 -1.9498  0.2130 -1.1724
   97SAPS  H20T 9692   4.011   4.423   8.244 -1.2564 -2.8500 -1.2922
   97SAPS   C33 9693   2.800   4.723   7.224 -0.1478  0.3487 -1.1680
   97SAPS   H3X 9694   2.762   4.814   7.173  1.5558  3.8276  3.4472
   97SAPS   H3Y 9695   2.907   4.749   7.239 -0.8322  2.4544  0.2340
   97SAPS   C34 9696   2.734   4.706   7.368  0.6818 -0.1324  0.2114
   97SAPS   H4X 9697   2.770   4.613   7.415  0.6228  1.4481  3.4858
   97SAPS   H4Y 9698   2.624   4.721   7.368  0.7471  0.3556  0.3434
   97SAPS   C35 9699   2.784   4.816   7.463 -0.0255  0.6956  0.5018
   97SAPS   H5X 9700   2.774   4.913   7.410 -0.5434  0.6534  0.5104
   97SAPS   H5Y 9701   2.888   4.808   7.501  0.8687  1.2861 -1.7428
   97SAPS   C36 9702   2.695   4.823   7.591 -0.4389 -0.7411  0.5036
   97SAPS   H6X 9703   2.677   4.717   7.620 -0.0705 -0.5753  1.3454
   97SAPS   H6Y 9704   2.594   4.869   7.579 -1.3142 -2.7896 -0.2639
   97SAPS   C37 9705   2.769   4.899   7.707  0.1945 -0.0188  0.2295
   97SAPS   H7X 9706   2.693   4.935   7.780 -1.5978 -0.8059 -1.2103
   97SAPS   H7Y 9707   2.814   4.993   7.671 -1.6323  0.8289  0.0951
   97SAPS   C38 9708   2.868   4.819   7.794 -0.3092  0.0352  0.3985
   97SAPS   H8X 9709   2.920   4.887   7.865  1.1503  0.9802 -1.5286
   97SAPS   H8Y 9710   2.946   4.776   7.727 -0.5276 -1.0949  0.8460
   97SAPS   C39 9711   2.803   4.708   7.884 -0.3348  0.2857  0.6704
   97SAPS   H9X 9712   2.765   4.627   7.818  1.0118  1.0624 -1.1062
   97SAPS   H9Y 9713   2.724   4.767   7.936 -2.7255 -2.1920 -0.0067
   97SAPS  C310 9714   2.907   4.644   7.978 -0.7312  0.0511 -0.1922
   97SAPS  H10X 9715   2.866   4.620   8.079  0.6976 -1.0921  0.1333
   97SAPS  H10Y 9716   2.984   4.723   7.994 -1.8020  1.5575 -2.1883
   97SAPS  C311 9717   2.963   4.516   7.916  0.2320  0.3481  0.1117
   97SAPS  H11X 9718   2.981   4.548   7.812 -0.4754 -0.5267 -0.2878
   97SAPS  H11Y 9719   2.904   4.422   7.905  0.0129  0.3325  1.3131
   97SAPS  C312 9720   3.103   4.485   7.971  0.5372 -0.4641 -0.6739
   97SAPS  H12X 9721   3.171   4.571   7.954 -0.2074  0.3495  0.3463
   97SAPS  H12Y 9722   3.139   4.396   7.915 -1.9649 -0.9645 -1.5374
   97SAPS  C313 9723   3.115   4.454   8.118  0.1123 -0.2071 -0.3706
   97SAPS  H13X 9724   3.037   4.380   8.144 -1.7959  1.9649  0.2959
   97SAPS  H13Y 9725   3.085   4.542   8.178  1.1415 -0.0754 -0.0500
   97SAPS  C314 9726   3.258   4.407   8.160 -0.7378  0.2198 -0.7951
   97SAPS  H14X 9727   3.289   4.324   8.093  0.1495 -1.7058  1.8888
   97SAPS  H14Y 9728   3.267   4.379   8.267  0.8193 -0.9521 -1.1973
   97SAPS  C315 9729   3.361   4.518   8.130 -0.7078  0.4064 -0.7453
   97SAPS  H15X 9730   3.352   4.612   8.189  1.2997 -0.6773  1.3994
   97SAPS  H15Y 9731   3.361   4.533   8.020  0.0569  1.9088 -0.5544
   97SAPS  C316 9732   3.505   4.472   8.166  0.5771  0.3287 -0.2465
   97SAPS  H16X 9733   3.514   4.449   8.274  3.4736 -2.2892 -0.9806
   97SAPS  H16Y 9734   3.568   4.556   8.130 -1.0963  0.8133 -2.1841
   97SAPS  C317 9735   3.552   4.345   8.090  0.4737 -1.0739 -0.3526
   97SAPS  H17X 9736   3.526   4.361   7.983 -0.3427  1.3830  0.1683
   97SAPS  H17Y 9737   3.497   4.262   8.140 -0.3245  0.3862  1.2559
   97SAPS  C318 9738   3.702   4.347   8.097 -0.1474 -0.5707 -0.2085
   97SAPS  H18X 9739   3.736   4.342   8.202 -0.3924 -0.3972 -0.1207
   97SAPS  H18Y 9740   3.741   4.433   8.038  0.6898 -1.5520 -1.0999
   97SAPS  H18Z 9741   3.758   4.265   8.046  0.5691 -0.0208 -0.3114
   98SAPS     N 9742   0.906   4.695   6.191 -0.1693 -0.1853 -0.3142
   98SAPS   HN1 9743   0.968   4.689   6.275  0.6746  1.8973 -0.7383
   98SAPS   HN2 9744   0.823   4.755   6.208 -0.9747 -1.2660 -0.4299
   98SAPS   HN3 9745   0.876   4.596   6.179  1.4531 -1.0733  2.4836
   98SAPS   C12 9746   0.986   4.742   6.068  0.3735 -0.2680  0.1993
   98SAPS  H12A 9747   1.055   4.662   6.048  1.9881  0.8576  1.1630
   98SAPS   C13 9748   0.897   4.776   5.946  0.1389 -0.6445  0.3146
   98SAPS  O13A 9749   0.771   4.765   5.953  0.8182 -0.4650 -0.2539
   98SAPS  O13B 9750   0.955   4.785   5.839 -0.4180  0.2638 -0.2913
   98SAPS   C11 9751   1.069   4.868   6.102 -0.3353  0.0077  0.1692
   98SAPS  H11A 9752   1.009   4.961   6.105 -2.8221 -1.5667  2.5338
   98SAPS  H11B 9753   1.149   4.866   6.026 -0.3447 -0.9799  0.1795
   98SAPS     P 9754   1.284   4.907   6.247 -0.3239  0.2387 -0.4615
   98SAPS   O13 9755   1.365   4.844   6.138  0.3227  0.0843 -0.8373
   98SAPS   O14 9756   1.294   5.055   6.244 -0.0399  0.0820 -0.1849
   98SAPS   O12 9757   1.130   4.864   6.234  0.1090  0.0159  0.0926
   98SAPS   O11 9758   1.332   4.848   6.385  0.3457 -0.0216 -0.1302
   98SAPS    C1 9759   1.275   4.734   6.456  0.1869 -0.0389 -0.6011
   98SAPS    HA 9760   1.195   4.681   6.400 -0.0416  0.5697 -0.8497
   98SAPS    HB 9761   1.351   4.654   6.475  1.4705  0.2655 -3.9714
   98SAPS    C2 9762   1.222   4.779   6.600  1.1075 -0.8020  0.8265
   98SAPS    HS 9763   1.187   4.689   6.655 -1.0582  1.7108  3.7221
   98SAPS   O21 9764   1.122   4.884   6.583 -0.5382  1.2918  0.0450
   98SAPS   C21 9765   1.013   4.857   6.519 -0.4353 -0.4662 -0.3322
   98SAPS   O22 9766   0.976   4.740   6.487 -0.3756 -0.3242  1.0872
   98SAPS   C22 9767   0.941   4.987   6.489  0.5334  0.3262 -0.1577
   98SAPS   H2R 9768   0.970   5.062   6.566  1.7876  0.2992 -0.5931
   98SAPS   H2S 9769   0.975   5.032   6.394 -1.4457  1.1084 -0.5114
   98SAPS    C3 9770   1.341   4.835   6.683  0.1530  0.3553 -0.4217
   98SAPS    HX 9771   1.359   4.939   6.650 -1.5521  1.4714  1.9621
   98SAPS    HY 9772   1.429   4.769   6.666  0.0094  0.4389 -1.5295
   98SAPS   O31 9773   1.309   4.842   6.822 -0.2754 -0.0644  0.0398
   98SAPS   C31 9774   1.413   4.861   6.902  0.5658 -1.0238 -0.2901
   98SAPS   O32 9775   1.526   4.868   6.862  0.3058 -0.2528 -0.2080
   98SAPS   C32 9776   1.363   4.851   7.044 -0.4755  0.3435 -0.1316
   98SAPS   H2X 9777   1.259   4.890   7.047 -0.0585  1.4317  0.3552
   98SAPS   H2Y 9778   1.424   4.920   7.107  3.3372 -3.2907  0.3302
   98SAPS   C23 9779   0.792   4.979   6.472 -0.4693 -0.7769 -0.0651
   98SAPS   H3R 9780   0.767   4.896   6.403  0.2056 -2.8813  2.1163
   98SAPS   H3S 9781   0.745   5.070   6.428 -0.7917 -1.0521 -0.2953
   98SAPS   C24 9782   0.727   4.941   6.604 -0.5896 -0.0589  0.7167
   98SAPS   H4R 9783   0.759   5.015   6.681  0.4934 -0.1899  0.4027
   98SAPS   H4S 9784   0.763   4.841   6.634  0.1749 -0.4965 -1.6056
   98SAPS   C25 9785   0.573   4.941   6.588  0.1781 -0.3164  0.4842
   98SAPS   H5R 9786   0.538   4.963   6.486 -0.4624  0.5477  0.8860
   98SAPS   C26 9787   0.482   4.931   6.681  0.2341  1.1575 -0.2068
   98SAPS   H6R 9788   0.375   4.912   6.664  1.0166 -3.1394 -0.9635
   98SAPS   C27 9789   0.523   4.930   6.823  0.3231  0.5003 -0.2239
   98SAPS   H7R 9790   0.462   5.004   6.880 -1.7022 -1.6778  0.5392
   98SAPS   H7S 9791   0.628   4.960   6.840 -0.1922  1.7497  0.8939
   98SAPS   C28 9792   0.504   4.787   6.876 -0.1666 -0.3360  0.1417
   98SAPS   H8R 9793   0.550   4.710   6.812  1.6296 -0.6854  1.7874
   98SAPS   C29 9794   0.441   4.736   6.980 -0.5321  0.9619 -0.9677
   98SAPS   H9R 9795   0.458   4.634   7.018 -0.9718  1.0765 -0.4543
   98SAPS  C210 9796   0.369   4.828   7.079 -0.2497  0.0744  0.3340
   98SAPS  H10R 9797   0.333   4.920   7.027  3.5196  1.5945  0.3122
   98SAPS  H10S 9798   0.432   4.863   7.163  1.2402 -1.1498 -0.2606
   98SAPS  C211 9799   0.254   4.745   7.135 -0.1784 -0.0175 -0.0643
   98SAPS  H11R 9800   0.197   4.696   7.056  1.8837 -1.5654 -0.6221
   98SAPS  C212 9801   0.208   4.740   7.261  0.1946 -0.1327 -0.0184
   98SAPS  H12R 9802   0.128   4.669   7.285  0.1964  0.6081  2.2625
   98SAPS  C213 9803   0.273   4.810   7.383 -0.2766 -0.1496  0.1194
   98SAPS  H13R 9804   0.377   4.839   7.357 -0.4386 -0.2238 -0.6233
   98SAPS  H13S 9805   0.279   4.739   7.469  0.0414 -1.1317 -0.6995
   98SAPS  C214 9806   0.185   4.928   7.417 -0.3509 -0.7928  0.4676
   98SAPS  H14R 9807   0.095   4.944   7.356 -1.8972  0.9214  3.1440
   98SAPS  C215 9808   0.218   5.016   7.513 -0.7443  0.0282  0.2250
   98SAPS  H15R 9809   0.139   5.091   7.529 -0.1915  0.1473  2.5945
   98SAPS  C216 9810   0.334   5.018   7.615  0.1313 -0.9203  0.2502
   98SAPS  H16R 9811   0.366   5.122   7.634  0.5625 -0.8312 -0.8921
   98SAPS  H16S 9812   0.427   4.975   7.571  1.0485  1.5312 -0.2965
   98SAPS  C217 9813   0.293   4.932   7.735  0.0220  0.7479  0.0699
   98SAPS  H17R 9814   0.283   4.824   7.711 -1.4831  0.5776  1.3438
   98SAPS  H17S 9815   0.198   4.972   7.777 -1.4347 -0.8566 -1.5808
   98SAPS  C218 9816   0.393   4.943   7.847 -0.1444 -0.4343 -0.3292
   98SAPS  H18R 9817   0.415   5.052   7.853  1.7786 -0.7899 -0.5295
   98SAPS  H18S 9818   0.496   4.908   7.826  0.5198  0.2668  1.6443
   98SAPS  C219 9819   0.352   4.871   7.983 -0.6109  0.0983 -0.3054
   98SAPS  H19R 9820   0.446   4.868   8.042 -1.9100  4.8961  2.2218
   98SAPS  H19S 9821   0.323   4.764   7.968 -2.1846  0.4704  0.0662
   98SAPS  C220 9822   0.236   4.947   8.044  0.5574  0.0793  0.5052
   98SAPS  H20R 9823   0.267   5.053   8.062  1.1614 -0.4121  2.5083
   98SAPS  H20S 9824   0.201   4.924   8.147  0.0478  0.4817  0.4243
   98SAPS  H20T 9825   0.150   4.953   7.975  1.7259 -1.7587 -1.1415
   98SAPS   C33 9826   1.347   4.712   7.102 -0.0295  0.6269  0.2970
   98SAPS   H3X 9827   1.451   4.673   7.095 -0.0299  0.6670  0.0607
   98SAPS   H3Y 9828   1.288   4.643   7.038  0.8503  1.0956 -1.0450
   98SAPS   C34 9829   1.284   4.712   7.240  0.5170 -0.3616 -0.6089
   98SAPS   H4X 9830   1.258   4.612   7.280 -0.2856 -0.4276 -1.2739
   98SAPS   H4Y 9831   1.190   4.770   7.232  0.1151 -0.8999  0.1420
   98SAPS   C35 9832   1.366   4.779   7.353 -0.2801  0.8869 -0.6624
   98SAPS   H5X 9833   1.401   4.882   7.330 -2.6679  1.3337 -2.4625
   98SAPS   H5Y 9834   1.465   4.733   7.375 -0.6315  1.1342  1.5414
   98SAPS   C36 9835   1.297   4.779   7.486 -0.0855 -0.3723 -1.0701
   98SAPS   H6X 9836   1.274   4.673   7.512 -1.0689 -0.2441 -1.3993
   98SAPS   H6Y 9837   1.195   4.819   7.469  0.1327  1.2580  1.3083
   98SAPS   C37 9838   1.369   4.864   7.601 -0.3281  0.1521 -0.2341
   98SAPS   H7X 9839   1.378   4.972   7.574  0.3981 -0.3881 -2.2442
   98SAPS   H7Y 9840   1.472   4.825   7.587 -0.7190 -1.2152  0.6001
   98SAPS   C38 9841   1.309   4.854   7.748 -0.1026 -0.3879  0.2173
   98SAPS   H8X 9842   1.275   4.751   7.773  0.9863 -0.5040  1.2302
   98SAPS   H8Y 9843   1.232   4.933   7.755 -0.6331 -0.9214  0.4519
   98SAPS   C39 9844   1.421   4.887   7.844  0.2604 -0.7149 -0.3851
   98SAPS   H9X 9845   1.428   4.998   7.833  0.2259 -0.7328 -0.5886
   98SAPS   H9Y 9846   1.512   4.838   7.805  2.8432  2.0766  1.8875
   98SAPS  C310 9847   1.396   4.851   7.990 -0.0498 -0.0113  0.4007
   98SAPS  H10X 9848   1.494   4.849   8.042  0.8755  0.6364 -1.2873
   98SAPS  H10Y 9849   1.362   4.745   7.998  0.1672 -0.1838 -0.8629
   98SAPS  C311 9850   1.308   4.935   8.073 -0.2742  0.9485  0.0038
   98SAPS  H11X 9851   1.203   4.934   8.038 -0.5790 -0.0392  0.9067
   98SAPS  H11Y 9852   1.347   5.039   8.071 -0.0301  0.8400 -1.0881
   98SAPS  C312 9853   1.294   4.887   8.218  0.0878  0.0497  0.2357
   98SAPS  H12X 9854   1.396   4.864   8.256 -0.4142 -0.3520  1.3408
   98SAPS  H12Y 9855   1.245   4.787   8.215  3.4654 -1.6830 -0.1733
   98SAPS  C313 9856   1.228   4.988   8.313 -0.5103  0.1753 -0.2015
   98SAPS  H13X 9857   1.142   5.034   8.259  0.0985  1.5049 -0.0725
   98SAPS  H13Y 9858   1.306   5.062   8.341  0.6994 -1.2699  0.2999
   98SAPS  C314 9859   1.172   4.918   8.442 -0.1614  0.2434 -0.8086
   98SAPS  H14X 9860   1.139   4.816   8.410  0.0350 -0.1684  0.3015
   98SAPS  H14Y 9861   1.074   4.961   8.472  0.2140 -0.6595  1.7719
   98SAPS  C315 9862   1.263   4.909   8.559  0.0643 -0.2366  0.2826
   98SAPS  H15X 9863   1.284   5.008   8.606  2.4555 -1.5153  2.0020
   98SAPS  H15Y 9864   1.357   4.866   8.520  0.8005  1.5021  0.0937
   98SAPS  C316 9865   1.212   4.817   8.662  0.7978  0.1223  0.4656
   98SAPS  H16X 9866   1.174   4.722   8.620 -0.3051  0.8542 -0.2294
   98SAPS  H16Y 9867   1.122   4.859   8.712 -1.1267 -1.3523 -1.6520
   98SAPS  C317 9868   1.326   4.789   8.755  0.1884  0.4443 -0.1389
   98SAPS  H17X 9869   1.374   4.885   8.784  0.7850  0.9731 -2.7580
   98SAPS  H17Y 9870   1.402   4.729   8.701  0.0917 -0.7551  1.0216
   98SAPS  C318 9871   1.288   4.705   8.876 -0.4967 -0.2046  0.1114
   98SAPS  H18X 9872   1.214   4.627   8.848 -0.7938 -0.1555  0.7581
   98SAPS  H18Y 9873   1.254   4.768   8.960 -1.4942  0.0396 -0.4771
   98SAPS  H18Z 9874   1.383   4.650   8.896 -0.4207 -0.0181  0.2555
   99SAPS     N 9875   0.051   3.011   6.217  0.1986 -0.7145  0.1370
   99SAPS   HN1 9876   0.068   3.111   6.238  2.6551 -1.3137  1.1840
   99SAPS   HN2 9877  -0.003   2.986   6.302  0.8062 -0.5238  0.5797
   99SAPS   HN3 9878   0.146   2.969   6.204  0.2886 -0.7878  1.0182
   99SAPS   C12 9879  -0.030   2.988   6.095  0.2418  0.4853  0.4493
   99SAPS  H12A 9880  -0.132   3.021   6.112  0.4522  2.3226 -1.6346
   99SAPS   C13 9881   0.016   3.067   5.974 -0.1829  0.1148  0.3124
   99SAPS  O13A 9882   0.120   3.132   5.966  0.2019 -0.1269 -0.5416
   99SAPS  O13B 9883  -0.052   3.058   5.867  0.2074 -0.2225 -0.1927
   99SAPS   C11 9884  -0.034   2.837   6.064 -0.0269  0.3759 -0.2295
   99SAPS  H11A 9885   0.072   2.804   6.066 -0.3282 -0.6134 -0.1447
   99SAPS  H11B 9886  -0.071   2.828   5.960  0.2618  1.4028 -0.4277
   99SAPS     P 9887  -0.134   2.612   6.159 -0.1663  0.0995  0.0107
   99SAPS   O13 9888  -0.276   2.572   6.136 -0.0345  0.2290 -0.1899
   99SAPS   O14 9889  -0.029   2.556   6.068  0.2009  0.0190  0.3785
   99SAPS   O12 9890  -0.118   2.768   6.157  0.1581  0.4611  0.1336
   99SAPS   O11 9891  -0.089   2.563   6.300 -0.2246 -0.8314  0.0929
   99SAPS    C1 9892  -0.037   2.651   6.395  0.3319  0.9167 -0.0415
   99SAPS    HA 9893   0.060   2.697   6.364  1.5550 -0.4290  1.6669
   99SAPS    HB 9894  -0.107   2.737   6.406 -3.1243 -1.9325  0.9436
   99SAPS    C2 9895  -0.014   2.583   6.532 -0.4379 -0.4792  0.5630
   99SAPS    HS 9896   0.050   2.497   6.503 -1.3814 -0.6574 -1.0904
   99SAPS   O21 9897  -0.134   2.530   6.591 -0.0914  0.4009 -0.1766
   99SAPS   C21 9898  -0.106   2.434   6.678 -0.5505  0.0148 -0.8560
   99SAPS   O22 9899   0.001   2.376   6.692  0.7677 -0.0215 -0.5233
   99SAPS   C22 9900  -0.233   2.399   6.757 -0.8951  0.0806  0.5725
   99SAPS   H2R 9901  -0.296   2.488   6.781 -0.7787  0.2564  0.2162
   99SAPS   H2S 9902  -0.301   2.334   6.699  0.7890 -0.3282 -0.9543
   99SAPS    C3 9903   0.063   2.684   6.623 -0.1194 -0.6660 -0.2612
   99SAPS    HX 9904  -0.014   2.755   6.659 -0.0860 -1.4052  1.3119
   99SAPS    HY 9905   0.130   2.746   6.560 -0.2270 -1.5142 -1.2152
   99SAPS   O31 9906   0.121   2.628   6.742  0.2086  0.4778 -0.2482
   99SAPS   C31 9907   0.238   2.561   6.732  0.0332  0.4593 -0.6829
   99SAPS   O32 9908   0.307   2.555   6.635  0.5182  0.5960  0.2421
   99SAPS   C32 9909   0.272   2.499   6.865 -0.0431  0.4420  0.0711
   99SAPS   H2X 9910   0.204   2.412   6.883 -0.2833  0.6987  0.4096
   99SAPS   H2Y 9911   0.248   2.572   6.945 -3.6720 -1.6085  0.9811
   99SAPS   C23 9912  -0.209   2.329   6.888 -0.1672 -0.2170  0.0482
   99SAPS   H3R 9913  -0.145   2.394   6.951 -1.3765  2.5434 -1.5229
   99SAPS   H3S 9914  -0.147   2.237   6.874 -1.5621 -1.0647 -0.6877
   99SAPS   C24 9915  -0.329   2.300   6.978 -0.1984 -0.4026 -1.0461
   99SAPS   H4R 9916  -0.288   2.245   7.065 -1.5637  1.4399  0.8268
   99SAPS   H4S 9917  -0.386   2.229   6.914  0.1106 -0.6726 -1.0196
   99SAPS   C25 9918  -0.418   2.417   7.014 -0.3898  0.7058  0.5165
   99SAPS   H5R 9919  -0.479   2.458   6.932 -1.1180 -0.0261  0.6833
   99SAPS   C26 9920  -0.435   2.475   7.137 -0.1522  0.9800  0.3769
   99SAPS   H6R 9921  -0.517   2.545   7.160 -0.2045  0.7208  0.9860
   99SAPS   C27 9922  -0.349   2.425   7.252  0.5416  0.4629 -0.0527
   99SAPS   H7R 9923  -0.249   2.402   7.209  0.3607  1.1362 -0.8346
   99SAPS   H7S 9924  -0.379   2.323   7.282  2.0240 -0.6099 -2.1300
   99SAPS   C28 9925  -0.329   2.520   7.377 -0.0624 -0.5349 -0.9920
   99SAPS   H8R 9926  -0.305   2.622   7.343 -1.4345  0.1939  0.2110
   99SAPS   C29 9927  -0.346   2.486   7.508  0.5801  0.8239 -0.5626
   99SAPS   H9R 9928  -0.328   2.552   7.594 -0.4062 -0.2002  0.4444
   99SAPS  C210 9929  -0.387   2.348   7.552  0.0547 -0.7039  0.8465
   99SAPS  H10R 9930  -0.305   2.275   7.536  0.7845  0.3392 -0.2755
   99SAPS  H10S 9931  -0.467   2.314   7.483  1.6084 -0.2551 -1.2356
   99SAPS  C211 9932  -0.438   2.327   7.691 -1.1402 -0.2932  0.4991
   99SAPS  H11R 9933  -0.541   2.289   7.701 -1.7301  1.5268  1.6481
   99SAPS  C212 9934  -0.375   2.342   7.807  0.2467  0.2570  0.3381
   99SAPS  H12R 9935  -0.432   2.326   7.900 -1.2088  0.1171 -0.5561
   99SAPS  C213 9936  -0.233   2.393   7.831  0.7753  0.1769  0.5018
   99SAPS  H13R 9937  -0.239   2.471   7.909  3.9226  0.0583  0.9290
   99SAPS  H13S 9938  -0.184   2.429   7.738  0.5667  0.0912  0.3580
   99SAPS  C214 9939  -0.139   2.287   7.886  0.1210  0.0466  0.0258
   99SAPS  H14R 9940  -0.135   2.207   7.811  3.0695 -0.0903  0.2602
   99SAPS  C215 9941  -0.061   2.294   7.994 -0.1495  0.3062  0.5348
   99SAPS  H15R 9942   0.001   2.210   8.028 -0.6350  0.1004  0.9112
   99SAPS  C216 9943  -0.048   2.403   8.102 -0.6933 -0.0042  0.3432
   99SAPS  H16R 9944  -0.136   2.471   8.093 -0.4910  0.0653 -1.2509
   99SAPS  H16S 9945   0.045   2.461   8.085  1.1864 -3.1748 -0.5431
   99SAPS  C217 9946  -0.046   2.342   8.243 -0.1796  0.0134  0.9173
   99SAPS  H17R 9947   0.052   2.291   8.247 -0.2444 -0.1463  0.5493
   99SAPS  H17S 9948  -0.130   2.273   8.266 -0.0183 -0.1261  1.0861
   99SAPS  C218 9949  -0.049   2.451   8.346 -0.4675  0.2394 -0.5464
   99SAPS  H18R 9950  -0.121   2.521   8.299  0.5094  0.9696 -0.9582
   99SAPS  H18S 9951   0.045   2.508   8.333  1.3047 -2.4886 -0.2714
   99SAPS  C219 9952  -0.074   2.403   8.486 -0.3683 -0.4076  0.2777
   99SAPS  H19R 9953  -0.070   2.492   8.551 -2.6413 -0.0291 -0.0536
   99SAPS  H19S 9954  -0.002   2.328   8.526  0.5636  1.5436  2.3898
   99SAPS  C220 9955  -0.214   2.348   8.508  0.3380 -0.8399  0.2404
   99SAPS  H20R 9956  -0.249   2.268   8.439  0.6430  0.7832 -1.8545
   99SAPS  H20S 9957  -0.285   2.434   8.504 -0.6567 -1.6839 -0.4667
   99SAPS  H20T 9958  -0.221   2.299   8.607 -0.4627  1.4820  1.3777
   99SAPS   C33 9959   0.420   2.455   6.861  0.6753 -0.7033 -0.4269
   99SAPS   H3X 9960   0.482   2.545   6.844  0.0627 -0.3107 -0.5990
   99SAPS   H3Y 9961   0.418   2.384   6.775  0.0847  0.0079 -1.0118
   99SAPS   C34 9962   0.470   2.377   6.982 -0.1524  0.3750  0.0714
   99SAPS   H4X 9963   0.576   2.351   6.962  0.2575 -0.1039  2.6524
   99SAPS   H4Y 9964   0.425   2.275   6.984 -1.3205  0.9031  1.3931
   99SAPS   C35 9965   0.460   2.458   7.113  0.1844  0.4876 -0.1648
   99SAPS   H5X 9966   0.357   2.436   7.150  0.8459  0.3453  1.6232
   99SAPS   H5Y 9967   0.465   2.565   7.082  2.2549  0.9664  1.7263
   99SAPS   C36 9968   0.569   2.429   7.216 -0.3287  0.0909 -0.7186
   99SAPS   H6X 9969   0.661   2.468   7.166  0.5052 -1.3878 -0.3854
   99SAPS   H6Y 9970   0.589   2.320   7.224 -0.7218  0.1400  1.1233
   99SAPS   C37 9971   0.556   2.492   7.350  0.7400 -1.0420 -0.9345
   99SAPS   H7X 9972   0.463   2.456   7.400 -0.9552  0.4070 -2.9643
   99SAPS   H7Y 9973   0.555   2.603   7.361 -0.9867 -1.1925  0.7900
   99SAPS   C38 9974   0.660   2.447   7.453 -0.9095 -0.1367 -0.2411
   99SAPS   H8X 9975   0.761   2.478   7.417 -1.0842 -0.9181 -1.4452
   99SAPS   H8Y 9976   0.661   2.336   7.462  1.6743 -0.0418  1.1771
   99SAPS   C39 9977   0.626   2.507   7.595 -0.9845 -0.4332  0.8508
   99SAPS   H9X 9978   0.520   2.482   7.617 -1.5249  0.8834 -0.1700
   99SAPS   H9Y 9979   0.634   2.618   7.585 -1.1626 -0.5650 -0.9821
   99SAPS  C310 9980   0.729   2.472   7.710  0.0232  0.2164  0.1160
   99SAPS  H10X 9981   0.828   2.499   7.667 -0.2019 -4.0480 -3.4354
   99SAPS  H10Y 9982   0.739   2.363   7.729 -1.1685  0.5751  3.1545
   99SAPS  C311 9983   0.702   2.540   7.847 -0.3967 -0.0323 -0.2241
   99SAPS  H11X 9984   0.606   2.499   7.886  0.0680  0.8919  1.8968
   99SAPS  H11Y 9985   0.686   2.647   7.819 -1.7034 -0.5654 -1.6514
   99SAPS  C312 9986   0.820   2.539   7.953 -0.2597 -0.3748  0.4579
   99SAPS  H12X 9987   0.906   2.590   7.904 -1.3095  0.8644 -0.1262
   99SAPS  H12Y 9988   0.848   2.431   7.946  1.5453  0.2158 -1.9573
   99SAPS  C313 9989   0.773   2.583   8.091 -0.0219  0.4085  0.1710
   99SAPS  H13X 9990   0.689   2.515   8.118 -0.1733 -0.1615 -1.6465
   99SAPS  H13Y 9991   0.735   2.687   8.085  1.7369  0.9654 -2.2093
   99SAPS  C314 9992   0.878   2.574   8.204  0.6257  0.3677  0.1724
   99SAPS  H14X 9993   0.872   2.472   8.246 -1.2482 -0.9380 -3.1039
   99SAPS  H14Y 9994   0.847   2.641   8.288 -0.6187 -0.1614  0.1466
   99SAPS  C315 9995   1.028   2.588   8.168  0.1275 -0.1285  0.3915
   99SAPS  H15X 9996   1.058   2.508   8.098  0.3103  0.4852 -0.2309
   99SAPS  H15Y 9997   1.084   2.582   8.264  0.6085  2.9477  0.3659
   99SAPS  C316 9998   1.067   2.725   8.103  0.3295 -0.2968 -0.0619
   99SAPS  H16X 9999   1.046   2.800   8.182 -0.0231 -0.2906 -0.1596
   99SAPS  H16Y10000   1.012   2.753   8.010  1.6822  1.5475 -0.3438
   99SAPS  C31710001   1.221   2.737   8.078  0.3455  0.3807  0.0145
   99SAPS  H17X10002   1.255   2.659   8.006  0.5789 -0.1422  0.6834
   99SAPS  H17Y10003   1.274   2.710   8.172 -0.7293  1.7895  1.0489
   99SAPS  C31810004   1.251   2.873   8.029  0.8924 -0.4115 -0.3557
   99SAPS  H18X10005   1.231   2.954   8.103  0.4503 -0.7445 -0.1090
   99SAPS  H18Y10006   1.184   2.908   7.948 -0.3285 -1.1204  0.3342
   99SAPS  H18Z10007   1.353   2.885   7.985  1.0329  1.3909  0.4094
  100SAPS     N10008   2.938   4.315   6.326  0.0083  0.2645 -0.4044
  100SAPS   HN110009   2.851   4.345   6.375 -1.0924 -0.2542 -1.9614
  100SAPS   HN210010   2.955   4.226   6.377 -1.1115  0.2039 -0.1181
  100SAPS   HN310011   3.017   4.382   6.323 -0.1096  0.5354  1.9375
  100SAPS   C1210012   2.886   4.276   6.189 -0.1358  1.0647 -0.4561
  100SAPS  H12A10013   2.804   4.206   6.200  1.1903 -0.8269 -2.2844
  100SAPS   C1310014   2.839   4.398   6.105 -0.1589 -0.6594  0.0265
  100SAPS  O13A10015   2.821   4.507   6.167  0.3384 -0.5386 -0.8966
  100SAPS  O13B10016   2.788   4.385   5.993  0.3094  0.0745  0.0627
  100SAPS   C1110017   2.990   4.191   6.119  0.2540  0.6774  0.5595
  100SAPS  H11A10018   3.087   4.245   6.124  1.8241 -2.1017  1.2235
  100SAPS  H11B10019   2.953   4.181   6.015  1.2256  0.8046  0.1931
  100SAPS     P10020   3.127   3.998   6.223  0.2289 -0.0342 -0.2053
  100SAPS   O1310021   3.194   3.951   6.100  0.1527  0.1089  0.5687
  100SAPS   O1410022   3.212   4.088   6.302 -0.7655  0.9023 -0.2239
  100SAPS   O1210023   2.989   4.065   6.185 -0.1526 -0.4952 -0.2640
  100SAPS   O1110024   3.088   3.878   6.312 -0.3067 -0.0502 -0.7621
  100SAPS    C110025   2.961   3.872   6.378 -0.1847  0.0771 -0.2901
  100SAPS    HA10026   2.904   3.967   6.371  2.7632  1.9580  0.3219
  100SAPS    HB10027   2.902   3.792   6.329  0.2405 -0.7394  0.5114
  100SAPS    C210028   2.981   3.848   6.531  0.6213 -0.6162  0.0306
  100SAPS    HS10029   2.879   3.859   6.574  0.3037 -1.4228 -0.5010
  100SAPS   O2110030   3.072   3.938   6.596 -0.0934 -0.4453 -0.0410
  100SAPS   C2110031   3.052   4.074   6.582  0.7970  0.1351 -0.5876
  100SAPS   O2210032   2.953   4.131   6.536  0.5449 -0.1289  0.0484
  100SAPS   C2210033   3.163   4.150   6.641  0.1835  0.5622 -0.0263
  100SAPS   H2R10034   3.263   4.136   6.595  1.0943  0.6441  1.8456
  100SAPS   H2S10035   3.137   4.257   6.629  2.0425  1.1516  0.8985
  100SAPS    C310036   3.019   3.698   6.554  0.7323 -0.3963 -0.5842
  100SAPS    HX10037   3.127   3.692   6.532  0.8087  1.9445 -1.0416
  100SAPS    HY10038   2.969   3.641   6.473 -0.9496 -0.0757  0.2042
  100SAPS   O3110039   2.977   3.652   6.688 -0.8268  0.4282  0.4364
  100SAPS   C3110040   3.058   3.696   6.780  0.5053  0.5417 -0.3921
  100SAPS   O3210041   3.154   3.767   6.771 -0.5472  0.2813  0.5662
  100SAPS   C3210042   3.026   3.631   6.919 -0.1132 -0.3106 -0.5300
  100SAPS   H2X10043   3.114   3.566   6.940  0.0406  0.3128  0.7412
  100SAPS   H2Y10044   2.928   3.578   6.914 -1.2379  1.5251  1.3516
  100SAPS   C2310045   3.160   4.115   6.798 -0.6597  0.0895  0.8541
  100SAPS   H3R10046   3.266   4.132   6.826 -0.7896  0.1392  1.3306
  100SAPS   H3S10047   3.126   4.011   6.818 -0.0022  0.0497  1.7967
  100SAPS   C2410048   3.073   4.202   6.885  0.2560 -0.5276 -0.5221
  100SAPS   H4R10049   2.983   4.238   6.831 -0.9293 -2.2077  0.2926
  100SAPS   H4S10050   3.132   4.295   6.899 -1.6404  0.3000  2.3144
  100SAPS   C2510051   3.037   4.136   7.020  0.2019  0.6107 -0.2791
  100SAPS   H5R10052   2.955   4.063   7.015  0.2251  0.6072 -0.5983
  100SAPS   C2610053   3.094   4.156   7.140  0.0865  0.4666 -0.2154
  100SAPS   H6R10054   3.047   4.112   7.229  1.6386  0.5865  0.6924
  100SAPS   C2710055   3.209   4.253   7.162 -0.0040  0.1273  0.2752
  100SAPS   H7R10056   3.182   4.315   7.250 -0.3122 -1.9177  1.6493
  100SAPS   H7S10057   3.206   4.334   7.086 -2.3371  2.0429  2.3450
  100SAPS   C2810058   3.345   4.181   7.178  0.6970 -0.2811  0.1208
  100SAPS   H8R10059   3.360   4.088   7.122 -2.4794 -0.7445 -0.0585
  100SAPS   C2910060   3.446   4.211   7.262  0.5869  0.1254  0.4310
  100SAPS   H9R10061   3.535   4.147   7.249 -1.5031 -2.8639  0.4678
  100SAPS  C21010062   3.457   4.315   7.366 -0.0173 -0.1059  0.0972
  100SAPS  H10R10063   3.516   4.276   7.452  0.7065 -1.4430 -0.9842
  100SAPS  H10S10064   3.357   4.329   7.413  0.5596  1.5391  0.8848
  100SAPS  C21110065   3.478   4.454   7.306 -0.4934  0.1968 -0.1243
  100SAPS  H11R10066   3.434   4.444   7.206  0.9464  2.0419 -0.9798
  100SAPS  C21210067   3.526   4.562   7.357  0.1438  0.0090 -0.1199
  100SAPS  H12R10068   3.531   4.660   7.308 -1.5393 -0.7571 -1.8565
  100SAPS  C21310069   3.582   4.553   7.503  0.7125  0.1082  0.3158
  100SAPS  H13R10070   3.551   4.456   7.547 -2.1251  1.2326  0.9583
  100SAPS  H13S10071   3.521   4.629   7.557 -0.0738 -0.2029 -0.1193
  100SAPS  C21410072   3.729   4.564   7.512 -0.8026 -1.1205  0.0840
  100SAPS  H14R10073   3.783   4.514   7.431  2.3615  3.6932 -0.9793
  100SAPS  C21510074   3.790   4.643   7.608 -0.2403  0.2988  0.5541
  100SAPS  H15R10075   3.900   4.639   7.602 -0.3709 -1.1594 -1.3554
  100SAPS  C21610076   3.728   4.704   7.726  0.3562  0.4877 -0.3644
  100SAPS  H16R10077   3.627   4.664   7.750  0.3361  1.2817  0.9440
  100SAPS  H16S10078   3.715   4.812   7.702 -0.9642 -0.0009 -1.9861
  100SAPS  C21710079   3.816   4.677   7.848 -0.3185  0.3934 -0.8742
  100SAPS  H17R10080   3.916   4.724   7.840  0.3160 -0.5447  1.2198
  100SAPS  H17S10081   3.823   4.567   7.858  0.5424  0.4474 -0.8861
  100SAPS  C21810082   3.756   4.735   7.984 -0.1052  0.6102 -0.6627
  100SAPS  H18R10083   3.665   4.674   8.001  0.6611 -0.6945 -1.1275
  100SAPS  H18S10084   3.728   4.840   7.960 -1.4873  0.8488  1.8851
  100SAPS  C21910085   3.860   4.744   8.101 -0.4221  0.3508 -0.0545
  100SAPS  H19R10086   3.899   4.846   8.076 -1.3549  0.8193  0.3717
  100SAPS  H19S10087   3.927   4.656   8.099 -1.0590 -0.1299 -0.6332
  100SAPS  C22010088   3.801   4.749   8.243 -0.9836  0.5360 -0.1163
  100SAPS  H20R10089   3.740   4.658   8.263 -3.0496  1.7281 -0.8183
  100SAPS  H20S10090   3.734   4.836   8.258 -2.1903 -0.5344  0.7137
  100SAPS  H20T10091   3.884   4.754   8.317  0.5915 -0.7753 -1.7341
  100SAPS   C3310092   3.028   3.723   7.033 -0.3231 -0.4371  0.0941
  100SAPS   H3X10093   2.953   3.805   7.026 -1.4180 -1.4628 -0.2901
  100SAPS   H3Y10094   3.128   3.772   7.041  0.2458 -1.7708  1.4531
  100SAPS   C3410095   3.012   3.662   7.170 -0.7438  0.0110 -0.5553
  100SAPS   H4X10096   3.106   3.605   7.183 -0.9244 -0.2534 -0.4007
  100SAPS   H4Y10097   2.939   3.578   7.177  0.8177 -1.4526 -1.4184
  100SAPS   C3510098   2.991   3.760   7.287  0.1572  0.2041  0.0985
  100SAPS   H5X10099   2.890   3.807   7.292 -0.4938 -1.4017  2.7051
  100SAPS   H5Y10100   3.066   3.842   7.288 -1.6276  1.8771  0.9086
  100SAPS   C3610101   3.003   3.681   7.419  0.0855 -0.6633 -0.4028
  100SAPS   H6X10102   3.006   3.571   7.399  1.8596 -1.1535  2.2311
  100SAPS   H6Y10103   2.922   3.698   7.493  1.5637  3.4962  0.3594
  100SAPS   C3710104   3.139   3.722   7.485 -0.4997  0.3269 -0.0734
  100SAPS   H7X10105   3.142   3.831   7.506 -4.0530  0.5470 -0.3766
  100SAPS   H7Y10106   3.216   3.698   7.409 -1.3125 -0.8744 -0.5232
  100SAPS   C3810107   3.154   3.643   7.617  0.3515  0.6431 -0.2775
  100SAPS   H8X10108   3.151   3.532   7.612  2.4849  0.4554  1.7381
  100SAPS   H8Y10109   3.062   3.652   7.680  1.4282  1.2726  1.2256
  100SAPS   C3910110   3.278   3.680   7.695 -0.2235  0.9711  0.5376
  100SAPS   H9X10111   3.285   3.790   7.707 -0.0910  1.1529 -1.0896
  100SAPS   H9Y10112   3.367   3.650   7.635 -0.0090  1.0097  0.8303
  100SAPS  C31010113   3.276   3.616   7.836  0.0298  0.5455  0.0120
  100SAPS  H10X10114   3.252   3.508   7.825 -1.2238  0.6446  1.5784
  100SAPS  H10Y10115   3.199   3.683   7.881  0.7723  0.1453  1.9479
  100SAPS  C31110116   3.413   3.614   7.914  0.2991  0.1965  0.3788
  100SAPS  H11X10117   3.452   3.714   7.887 -2.7339  1.5914  0.9887
  100SAPS  H11Y10118   3.481   3.533   7.879  0.7393  0.9742 -0.5851
  100SAPS  C31210119   3.398   3.572   8.061  0.4890  0.2479  0.1400
  100SAPS  H12X10120   3.333   3.482   8.067  1.9632 -0.7422  1.8224
  100SAPS  H12Y10121   3.343   3.651   8.117  0.5229  0.9327 -0.7844
  100SAPS  C31310122   3.529   3.525   8.132 -0.6313 -0.7557 -0.2495
  100SAPS  H13X10123   3.594   3.613   8.113 -2.9202  0.3941 -3.2125
  100SAPS  H13Y10124   3.567   3.432   8.083 -0.1210 -0.8770  0.3703
  100SAPS  C31410125   3.531   3.510   8.286  0.7302 -0.0425 -0.2356
  100SAPS  H14X10126   3.632   3.479   8.322  0.6312  0.8303  0.7870
  100SAPS  H14Y10127   3.458   3.428   8.301  3.1937 -2.0765  1.2185
  100SAPS  C31510128   3.466   3.631   8.350 -0.0242  0.3400 -0.2714
  100SAPS  H15X10129   3.356   3.624   8.341  0.0821 -0.1632 -1.2309
  100SAPS  H15Y10130   3.500   3.729   8.310 -1.5463  1.6142  1.4839
  100SAPS  C31610131   3.503   3.643   8.505  0.1566 -0.5909 -0.1843
  100SAPS  H16X10132   3.614   3.655   8.503 -0.0092  0.8030 -1.6114
  100SAPS  H16Y10133   3.483   3.546   8.556 -1.1221  1.1741  2.7735
  100SAPS  C31710134   3.447   3.770   8.571  0.4759 -0.1952  0.7298
  100SAPS  H17X10135   3.487   3.859   8.517 -1.6612 -0.5074 -1.4505
  100SAPS  H17Y10136   3.490   3.780   8.673  1.9872 -0.1766  0.1071
  100SAPS  C31810137   3.292   3.758   8.571  0.8473  0.0057  0.5291
  100SAPS  H18X10138   3.252   3.660   8.602 -3.0481  1.6755  1.1502
  100SAPS  H18Y10139   3.260   3.785   8.468  0.7202 -1.1787  0.2535
  100SAPS  H18Z10140   3.253   3.836   8.640 -1.1052  0.1002 -0.6338
  101OSM      N10141   1.890   5.098  10.821  0.5673 -0.7732 -0.1650
  101OSM    C1510142   1.780   5.005  10.787 -0.0428 -0.1988  0.6869
  101OSM   H15A10143   1.819   4.927  10.723 -1.2780 -0.0309 -0.2909
  101OSM   H15B10144   1.695   5.042  10.732 -0.3815 -1.8701  0.0429
  101OSM   H15C10145   1.735   4.962  10.875 -0.4656  0.8847  1.0086
  101OSM    C1410146   1.954   5.153  10.699  0.1575 -0.1002 -0.0672
  101OSM   H14A10147   2.021   5.232  10.727 -0.5297  0.1199  0.9740
  101OSM   H14B10148   1.884   5.195  10.629 -0.7482  0.6262  1.2546
  101OSM   H14C10149   2.007   5.068  10.659 -1.3485 -1.9174  1.6759
  101OSM    C1310150   1.834   5.212  10.907  0.0020 -0.1181 -0.4152
  101OSM   H13A10151   1.774   5.271  10.838  0.3288  0.8045  0.0833
  101OSM   H13B10152   1.916   5.278  10.930  0.2105 -0.7800  0.7337
  101OSM   H13C10153   1.776   5.174  10.989  0.9988  1.4412  1.0384
  101OSM    C1210154   2.001   5.037  10.899  0.3482  0.3429 -0.3460
  101OSM   H12A10155   1.966   5.032  11.001 -0.6295  1.2845 -0.6240
  101OSM   H12B10156   2.081   5.109  10.909  1.0928 -0.6739  1.1876
  101OSM    C1110157   2.050   4.900  10.857 -0.8068  0.0263 -0.2922
  101OSM   H11A10158   1.967   4.827  10.845  0.3761 -1.9159  2.6165
  101OSM   H11B10159   2.119   4.855  10.932 -1.3215  3.5530  2.4125
  101OSM      P10160   2.262   4.925  10.713 -0.1728  0.2613  0.2123
  101OSM    O1310161   2.312   5.050  10.771 -0.3905  0.8601  0.4326
  101OSM    O1410162   2.336   4.800  10.751  0.1059 -0.0446 -0.1671
  101OSM    O1110163   2.278   4.926  10.559  0.0549  0.1621 -0.7227
  101OSM    O1210164   2.108   4.917  10.729  0.5809  0.5581 -0.1575
  101OSM    C1S10165   2.170   4.933  10.470  0.1265  0.3341 -0.0867
  101OSM    H1S10166   2.134   5.038  10.469  0.1040  0.3404  1.1521
  101OSM    H1T10167   2.089   4.863  10.500  0.0739  1.3249  2.1821
  101OSM     NF10168   2.082   4.854  10.258 -0.1941 -0.1783  0.3603
  101OSM    HNF10169   2.070   4.757  10.242 -3.0955  0.2053  0.0043
  101OSM    C2S10170   2.208   4.888  10.327  0.6028  0.7079 -0.1919
  101OSM    H2S10171   2.261   4.975  10.282 -0.5687  1.0758 -0.8629
  101OSM    C3S10172   2.318   4.764  10.320 -0.3776  0.1998  0.3523
  101OSM    H3S10173   2.277   4.672  10.367 -1.4336  0.2942 -0.3623
  101OSM     O310174   2.445   4.789  10.388 -0.1053  0.2410 -0.6952
  101OSM    HO310175   2.422   4.848  10.460  2.1698  2.5736 -1.8198
  101OSM    C4S10176   2.350   4.729  10.175 -0.2924 -0.5727 -0.2187
  101OSM    H4S10177   2.257   4.699  10.124 -1.8033  2.2460  0.7203
  101OSM    C5S10178   2.466   4.729  10.105 -0.3862  0.6534  0.5167
  101OSM    H5S10179   2.559   4.770  10.147 -0.8812  0.6227  1.6722
  101OSM    C6S10180   2.464   4.693   9.959 -0.0603 -0.8627 -0.7861
  101OSM    H6S10181   2.364   4.702   9.912 -1.0425  2.0856  1.6808
  101OSM    H6T10182   2.485   4.584   9.954  3.5677 -0.3362  0.9819
  101OSM    C7S10183   2.571   4.770   9.868  0.1364  0.2881  0.0251
  101OSM    H7S10184   2.664   4.787   9.928  1.1272 -1.0659 -1.1046
  101OSM    H7T10185   2.529   4.869   9.841 -3.0426 -1.1462 -0.4653
  101OSM    C8S10186   2.596   4.700   9.733  0.2619  0.0082 -0.1886
  101OSM    H8S10187   2.602   4.590   9.742 -0.5515  0.1876  2.9846
  101OSM    H8T10188   2.690   4.743   9.692  0.0047  2.0586  1.2469
  101OSM    C9S10189   2.489   4.743   9.624 -0.4070  0.1974  0.0075
  101OSM    H9S10190   2.504   4.853   9.625 -0.7022  0.2557  3.0923
  101OSM    H9T10191   2.388   4.717   9.661  1.0675 -2.7758  2.2083
  101OSM   C10S10192   2.521   4.677   9.489  0.0749 -0.4283  0.2179
  101OSM   H10S10193   2.518   4.567   9.499  0.4077 -0.4547  0.0445
  101OSM   H10T10194   2.624   4.708   9.459  1.2494 -1.6873  2.8030
  101OSM   C11S10195   2.415   4.720   9.379  0.1422 -0.4983  0.0141
  101OSM   H11S10196   2.410   4.831   9.386 -0.6065 -0.3986 -1.7602
  101OSM   H11T10197   2.316   4.676   9.404 -0.4665  0.9897  0.2592
  101OSM   C12S10198   2.454   4.678   9.234  0.9277 -0.3720 -0.1611
  101OSM   H12S10199   2.362   4.709   9.182  1.3522 -1.4775 -1.5952
  101OSM   H12T10200   2.470   4.568   9.226 -3.3742 -1.0102 -0.9464
  101OSM   C13S10201   2.564   4.772   9.173  1.0550 -0.3606 -0.4738
  101OSM   H13S10202   2.660   4.725   9.205  0.4746 -0.7984  0.6458
  101OSM   H13T10203   2.547   4.873   9.216  0.5352 -1.1591  1.2321
  101OSM   C14S10204   2.559   4.788   9.026  0.2742  0.2070  0.6933
  101OSM   H14S10205   2.454   4.796   8.990  0.5763  1.2041  0.0223
  101OSM   H14T10206   2.598   4.693   8.982 -2.6470  0.2137 -2.0757
  101OSM   C15S10207   2.635   4.910   8.975 -0.3515 -0.4139 -0.2960
  101OSM   H15S10208   2.740   4.913   9.013 -0.4931  2.4638 -0.0824
  101OSM   H15T10209   2.585   4.995   9.026 -1.9345 -2.6525  2.0498
  101OSM   C16S10210   2.634   4.926   8.827 -0.2824 -0.8443 -0.2769
  101OSM   H16S10211   2.557   4.862   8.779  0.6086 -0.8596 -1.7018
  101OSM   H16T10212   2.735   4.903   8.786  0.0043  2.1549 -1.3447
  101OSM   C17S10213   2.586   5.065   8.782  0.5203 -0.8892  0.1825
  101OSM   H17S10214   2.671   5.134   8.800 -0.5396  0.7470 -0.9785
  101OSM   H17T10215   2.509   5.104   8.852  1.0449  0.7575 -0.1285
  101OSM   C18S10216   2.553   5.077   8.638 -0.0954  0.1081 -0.0443
  101OSM   H18S10217   2.640   5.042   8.579  0.6263  0.2851  0.8967
  101OSM   H18T10218   2.533   5.182   8.609  0.0032 -0.0890 -0.8295
  101OSM   H18U10219   2.462   5.021   8.609  1.5085 -1.4594 -2.2241
  101OSM    C1F10220   1.982   4.939  10.239 -0.7166 -0.2562  1.2081
  101OSM     OF10221   2.000   5.055  10.263  0.7607  0.2515 -0.7419
  101OSM    C2F10222   1.859   4.876  10.180  0.0550  0.1436  0.5062
  101OSM    H2F10223   1.771   4.904  10.241  0.5729  2.3948  0.2646
  101OSM    H2G10224   1.863   4.765  10.177  2.0104  0.2078 -0.4236
  101OSM    C3F10225   1.846   4.921  10.032  0.6141 -0.0776  0.4186
  101OSM    H3F10226   1.859   5.031  10.036  0.3993 -0.1288  2.8279
  101OSM    H3G10227   1.743   4.893   9.999  0.9215 -1.2893  0.4456
  101OSM    C4F10228   1.946   4.870   9.931  0.5324 -0.4826  0.2738
  101OSM    H4F10229   1.970   4.764   9.956 -0.7289 -0.6817  0.7016
  101OSM    H4G10230   2.045   4.918   9.943 -0.5340  2.0299 -0.5916
  101OSM    C5F10231   1.894   4.880   9.780 -0.4489 -0.4047  0.4343
  101OSM    H5F10232   1.884   4.988   9.757  0.1013 -0.7538 -1.5157
  101OSM    H5G10233   1.800   4.828   9.751  0.3029 -0.6275 -1.6801
  101OSM    C6F10234   2.004   4.811   9.696  0.6372  0.3034  0.3238
  101OSM    H6F10235   2.059   4.732   9.752 -0.2716 -1.1121 -0.7379
  101OSM    H6G10236   2.079   4.888   9.668  1.1504 -0.5569 -0.7450
  101OSM    C7F10237   1.939   4.778   9.560 -0.4051 -0.0923 -0.3834
  101OSM    H7F10238   1.864   4.856   9.536 -0.5621 -0.7732 -2.1611
  101OSM    H7G10239   1.897   4.676   9.561 -1.5705  0.3513 -2.2475
  101OSM    C8F10240   2.033   4.749   9.447  0.4209 -0.3183 -0.4485
  101OSM    H8F10241   1.967   4.703   9.370 -0.4412 -0.0407  0.1199
  101OSM    H8G10242   2.117   4.685   9.482  1.4713 -0.3641 -2.9827
  101OSM    C9F10243   2.087   4.874   9.387 -0.8713 -0.1156  0.7452
  101OSM    H9F10244   2.167   4.922   9.445  0.1712 -0.1928 -0.5991
  101OSM   C10F10245   2.054   4.933   9.272  0.2549  0.1336 -0.4892
  101OSM   H10F10246   2.091   5.034   9.245 -0.0732  0.3791 -0.0265
  101OSM   C11F10247   1.946   4.892   9.178 -0.5418 -1.0873 -0.1874
  101OSM   H11F10248   1.904   4.978   9.122 -1.5442 -1.5297 -0.1360
  101OSM   H11G10249   1.860   4.843   9.230  0.1305 -0.9353  1.0929
  101OSM   C12F10250   1.997   4.793   9.074 -0.3947  0.2211 -0.0842
  101OSM   H12F10251   2.040   4.704   9.123 -1.0974  0.4586  0.9843
  101OSM   H12G10252   2.082   4.835   9.017 -0.5017  1.4353  0.6390
  101OSM   C13F10253   1.892   4.738   8.971  0.1625  0.6639  0.6338
  101OSM   H13F10254   1.939   4.670   8.896  0.0217  1.1294  0.1220
  101OSM   H13G10255   1.843   4.824   8.920 -0.8317  1.4348  2.8516
  101OSM   C14F10256   1.775   4.667   9.030 -0.4316 -0.4090  0.0621
  101OSM   H14F10257   1.729   4.719   9.117  1.2131  0.4996  0.4054
  101OSM   H14G10258   1.813   4.571   9.071 -1.7640 -0.4332  1.2969
  101OSM   C15F10259   1.659   4.646   8.931 -0.4606  0.7270 -0.1639
  101OSM   H15F10260   1.607   4.740   8.900 -1.3138  0.3800  0.1862
  101OSM   H15G10261   1.589   4.588   8.996  0.5216  0.9164  1.0923
  101OSM   C16F10262   1.701   4.557   8.807  0.1032 -0.1980 -0.2965
  101OSM   H16F10263   1.776   4.614   8.748  0.3154 -0.1074  0.0618
  101OSM   H16G10264   1.609   4.547   8.745 -1.4137  0.9892  1.7048
  101OSM   C17F10265   1.734   4.409   8.833 -0.0490 -0.3681  0.4162
  101OSM   H17F10266   1.649   4.367   8.889  0.8316 -0.3527  1.7904
  101OSM   H17G10267   1.821   4.398   8.901  1.8579  0.1908 -1.8582
  101OSM   C18F10268   1.741   4.318   8.712  0.4140 -0.2862 -0.5181
  101OSM   H18F10269   1.672   4.354   8.632 -1.1160 -1.2914  0.3161
  101OSM   H18G10270   1.718   4.217   8.754  0.3869  0.5218  1.4777
  101OSM   H18H10271   1.844   4.332   8.675  0.1006  1.2477 -0.8425
  102OSM      N10272   2.451   4.400  10.576  0.1979  0.5924 -0.3006
  102OSM    C1510273   2.523   4.519  10.531 -0.0163 -0.2421 -0.2615
  102OSM   H15A10274   2.521   4.542  10.426  2.1886 -0.4001 -0.3572
  102OSM   H15B10275   2.625   4.525  10.566 -1.0208  0.8307  2.6581
  102OSM   H15C10276   2.477   4.605  10.577  0.5162 -0.0354 -0.1136
  102OSM    C1410277   2.516   4.278  10.523 -0.4480 -0.2192 -0.2567
  102OSM   H14A10278   2.620   4.279  10.550 -0.8369 -4.6682  1.9560
  102OSM   H14B10279   2.514   4.278  10.415  1.4104  1.3451 -0.3038
  102OSM   H14C10280   2.464   4.191  10.562 -2.6651  0.4389 -1.6325
  102OSM    C1310281   2.442   4.373  10.724  0.8549 -0.1926 -0.1788
  102OSM   H13A10282   2.371   4.296  10.750  0.2771  0.3509 -0.1273
  102OSM   H13B10283   2.436   4.458  10.790  3.4466  0.8254 -1.1798
  102OSM   H13C10284   2.539   4.330  10.745  0.1872 -0.8488  1.6315
  102OSM    C1210285   2.313   4.389  10.514 -0.6432 -0.5847 -0.3715
  102OSM   H12A10286   2.281   4.286  10.521  1.3529 -1.2461 -0.6472
  102OSM   H12B10287   2.327   4.414  10.410  1.1399  1.2950  0.2780
  102OSM    C1110288   2.205   4.485  10.574  0.4029  0.0203  0.0399
  102OSM   H11A10289   2.120   4.488  10.502  0.1538 -1.2403  0.2611
  102OSM   H11B10290   2.250   4.586  10.578  0.1221  0.0688  2.7040
  102OSM      P10291   2.073   4.317  10.735 -0.0408 -0.1074 -0.1978
  102OSM    O1310292   2.142   4.217  10.818 -0.1589 -0.3753 -0.8225
  102OSM    O1410293   1.952   4.384  10.801  0.1506  0.4716 -0.0988
  102OSM    O1110294   2.032   4.255  10.599  0.1961 -0.0696 -0.0120
  102OSM    O1210295   2.162   4.433  10.700  0.1742 -0.3671 -0.2710
  102OSM    C1S10296   1.904   4.248  10.545 -0.0399  0.4369  0.1321
  102OSM    H1S10297   1.847   4.344  10.547 -1.1884 -0.2478  1.9394
  102OSM    H1T10298   1.845   4.171  10.599  0.4366 -0.8042 -1.1066
  102OSM     NF10299   1.789   4.236  10.321 -0.3915 -0.3803 -0.2207
  102OSM    HNF10300   1.748   4.154  10.280 -0.5358 -1.2323  1.5819
  102OSM    C2S10301   1.912   4.208  10.397 -0.0533 -0.7636  0.0618
  102OSM    H2S10302   1.986   4.276  10.349  0.6688 -1.5625  0.0379
  102OSM    C3S10303   1.961   4.065  10.380 -0.2122  0.0811  0.3934
  102OSM    H3S10304   1.898   3.984  10.422  0.6239 -1.3195 -0.9756
  102OSM     O310305   2.092   4.044  10.441  0.0549 -0.0535  0.0421
  102OSM    HO310306   2.091   4.116  10.505  0.3235 -1.8337  2.1115
  102OSM    C4S10307   1.973   4.049  10.239 -0.6556  0.1871  0.3040
  102OSM    H4S10308   2.052   4.110  10.195  2.3655 -0.8017  4.1130
  102OSM    C5S10309   1.919   3.956  10.161 -0.2281 -0.4053  0.3406
  102OSM    H5S10310   1.848   3.886  10.207  0.3965 -2.2349 -1.4107
  102OSM    C6S10311   1.942   3.932  10.016 -0.5409 -0.9052  0.3775
  102OSM    H6S10312   1.951   3.825   9.987  0.5133 -0.6797 -0.1127
  102OSM    H6T10313   2.029   3.990   9.980 -0.7924 -0.1909  0.9140
  102OSM    C7S10314   1.827   3.979   9.928 -0.0521  0.2246 -0.1197
  102OSM    H7S10315   1.806   4.085   9.953  1.3662  0.6112 -0.5384
  102OSM    H7T10316   1.739   3.929   9.975 -0.0923  0.5312  0.1308
  102OSM    C8S10317   1.843   3.959   9.775 -0.0221 -0.2075 -1.0425
  102OSM    H8S10318   1.896   3.863   9.757 -0.5313 -0.5481 -0.7650
  102OSM    H8T10319   1.904   4.035   9.722 -0.8785  0.5870 -0.9053
  102OSM    C9S10320   1.702   3.953   9.706 -0.3051 -0.1860  0.1866
  102OSM    H9S10321   1.675   4.056   9.674  1.7259 -0.0863 -1.3641
  102OSM    H9T10322   1.625   3.903   9.768 -0.4852  1.2881  1.1862
  102OSM   C10S10323   1.704   3.869   9.569 -0.2082 -0.0222  0.4095
  102OSM   H10S10324   1.596   3.847   9.560 -0.2200 -0.8316  2.2344
  102OSM   H10T10325   1.760   3.773   9.572  1.8295  1.1684  1.7513
  102OSM   C11S10326   1.774   3.946   9.453 -0.3672 -0.2565 -0.5504
  102OSM   H11S10327   1.883   3.925   9.457 -0.2274 -0.2390 -3.4278
  102OSM   H11T10328   1.763   4.056   9.464  2.6054 -0.0924  1.3215
  102OSM   C12S10329   1.700   3.917   9.318 -0.3663 -0.0257 -0.3603
  102OSM   H12S10330   1.604   3.974   9.320  0.1712  0.8720  0.7811
  102OSM   H12T10331   1.669   3.813   9.295  2.6401 -0.5641 -2.2794
  102OSM   C13S10332   1.791   3.967   9.206 -0.3363  0.6006  0.3677
  102OSM   H13S10333   1.895   3.928   9.212  0.1609  1.8442 -0.0236
  102OSM   H13T10334   1.791   4.077   9.218 -0.4007  0.7914 -1.2651
  102OSM   C14S10335   1.744   3.924   9.063 -0.2915  0.2215 -0.0885
  102OSM   H14S10336   1.637   3.949   9.053  0.0758  1.9519  0.0826
  102OSM   H14T10337   1.762   3.816   9.046  1.1050  0.6426 -1.5469
  102OSM   C15S10338   1.815   3.996   8.948 -0.3164 -0.2903  0.4906
  102OSM   H15S10339   1.924   3.988   8.967  0.2087  1.9980 -1.3222
  102OSM   H15T10340   1.773   4.099   8.947  0.7653  0.1913 -3.0736
  102OSM   C16S10341   1.796   3.935   8.805  0.0435  0.8974 -0.6604
  102OSM   H16S10342   1.830   4.011   8.731  2.9862  0.8786  0.5920
  102OSM   H16T10343   1.688   3.914   8.794  0.2524  0.2729 -1.6365
  102OSM   C17S10344   1.878   3.810   8.779 -0.2660  0.6899 -0.0759
  102OSM   H17S10345   1.841   3.721   8.833  0.5127  0.4995  0.1520
  102OSM   H17T10346   1.987   3.821   8.801 -0.3896 -1.6265  1.8502
  102OSM   C18S10347   1.881   3.778   8.630  0.1927 -0.0069  0.5551
  102OSM   H18S10348   1.957   3.699   8.617 -0.1320 -0.6468  2.4160
  102OSM   H18T10349   1.915   3.868   8.574  4.2728 -2.2893 -0.8282
  102OSM   H18U10350   1.778   3.745   8.605  0.8297 -0.9398 -0.9393
  102OSM    C1F10351   1.733   4.357  10.291  0.3532  0.4440 -0.2134
  102OSM     OF10352   1.782   4.466  10.324  0.6783 -0.2551  0.4333
  102OSM    C2F10353   1.603   4.342  10.220  0.5071  0.1704  0.7892
  102OSM    H2F10354   1.531   4.364  10.302  0.8415  0.9385  0.8727
  102OSM    H2G10355   1.595   4.239  10.179 -0.3519  0.0022  1.3453
  102OSM    C3F10356   1.583   4.437  10.098  0.2744  0.3052 -0.5274
  102OSM    H3F10357   1.597   4.532  10.153 -1.5188 -0.2095  0.8650
  102OSM    H3G10358   1.477   4.424  10.064  0.2454  0.1393 -0.3749
  102OSM    C4F10359   1.679   4.413   9.985  0.1819  0.0772 -0.7744
  102OSM    H4F10360   1.680   4.315   9.933  0.7348  0.3991 -1.3610
  102OSM    H4G10361   1.784   4.434  10.013  1.0784 -1.5792 -2.7260
  102OSM    C5F10362   1.652   4.521   9.875 -0.3816  0.0453  0.0979
  102OSM    H5F10363   1.669   4.624   9.911 -1.0056 -0.4216  1.7912
  102OSM    H5G10364   1.543   4.529   9.852 -0.1729 -1.3892 -1.5144
  102OSM    C6F10365   1.730   4.499   9.745  0.1326 -0.8562  0.5993
  102OSM    H6F10366   1.838   4.505   9.768  0.3224  1.9973 -0.7922
  102OSM    H6G10367   1.721   4.591   9.683 -2.6620 -0.0284  2.1458
  102OSM    C7F10368   1.696   4.371   9.665 -1.2495  0.2160  0.8014
  102OSM    H7F10369   1.586   4.351   9.669 -1.1162 -0.4664  1.1344
  102OSM    H7G10370   1.742   4.274   9.692 -0.3316  0.4261 -0.0153
  102OSM    C8F10371   1.735   4.398   9.520  0.4676 -0.0498  0.7258
  102OSM    H8F10372   1.736   4.300   9.468 -0.2492  1.4820 -2.2845
  102OSM    H8G10373   1.836   4.444   9.516  0.2071  0.5220  0.6804
  102OSM    C9F10374   1.636   4.481   9.441 -0.0739  0.4088 -0.2663
  102OSM    H9F10375   1.589   4.566   9.493 -0.1553  0.9375 -1.2124
  102OSM   C10F10376   1.608   4.471   9.316  0.2160  0.3916  0.3455
  102OSM   H10F10377   1.526   4.530   9.272 -1.6513 -2.0855  0.3937
  102OSM   C11F10378   1.663   4.368   9.218 -0.7436 -1.0064 -0.2267
  102OSM   H11F10379   1.759   4.324   9.252  0.0505  0.0842 -0.9874
  102OSM   H11G10380   1.688   4.421   9.123 -0.1607 -0.7265  0.0832
  102OSM   C12F10381   1.568   4.258   9.179  0.5320  0.2587 -0.5762
  102OSM   H12F10382   1.535   4.200   9.269 -1.3463  0.2912 -1.2252
  102OSM   H12G10383   1.616   4.194   9.102 -0.2728  0.5075 -1.2893
  102OSM   C13F10384   1.432   4.322   9.133 -0.1816 -0.5187  0.2214
  102OSM   H13F10385   1.448   4.378   9.039 -0.0037 -0.1059  0.4947
  102OSM   H13G10386   1.394   4.398   9.204 -2.8274 -1.3768 -0.2273
  102OSM   C14F10387   1.324   4.208   9.129  0.1774  0.8469  0.1501
  102OSM   H14F10388   1.226   4.250   9.098  0.7952  1.4720 -0.9745
  102OSM   H14G10389   1.299   4.173   9.232  0.2508  0.9488  0.2022
  102OSM   C15F10390   1.351   4.087   9.044 -0.1561 -1.0199  0.5951
  102OSM   H15F10391   1.266   4.017   9.058  1.7753 -3.1271  2.1265
  102OSM   H15G10392   1.436   4.034   9.092 -0.8240 -1.2382  1.5562
  102OSM   C16F10393   1.382   4.117   8.900 -0.5806  0.4853 -1.1546
  102OSM   H16F10394   1.469   4.179   8.871 -0.2642  0.1853 -0.8382
  102OSM   H16G10395   1.294   4.180   8.874 -0.3437  0.7985 -1.1937
  102OSM   C17F10396   1.385   3.984   8.821 -1.0901 -0.2699 -0.4234
  102OSM   H17F10397   1.290   3.931   8.844 -0.0128 -1.3928  1.5428
  102OSM   H17G10398   1.475   3.932   8.859 -0.9823  1.9102  2.5059
  102OSM   C18F10399   1.403   4.013   8.668 -0.5118 -0.2090  0.3549
  102OSM   H18F10400   1.380   3.927   8.601 -3.0573  0.5428  0.1785
  102OSM   H18G10401   1.504   4.052   8.645  0.7313 -3.1837  0.5984
  102OSM   H18H10402   1.326   4.085   8.633  0.0563 -0.2812 -1.0637
  103OSM      N10403   2.662   0.259  11.040  0.6342  0.6491  0.2172
  103OSM    C1510404   2.803   0.253  10.988  0.2219 -0.4915  0.1698
  103OSM   H15A10405   2.823   0.154  10.949 -1.3315 -1.9198  2.8597
  103OSM   H15B10406   2.876   0.279  11.062  0.6720  0.0538 -0.4642
  103OSM   H15C10407   2.822   0.324  10.909  1.5772  0.2639  1.1636
  103OSM    C1410408   2.655   0.164  11.156  0.3198 -0.5511 -0.5700
  103OSM   H14A10409   2.679   0.065  11.122 -1.2831 -1.0172 -0.3810
  103OSM   H14B10410   2.550   0.161  11.183  0.3110  0.1033 -0.5158
  103OSM   H14C10411   2.712   0.197  11.242 -1.5908  2.7850 -0.4833
  103OSM    C1310412   2.621   0.393  11.079 -0.4707 -0.3721  0.1244
  103OSM   H13A10413   2.633   0.471  11.005  0.6583 -1.7413 -1.1763
  103OSM   H13B10414   2.687   0.413  11.162 -0.8128  0.0001  0.3051
  103OSM   H13C10415   2.521   0.392  11.120 -0.6740 -2.9304 -0.3572
  103OSM    C1210416   2.567   0.219  10.931 -0.1974  0.0532 -0.0123
  103OSM   H12A10417   2.585   0.120  10.893 -0.0255 -0.0236  0.2738
  103OSM   H12B10418   2.579   0.297  10.857  2.5406  0.5505  0.8943
  103OSM    C1110419   2.416   0.217  10.965  0.1292 -0.1585 -0.0213
  103OSM   H11A10420   2.352   0.216  10.874 -0.2734  3.3598  0.1267
  103OSM   H11B10421   2.398   0.307  11.028 -0.5682 -0.7808  0.6778
  103OSM      P10422   2.348  -0.031  10.974  0.1235 -0.3696  0.1534
  103OSM    O1310423   2.421  -0.139  11.038  0.5602 -0.1020 -0.3466
  103OSM    O1410424   2.198  -0.046  10.948 -0.0375 -0.4858  0.4488
  103OSM    O1110425   2.414  -0.017  10.829  0.1080  0.1602  0.3833
  103OSM    O1210426   2.383   0.104  11.050  0.8538 -0.7711 -0.4418
  103OSM    C1S10427   2.375  -0.102  10.728 -0.4680  0.0965  0.2246
  103OSM    H1S10428   2.265  -0.117  10.732 -0.1679 -2.1756  0.5424
  103OSM    H1T10429   2.437  -0.194  10.733  0.1442  0.4374 -0.8236
  103OSM     NF10430   2.394  -0.172  10.493 -0.6219 -0.1354  0.1862
  103OSM    HNF10431   2.466  -0.238  10.473  0.6207  1.8113 -2.0319
  103OSM    C2S10432   2.415  -0.061  10.586  0.7305 -0.2961 -0.2690
  103OSM    H2S10433   2.363   0.028  10.544 -0.9194 -1.0543  0.1388
  103OSM    C3S10434   2.562  -0.024  10.579 -0.2958  0.4230  0.2886
  103OSM    H3S10435   2.618  -0.111  10.618 -1.6255 -0.7645 -0.3914
  103OSM     O310436   2.602   0.084  10.666  0.2977 -0.3176  0.3889
  103OSM    HO310437   2.521   0.100  10.715 -0.5261  0.9730 -1.3485
  103OSM    C4S10438   2.599   0.016  10.434 -0.5709 -0.4346  0.2150
  103OSM    H4S10439   2.616  -0.071  10.369  0.0555 -0.3312  0.2424
  103OSM    C5S10440   2.603   0.142  10.375  0.1138 -0.6052 -1.3286
  103OSM    H5S10441   2.583   0.234  10.432 -1.3075 -1.3895 -0.5193
  103OSM    C6S10442   2.633   0.163  10.231  0.5670 -0.8456 -0.6785
  103OSM    H6S10443   2.717   0.236  10.222 -0.3978  0.2870 -0.6304
  103OSM    H6T10444   2.559   0.227  10.180 -0.0988  0.3141  1.6592
  103OSM    C7S10445   2.649   0.039  10.148 -0.2813  0.2021  0.2951
  103OSM    H7S10446   2.563  -0.025  10.175  0.0564 -0.0158  0.8502
  103OSM    H7T10447   2.745   0.003  10.189 -1.4257  1.0858  3.8936
  103OSM    C8S10448   2.632   0.064   9.996  0.1382 -0.4019 -0.4098
  103OSM    H8S10449   2.711   0.140   9.975 -0.0013 -0.0662  0.2587
  103OSM    H8T10450   2.531   0.099   9.968  0.2214  2.1880  2.2842
  103OSM    C9S10451   2.696  -0.051   9.914  0.3676 -0.0487  0.4074
  103OSM    H9S10452   2.629  -0.140   9.918  0.3152  0.0707  2.8267
  103OSM    H9T10453   2.801  -0.071   9.944  0.7521  1.0785 -0.1525
  103OSM   C10S10454   2.703  -0.016   9.764 -1.4403 -0.8521 -0.3511
  103OSM   H10S10455   2.759   0.079   9.755 -1.1921 -0.8819  0.7826
  103OSM   H10T10456   2.602   0.003   9.722 -1.7805 -1.7137  0.0677
  103OSM   C11S10457   2.778  -0.120   9.688  0.1272  0.3771  0.4491
  103OSM   H11S10458   2.863  -0.160   9.749 -0.4256 -1.4836  0.0178
  103OSM   H11T10459   2.821  -0.072   9.598 -0.5964 -0.5201 -0.3825
  103OSM   C12S10460   2.698  -0.244   9.653 -0.4560 -0.1246  0.3130
  103OSM   H12S10461   2.676  -0.296   9.749 -2.4222  1.7650  0.9429
  103OSM   H12T10462   2.742  -0.306   9.573  0.0359 -0.3441  0.7495
  103OSM   C13S10463   2.557  -0.213   9.592 -0.0770 -0.1529  0.5007
  103OSM   H13S10464   2.493  -0.176   9.675  2.7192  2.3736  1.6205
  103OSM   H13T10465   2.506  -0.306   9.560 -4.6920  2.3313  0.3102
  103OSM   C14S10466   2.575  -0.114   9.474  0.1128  0.1283  0.1998
  103OSM   H14S10467   2.680  -0.119   9.437  1.3724 -0.7447  3.7522
  103OSM   H14T10468   2.555  -0.011   9.511  1.2604 -0.1693  1.6644
  103OSM   C15S10469   2.478  -0.145   9.349 -0.0391 -0.4725 -0.0443
  103OSM   H15S10470   2.486  -0.059   9.279  3.4808 -0.4010  0.3225
  103OSM   H15T10471   2.375  -0.146   9.390  1.4630  2.6123  4.0920
  103OSM   C16S10472   2.512  -0.275   9.276  0.0952 -0.0442 -0.3089
  103OSM   H16S10473   2.471  -0.358   9.337 -1.0372  1.2062  0.6546
  103OSM   H16T10474   2.622  -0.275   9.265 -0.0538  0.2042 -1.8980
  103OSM   C17S10475   2.440  -0.275   9.136 -0.2616 -0.2791 -0.7739
  103OSM   H17S10476   2.468  -0.174   9.100  0.6227  0.4591  1.8654
  103OSM   H17T10477   2.333  -0.273   9.163  0.1626  1.9250  0.8458
  103OSM   C18S10478   2.469  -0.391   9.039  0.4566  0.0183 -0.6285
  103OSM   H18S10479   2.378  -0.403   8.975  0.4384 -1.3757 -0.3502
  103OSM   H18T10480   2.487  -0.480   9.103 -2.4808  1.0314  1.7213
  103OSM   H18U10481   2.558  -0.371   8.976  0.4587 -0.1719 -0.6874
  103OSM    C1F10482   2.269  -0.209  10.450 -0.5913  0.3043  0.2076
  103OSM     OF10483   2.170  -0.138  10.477  0.1516 -0.3541  0.6748
  103OSM    C2F10484   2.257  -0.345  10.388  0.3804  0.7861 -0.4340
  103OSM    H2F10485   2.155  -0.388  10.404  0.0102  1.7291 -0.2625
  103OSM    H2G10486   2.310  -0.415  10.456 -1.6950 -0.8370 -0.4171
  103OSM    C3F10487   2.287  -0.335  10.235  0.4219  0.2172 -0.6942
  103OSM    H3F10488   2.388  -0.291  10.227  1.8080 -2.7557 -0.2291
  103OSM    H3G10489   2.213  -0.271  10.182 -1.1214 -0.1105  1.0286
  103OSM    C4F10490   2.288  -0.472  10.163 -0.0131 -0.0451 -0.5600
  103OSM    H4F10491   2.194  -0.530  10.166  0.9074 -1.5293 -0.0271
  103OSM    H4G10492   2.365  -0.531  10.216  0.4379 -0.0020 -1.1618
  103OSM    C5F10493   2.328  -0.460  10.019 -0.8627 -0.0260  0.1200
  103OSM    H5F10494   2.385  -0.550   9.986 -2.0686 -0.3255 -1.2114
  103OSM    H5G10495   2.394  -0.372  10.011  1.0159 -1.2471  1.7618
  103OSM    C6F10496   2.215  -0.446   9.917 -0.0003  0.3241  0.0381
  103OSM    H6F10497   2.167  -0.350   9.946  0.2189  0.6601 -0.6930
  103OSM    H6G10498   2.141  -0.527   9.936  1.5274 -0.8232  1.1584
  103OSM    C7F10499   2.243  -0.416   9.772 -0.0471  0.1074  0.9066
  103OSM    H7F10500   2.309  -0.328   9.754  2.0446 -1.4088  0.9660
  103OSM    H7G10501   2.150  -0.385   9.721  1.0629 -0.1060 -1.2800
  103OSM    C8F10502   2.337  -0.522   9.703  0.4015  0.3865 -0.2691
  103OSM    H8F10503   2.437  -0.542   9.748  0.8194  0.6102 -1.0764
  103OSM    H8G10504   2.374  -0.476   9.608  1.2620  1.7792  0.7197
  103OSM    C9F10505   2.262  -0.646   9.689 -0.6470  0.7896 -0.3668
  103OSM    H9F10506   2.271  -0.704   9.781  1.5948 -0.8948 -1.5953
  103OSM   C10F10507   2.187  -0.696   9.586  0.9912 -0.1849  0.0621
  103OSM   H10F10508   2.143  -0.796   9.596 -1.9600  0.9992 -0.5765
  103OSM   C11F10509   2.163  -0.633   9.442 -0.8352 -0.1659  0.0446
  103OSM   H11F10510   2.227  -0.544   9.427 -1.8140  0.5650  0.1910
  103OSM   H11G10511   2.058  -0.598   9.440 -1.5911 -2.2834  0.7336
  103OSM   C12F10512   2.183  -0.729   9.325 -0.2980 -0.3950  0.2577
  103OSM   H12F10513   2.103  -0.804   9.338 -1.0142  0.1879 -0.7384
  103OSM   H12G10514   2.279  -0.785   9.332  1.1475  1.7991 -1.3316
  103OSM   C13F10515   2.169  -0.651   9.194 -0.6593  0.5010  1.1053
  103OSM   H13F10516   2.067  -0.605   9.194 -0.7902  0.2485 -0.9742
  103OSM   H13G10517   2.240  -0.566   9.182  0.3760 -0.4731  0.1933
  103OSM   C14F10518   2.190  -0.746   9.074 -0.1202 -0.1180  0.4921
  103OSM   H14F10519   2.111  -0.823   9.066  0.3785 -0.7988  1.8554
  103OSM   H14G10520   2.289  -0.796   9.082 -0.4641 -1.0340 -0.9672
  103OSM   C15F10521   2.185  -0.659   8.941 -0.1008 -0.6645 -0.3150
  103OSM   H15F10522   2.242  -0.565   8.956 -3.5076  1.6471 -1.3406
  103OSM   H15G10523   2.079  -0.628   8.926  0.5242  1.8218  0.2535
  103OSM   C16F10524   2.229  -0.717   8.805 -0.5904 -0.1411  0.4442
  103OSM   H16F10525   2.185  -0.663   8.719  0.5154 -2.1998 -1.4800
  103OSM   H16G10526   2.182  -0.816   8.786 -0.2013  0.1148 -1.9422
  103OSM   C17F10527   2.378  -0.709   8.776 -0.5703  0.2736 -0.2899
  103OSM   H17F10528   2.447  -0.770   8.838 -1.4988 -0.4837  0.0253
  103OSM   H17G10529   2.405  -0.603   8.794  1.0949 -0.4677  1.7361
  103OSM   C18F10530   2.414  -0.735   8.626  0.1277  0.0466 -0.5717
  103OSM   H18F10531   2.409  -0.846   8.615  1.4060 -0.1735  0.8881
  103OSM   H18G10532   2.515  -0.708   8.590  0.6838 -0.7534  0.3724
  103OSM   H18H10533   2.335  -0.688   8.564 -0.0521 -0.4530 -0.7214
  104OSM      N10534   0.551   6.715  11.086 -0.0638  0.1867  0.2778
  104OSM    C1510535   0.601   6.851  11.051 -0.5272  0.2051 -0.1471
  104OSM   H15A10536   0.708   6.862  11.067 -0.2696 -0.8011 -1.0786
  104OSM   H15B10537   0.566   6.928  11.118  1.2893 -0.5166  1.6954
  104OSM   H15C10538   0.579   6.880  10.949 -1.4371  0.4844  0.1281
  104OSM    C1410539   0.646   6.614  11.033 -0.4082 -0.1072 -0.6749
  104OSM   H14A10540   0.662   6.624  10.927 -0.8580 -1.2477 -0.8577
  104OSM   H14B10541   0.607   6.515  11.048 -1.8220  0.5258 -0.0379
  104OSM   H14C10542   0.743   6.617  11.080 -1.2401  1.6312  1.0396
  104OSM    C1310543   0.548   6.699  11.229 -0.4175  0.4617 -0.3627
  104OSM   H13A10544   0.520   6.600  11.262  0.0205  0.3376 -0.3617
  104OSM   H13B10545   0.480   6.778  11.256  1.2959  2.3167 -1.3786
  104OSM   H13C10546   0.645   6.726  11.270 -0.5988 -0.4152  0.6809
  104OSM    C1210547   0.415   6.695  11.027 -0.7149 -0.5944  0.7953
  104OSM   H12A10548   0.362   6.785  11.055  0.6105  0.6889 -0.7615
  104OSM   H12B10549   0.371   6.609  11.076 -0.2736 -0.4056  1.5274
  104OSM    C1110550   0.399   6.684  10.872  0.4899  0.0437 -0.4135
  104OSM   H11A10551   0.301   6.636  10.855  0.4212  1.1936 -3.5044
  104OSM   H11B10552   0.473   6.609  10.836 -0.3576 -2.0468  2.0360
  104OSM      P10553   0.265   6.897  10.798 -0.2138  0.3420 -0.3544
  104OSM    O1310554   0.174   6.878  10.913 -0.4541 -0.4114  0.1548
  104OSM    O1410555   0.293   7.030  10.753  0.4866 -0.1775 -0.4924
  104OSM    O1110556   0.202   6.817  10.672  0.0874 -0.6718 -0.4078
  104OSM    O1210557   0.406   6.816  10.816  0.1098  0.2109 -0.4912
  104OSM    C1S10558   0.121   6.889  10.580 -0.5537 -0.5020  0.2838
  104OSM    H1S10559   0.130   6.999  10.594 -1.3234 -0.6714  2.3224
  104OSM    H1T10560   0.014   6.856  10.579 -1.3584  2.0215  0.1210
  104OSM     NF10561   0.111   6.948  10.344  0.3696  0.2524  0.2138
  104OSM    HNF10562   0.048   6.908  10.278  1.5702 -0.3536 -0.6030
  104OSM    C2S10563   0.171   6.861  10.441  0.3124  0.6337 -0.1515
  104OSM    H2S10564   0.280   6.884  10.434  0.9039 -1.3279  2.1063
  104OSM    C3S10565   0.152   6.707  10.403  0.4596 -0.9270 -0.0961
  104OSM    H3S10566   0.045   6.676  10.411  0.3415 -0.4800  0.0929
  104OSM     O310567   0.210   6.616  10.500 -0.0916  0.0756  0.2143
  104OSM    HO310568   0.230   6.679  10.570  1.7944  2.1568 -2.1043
  104OSM    C4S10569   0.201   6.677  10.263  0.6216  0.0566 -0.2577
  104OSM    H4S10570   0.118   6.664  10.192 -0.6071  1.8439  0.8204
  104OSM    C5S10571   0.335   6.675  10.224 -0.1671 -0.1679  0.2161
  104OSM    H5S10572   0.418   6.697  10.294 -0.0604  1.0421 -0.2754
  104OSM    C6S10573   0.378   6.642  10.087  0.1457  0.2709  0.5229
  104OSM    H6S10574   0.472   6.585  10.101 -1.1612 -2.1567 -0.2723
  104OSM    H6T10575   0.395   6.736  10.030 -0.1806  0.7328  1.1845
  104OSM    C7S10576   0.289   6.567   9.992 -0.5968  0.0108 -0.4976
  104OSM    H7S10577   0.202   6.628   9.960 -0.5891 -0.4537 -1.4147
  104OSM    H7T10578   0.244   6.477  10.037 -1.8452 -0.3096 -2.3671
  104OSM    C8S10579   0.369   6.520   9.864 -0.3928 -0.4776  0.5564
  104OSM    H8S10580   0.444   6.448   9.903 -0.7013 -1.8875 -1.3603
  104OSM    H8T10581   0.414   6.608   9.814  0.9161 -0.8960  0.9559
  104OSM    C9S10582   0.284   6.452   9.754  0.0194 -0.2644  0.3525
  104OSM    H9S10583   0.204   6.527   9.741 -0.8227 -1.2639 -0.3849
  104OSM    H9T10584   0.244   6.356   9.794  1.8019 -0.4513  1.7330
  104OSM   C10S10585   0.359   6.433   9.619 -0.5034  0.2195  0.5476
  104OSM   H10S10586   0.455   6.380   9.640 -0.8855 -0.5217  0.4574
  104OSM   H10T10587   0.382   6.529   9.569 -0.8833  0.2702  0.4694
  104OSM   C11S10588   0.285   6.349   9.511 -0.8921  0.7187 -0.2950
  104OSM   H11S10589   0.185   6.396   9.503 -1.8095 -1.1742 -0.2286
  104OSM   H11T10590   0.261   6.243   9.536 -2.9032  1.3877  0.7222
  104OSM   C12S10591   0.353   6.349   9.371  0.0100  0.2422  0.3998
  104OSM   H12S10592   0.441   6.282   9.383  0.1159  0.3728  0.3411
  104OSM   H12T10593   0.377   6.454   9.348 -2.8541  0.9611  0.5077
  104OSM   C13S10594   0.262   6.295   9.261  0.4873 -0.0948 -0.6312
  104OSM   H13S10595   0.174   6.362   9.257  1.1301  0.7278 -1.1180
  104OSM   H13T10596   0.225   6.199   9.303 -2.6001  1.5653  0.5620
  104OSM   C14S10597   0.329   6.280   9.130 -0.8805 -0.2232  0.9806
  104OSM   H14S10598   0.386   6.184   9.129  1.0174  0.8788 -0.0936
  104OSM   H14T10599   0.409   6.353   9.104  0.3838 -1.2140  1.9929
  104OSM   C15S10600   0.221   6.266   9.012 -0.0140  0.0412  0.1568
  104OSM   H15S10601   0.152   6.353   9.021 -0.4157 -0.2910  0.3040
  104OSM   H15T10602   0.151   6.181   9.028 -1.8233  1.6543  1.0299
  104OSM   C16S10603   0.294   6.252   8.874  0.5052 -0.1181  0.1805
  104OSM   H16S10604   0.335   6.149   8.868  1.1700  0.0332  1.9080
  104OSM   H16T10605   0.369   6.333   8.877 -0.3273  0.6764 -0.1041
  104OSM   C17S10606   0.205   6.271   8.759 -0.7952  0.3349  0.1650
  104OSM   H17S10607   0.154   6.370   8.764 -1.7736 -0.0167 -2.1198
  104OSM   H17T10608   0.127   6.192   8.766 -0.1472 -0.4056 -0.7480
  104OSM   C18S10609   0.273   6.269   8.626 -0.4145  0.0860 -0.4616
  104OSM   H18S10610   0.200   6.277   8.543 -1.8040 -2.0227  0.5135
  104OSM   H18T10611   0.325   6.171   8.613 -1.6279 -0.5541 -0.5045
  104OSM   H18U10612   0.357   6.342   8.615 -1.6139  1.8224  1.5714
  104OSM    C1F10613   0.130   7.079  10.339 -0.3864  0.4954 -0.0677
  104OSM     OF10614   0.199   7.134  10.418  0.0764  0.6098  0.1018
  104OSM    C2F10615   0.067   7.156  10.224  0.2471  0.0055 -0.1332
  104OSM    H2F10616   0.043   7.261  10.250  0.8533  0.1695 -0.2303
  104OSM    H2G10617  -0.029   7.117  10.183  0.9475 -0.7442 -1.0796
  104OSM    C3F10618   0.162   7.168  10.100 -0.4416  0.0183 -0.2175
  104OSM    H3F10619   0.201   7.069  10.068 -0.1137 -0.1379  0.6600
  104OSM    H3G10620   0.251   7.227  10.131  0.5866 -1.2457 -0.7206
  104OSM    C4F10621   0.087   7.217   9.975  1.0887  0.1312  0.1896
  104OSM    H4F10622   0.040   7.313  10.007  2.1647  0.5604  0.5302
  104OSM    H4G10623   0.001   7.147   9.975  0.6520  0.6422  2.1730
  104OSM    C5F10624   0.166   7.225   9.846 -0.0115  0.0976  0.3562
  104OSM    H5F10625   0.233   7.136   9.844  1.5643  1.2422  0.7438
  104OSM    H5G10626   0.229   7.316   9.851 -0.6879  0.5575  0.4990
  104OSM    C6F10627   0.079   7.222   9.718 -0.2335 -0.9721 -0.3597
  104OSM    H6F10628   0.011   7.309   9.712 -0.4328 -0.8869  2.4905
  104OSM    H6G10629  -0.005   7.149   9.730 -0.2091 -0.5355  2.9529
  104OSM    C7F10630   0.152   7.194   9.586  0.0318 -0.6354  0.5677
  104OSM    H7F10631   0.203   7.096   9.595 -0.6208 -1.2124 -1.6153
  104OSM    H7G10632   0.229   7.273   9.578 -0.2079 -0.6540 -2.6731
  104OSM    C8F10633   0.068   7.191   9.464 -0.4506 -0.3123  0.4081
  104OSM    H8F10634   0.047   7.299   9.446  1.6293  0.0132 -0.2225
  104OSM    H8G10635  -0.025   7.138   9.494  1.1494 -4.2125 -1.0785
  104OSM    C9F10636   0.147   7.132   9.351 -0.3329 -1.4149  0.5448
  104OSM    H9F10637   0.118   7.028   9.331 -2.1710 -0.5417 -1.6868
  104OSM   C10F10638   0.239   7.194   9.277  0.1898  0.0787  0.2893
  104OSM   H10F10639   0.297   7.132   9.207 -2.4354 -2.9462  0.6599
  104OSM   C11F10640   0.280   7.340   9.281  0.2051  0.0124  0.4365
  104OSM   H11F10641   0.369   7.352   9.348 -0.5910 -0.3670  1.5834
  104OSM   H11G10642   0.192   7.394   9.323 -0.5293 -1.5020  0.8666
  104OSM   C12F10643   0.300   7.379   9.132 -0.8901  0.7284 -0.2715
  104OSM   H12F10644   0.201   7.363   9.084 -0.5835  0.8478 -0.9499
  104OSM   H12G10645   0.378   7.317   9.082 -0.1743  0.2488  1.4267
  104OSM   C13F10646   0.318   7.530   9.104  0.0719 -0.2345 -0.4020
  104OSM   H13F10647   0.410   7.572   9.150 -0.9415  2.3671 -0.6686
  104OSM   H13G10648   0.234   7.587   9.149 -0.2202 -0.3181 -0.8469
  104OSM   C14F10649   0.330   7.558   8.955 -0.2213 -0.4684  0.5181
  104OSM   H14F10650   0.393   7.481   8.906 -0.5120 -0.5481  0.2710
  104OSM   H14G10651   0.388   7.651   8.939 -1.1380  0.1913  1.0121
  104OSM   C15F10652   0.197   7.572   8.877  0.7794 -0.6857  0.3016
  104OSM   H15F10653   0.150   7.666   8.912 -0.2266 -0.7488 -0.8396
  104OSM   H15G10654   0.139   7.480   8.898 -1.3230  0.1818 -1.4614
  104OSM   C16F10655   0.219   7.584   8.723  0.4823 -0.1244 -1.1245
  104OSM   H16F10656   0.311   7.644   8.709  1.0669 -0.6036  0.5811
  104OSM   H16G10657   0.132   7.637   8.678  0.1695  0.3180 -0.0220
  104OSM   C17F10658   0.224   7.446   8.659 -0.5433 -0.2033  0.1104
  104OSM   H17F10659   0.263   7.378   8.738 -3.9530 -0.9893  1.1941
  104OSM   H17G10660   0.280   7.447   8.563 -1.0277  0.9183 -0.1651
  104OSM   C18F10661   0.085   7.397   8.618  0.4877  0.6232 -0.2213
  104OSM   H18F10662   0.028   7.471   8.558  0.9836  0.1163 -1.3321
  104OSM   H18G10663   0.037   7.372   8.715 -0.4323  1.3143 -0.4827
  104OSM   H18H10664   0.109   7.304   8.561  0.3778  0.7348 -0.4494
  105OSM      N10665   6.645   6.552  10.771 -0.3358  0.0655 -0.4898
  105OSM    C1510666   6.683   6.530  10.626  0.2095  1.6254 -0.3238
  105OSM   H15A10667   6.647   6.432  10.599 -0.8090  1.0066  3.0105
  105OSM   H15B10668   6.791   6.526  10.617  0.3549  0.8663  1.3993
  105OSM   H15C10669   6.650   6.601  10.552  0.6299  4.2077  1.8556
  105OSM    C1410670   6.718   6.667  10.826  0.3745 -0.1834 -0.3453
  105OSM   H14A10671   6.697   6.688  10.930  0.6387 -0.3653 -0.2527
  105OSM   H14B10672   6.691   6.755  10.770  3.4645  0.9836 -0.0662
  105OSM   H14C10673   6.822   6.652  10.800  0.6600 -2.8720  2.0386
  105OSM    C1310674   6.495   6.582  10.783  0.4350 -0.4101 -0.1639
  105OSM   H13A10675   6.473   6.608  10.885  1.9850  0.0143  0.0770
  105OSM   H13B10676   6.440   6.497  10.745 -0.1286  0.1096 -0.5263
  105OSM   H13C10677   6.458   6.663  10.721  0.9858  0.2691  0.3797
  105OSM    C1210678   6.682   6.427  10.847  0.1352  0.3563 -0.4471
  105OSM   H12A10679   6.632   6.341  10.805  0.3503 -1.7340  3.3451
  105OSM   H12B10680   6.643   6.436  10.948  0.3087 -2.0639 -0.1258
  105OSM    C1110681   6.835   6.384  10.867  0.0848  0.3409  0.2258
  105OSM   H11A10682   6.840   6.316  10.955  2.4633 -0.4025 -0.4272
  105OSM   H11B10683   6.904   6.467  10.891  1.3944 -0.1950 -1.5572
  105OSM      P10684   6.849   6.160  10.720  0.1162  0.8552  0.2632
  105OSM    O1310685   6.957   6.078  10.781  0.4072  0.5111  0.8111
  105OSM    O1410686   6.710   6.134  10.755  0.2075 -0.0864 -0.2180
  105OSM    O1110687   6.857   6.145  10.561  0.3409 -0.3966  0.3088
  105OSM    O1210688   6.884   6.315  10.752 -0.2325 -0.0571 -0.2540
  105OSM    C1S10689   6.966   6.192  10.485  0.6320  0.3678 -0.1027
  105OSM    H1S10690   7.055   6.128  10.504  0.6269  0.1632 -0.7804
  105OSM    H1T10691   7.006   6.288  10.523 -1.2167 -0.1364  3.3605
  105OSM     NF10692   7.052   6.261  10.265  0.6186 -0.4320  0.0270
  105OSM    HNF10693   7.078   6.357  10.264 -0.0864 -0.2373 -0.0663
  105OSM    C2S10694   6.934   6.218  10.335 -0.2456  0.5287 -0.3442
  105OSM    H2S10695   6.899   6.127  10.282 -1.3493  0.3897  0.6188
  105OSM    C3S10696   6.812   6.322  10.327  0.2180  0.5657 -0.8656
  105OSM    H3S10697   6.843   6.426  10.352  0.5168  0.4211 -0.6335
  105OSM     O310698   6.705   6.291  10.422  0.3228 -0.2092  0.7139
  105OSM    HO310699   6.743   6.237  10.491 -0.1039 -3.1958 -1.3193
  105OSM    C4S10700   6.762   6.322  10.181  0.2126 -0.1743  0.1227
  105OSM    H4S10701   6.809   6.404  10.125 -1.6631  0.6802 -0.2511
  105OSM    C5S10702   6.666   6.247  10.133  0.0633  0.1406 -0.0651
  105OSM    H5S10703   6.633   6.162  10.195  1.7216 -0.5851 -0.1262
  105OSM    C6S10704   6.626   6.254   9.986 -0.1182  0.5780 -0.2011
  105OSM    H6S10705   6.521   6.291   9.982 -0.5779 -0.4140  2.0187
  105OSM    H6T10706   6.642   6.152   9.944 -0.8520  0.4190 -0.1107
  105OSM    C7S10707   6.709   6.339   9.888 -0.1235  0.0800  0.1502
  105OSM    H7S10708   6.815   6.308   9.873 -0.1611  0.2127 -0.4416
  105OSM    H7T10709   6.712   6.443   9.927 -1.4627 -0.1624  0.9081
  105OSM    C8S10710   6.651   6.345   9.743  0.3347  0.7033  0.5001
  105OSM    H8S10711   6.729   6.398   9.684  1.2064 -1.5187 -0.3937
  105OSM    H8T10712   6.551   6.393   9.751  1.1552  2.7130 -0.9254
  105OSM    C9S10713   6.649   6.200   9.672 -0.7563  0.1732 -0.6867
  105OSM    H9S10714   6.577   6.140   9.732  0.4305  0.7161  1.3445
  105OSM    H9T10715   6.752   6.166   9.694 -0.8358 -0.2576 -0.9949
  105OSM   C10S10716   6.596   6.200   9.527 -0.4903  0.1537 -0.0319
  105OSM   H10S10717   6.502   6.259   9.519 -0.5290  0.0638 -0.2649
  105OSM   H10T10718   6.572   6.092   9.519  1.3463 -0.4077  1.6347
  105OSM   C11S10719   6.700   6.242   9.424  0.3466 -0.2906 -0.2613
  105OSM   H11S10720   6.799   6.208   9.461  0.9167  0.8569 -0.7250
  105OSM   H11T10721   6.707   6.352   9.414 -0.9106 -0.1540  0.3377
  105OSM   C12S10722   6.677   6.168   9.293  0.5213  1.0273 -0.2066
  105OSM   H12S10723   6.670   6.059   9.312  0.6910  1.3656  1.9552
  105OSM   H12T10724   6.764   6.190   9.226  0.6019 -2.6230 -1.4022
  105OSM   C13S10725   6.552   6.207   9.211  0.3732 -0.4681  0.1740
  105OSM   H13S10726   6.538   6.317   9.217 -0.1708 -0.3605 -2.3726
  105OSM   H13T10727   6.457   6.158   9.243 -0.2471  0.2899 -0.4874
  105OSM   C14S10728   6.553   6.156   9.067 -0.4153 -0.3209 -0.0297
  105OSM   H14S10729   6.656   6.177   9.032 -0.5469  1.5705  0.6724
  105OSM   H14T10730   6.485   6.212   8.999 -0.3798  1.2935  1.2461
  105OSM   C15S10731   6.525   6.002   9.049  0.4848  0.4788  0.4365
  105OSM   H15S10732   6.419   5.983   9.078  0.8053  0.4164  1.6123
  105OSM   H15T10733   6.589   5.952   9.125  2.9155  0.7840 -1.3484
  105OSM   C16S10734   6.565   5.942   8.918  0.8119 -0.5563  0.0087
  105OSM   H16S10735   6.672   5.968   8.899 -0.0490  2.0424 -1.4727
  105OSM   H16T10736   6.520   5.994   8.831  3.1226  0.7162 -0.4833
  105OSM   C17S10737   6.536   5.790   8.905 -0.1945  0.5530  0.3265
  105OSM   H17S10738   6.591   5.735   8.985 -3.5877  1.0657  3.1588
  105OSM   H17T10739   6.570   5.762   8.803 -0.0275  0.4354  0.4146
  105OSM   C18S10740   6.385   5.776   8.920  0.0301  0.0672  0.1753
  105OSM   H18S10741   6.347   5.796   9.022  1.6303  0.5833  0.6997
  105OSM   H18T10742   6.366   5.670   8.894 -4.3152  1.1576 -1.5087
  105OSM   H18U10743   6.330   5.836   8.844  1.0796  0.3322 -0.3939
  105OSM    C1F10744   7.141   6.165  10.231 -0.5330  0.1284  0.2629
  105OSM     OF10745   7.116   6.045  10.237 -0.0596  0.1845 -0.4635
  105OSM    C2F10746   7.279   6.203  10.194 -0.3246 -0.4775  0.1617
  105OSM    H2F10747   7.329   6.233  10.289  1.2350  1.2318 -1.1459
  105OSM    H2G10748   7.276   6.306  10.153  1.4783 -0.3180  0.3881
  105OSM    C3F10749   7.341   6.097  10.113 -0.5899 -0.1914 -0.5455
  105OSM    H3F10750   7.329   5.997  10.160 -0.7386 -0.6990 -1.6266
  105OSM    H3G10751   7.452   6.102  10.110 -0.2438 -3.3993  2.8896
  105OSM    C4F10752   7.281   6.074   9.981 -0.0894  0.8386 -1.2384
  105OSM    H4F10753   7.284   6.164   9.917 -3.1594 -0.1291 -2.8134
  105OSM    H4G10754   7.175   6.041   9.984  0.9497 -2.6142  0.4277
  105OSM    C5F10755   7.365   5.963   9.902  0.4376 -0.1695 -0.5068
  105OSM    H5F10756   7.368   5.867   9.958 -0.2968  1.9045  3.3002
  105OSM    H5G10757   7.467   6.000   9.880  0.5271 -0.0237  0.1604
  105OSM    C6F10758   7.288   5.937   9.769  0.4707 -0.1697 -0.1422
  105OSM    H6F10759   7.182   5.917   9.794  0.4311  1.1683  0.8343
  105OSM    H6G10760   7.335   5.843   9.733 -0.8194 -0.4263 -1.2053
  105OSM    C7F10761   7.279   6.050   9.660 -0.4161 -0.3680 -0.2467
  105OSM    H7F10762   7.386   6.077   9.650 -0.1422 -0.9742  0.8785
  105OSM    H7G10763   7.207   6.127   9.696 -1.0962 -2.4195  3.0451
  105OSM    C8F10764   7.221   6.017   9.522  0.0075  0.9206 -0.1106
  105OSM    H8F10765   7.253   6.097   9.452  2.0887 -0.2188 -0.4928
  105OSM    H8G10766   7.110   6.010   9.524  0.1003 -1.9106 -2.6852
  105OSM    C9F10767   7.270   5.884   9.471 -0.6750 -0.1785  0.8856
  105OSM    H9F10768   7.211   5.798   9.508 -2.3848 -0.1304 -1.5804
  105OSM   C10F10769   7.374   5.860   9.387 -0.8999  0.3215 -0.6844
  105OSM   H10F10770   7.404   5.758   9.360  1.4388  0.2441  2.0710
  105OSM   C11F10771   7.460   5.969   9.325 -0.4538  0.1573 -0.0693
  105OSM   H11F10772   7.563   5.960   9.366  1.0787  2.9365 -3.0758
  105OSM   H11G10773   7.424   6.071   9.349 -0.5929  0.0700  0.0879
  105OSM   C12F10774   7.459   5.973   9.161 -0.1952 -0.0244  0.8476
  105OSM   H12F10775   7.356   5.989   9.124  0.1344 -0.9304 -0.4998
  105OSM   H12G10776   7.481   5.882   9.102  0.4952 -0.1740  1.3320
  105OSM   C13F10777   7.543   6.086   9.102 -0.5121  0.0674 -0.5624
  105OSM   H13F10778   7.648   6.085   9.139 -0.7752 -0.4698  0.1818
  105OSM   H13G10779   7.490   6.180   9.129 -2.7911 -1.7385  1.5843
  105OSM   C14F10780   7.567   6.074   8.953  0.4448 -0.3358  0.2732
  105OSM   H14F10781   7.468   6.074   8.903  0.9128  0.0292 -0.6540
  105OSM   H14G10782   7.619   5.978   8.936  1.9305  0.2983  1.1699
  105OSM   C15F10783   7.630   6.199   8.892  0.2124  0.1186 -0.4798
  105OSM   H15F10784   7.731   6.214   8.937  0.3074 -1.2619 -0.2338
  105OSM   H15G10785   7.562   6.286   8.903 -1.3928 -0.7878 -2.9588
  105OSM   C16F10786   7.653   6.190   8.746  0.4625 -0.0815 -0.5035
  105OSM   H16F10787   7.723   6.275   8.728  0.0051  0.9449  2.3233
  105OSM   H16G10788   7.562   6.204   8.684  2.4014 -1.1469 -3.7232
  105OSM   C17F10789   7.729   6.078   8.691 -0.2675 -0.5643 -0.2228
  105OSM   H17F10790   7.668   5.986   8.701  1.9855 -1.9756  0.8840
  105OSM   H17G10791   7.820   6.072   8.755 -0.6088 -2.7856  0.0771
  105OSM   C18F10792   7.800   6.099   8.553 -0.4843 -0.1496  0.0004
  105OSM   H18F10793   7.867   6.188   8.555  1.4944 -1.5011 -2.6731
  105OSM   H18G10794   7.734   6.106   8.463 -3.6478 -1.4355  2.1161
  105OSM   H18H10795   7.860   6.008   8.536 -0.8160 -0.3363 -0.1980
  106OSM      N10796   1.374   4.171  11.020  0.1538 -0.1990  0.3195
  106OSM    C1510797   1.224   4.177  11.034  0.4024 -0.6122 -0.7885
  106OSM   H15A10798   1.172   4.171  10.940  1.7487 -0.8401 -1.5270
  106OSM   H15B10799   1.191   4.268  11.083  0.1856 -0.8294 -0.5338
  106OSM   H15C10800   1.181   4.098  11.093  1.7249 -1.5292 -1.0512
  106OSM    C1410801   1.411   4.306  10.950  0.4163 -0.2228  0.0035
  106OSM   H14A10802   1.383   4.299  10.846 -1.2158  2.8034  0.1893
  106OSM   H14B10803   1.517   4.321  10.960  0.3703 -1.1158  2.1830
  106OSM   H14C10804   1.361   4.384  11.005 -0.9148 -0.9541 -0.1462
  106OSM    C1310805   1.440   4.170  11.157 -0.2457  0.3625  0.0069
  106OSM   H13A10806   1.413   4.078  11.208  1.8424  0.0872  0.6611
  106OSM   H13B10807   1.413   4.261  11.208  0.1411  1.6065 -1.9594
  106OSM   H13C10808   1.546   4.180  11.142 -0.3535  2.1780  0.3977
  106OSM    C1210809   1.418   4.053  10.935  0.1919 -0.1033 -0.0313
  106OSM   H12A10810   1.403   3.962  10.992  0.0845 -0.2395 -0.2756
  106OSM   H12B10811   1.525   4.069  10.925  0.3084 -0.3057  0.8818
  106OSM    C1110812   1.358   4.027  10.787 -0.2556 -0.0008 -0.1473
  106OSM   H11A10813   1.248   4.014  10.797 -0.2948  1.4988  1.6375
  106OSM   H11B10814   1.402   3.930  10.756 -0.6934 -0.2464 -0.0034
  106OSM      P10815   1.501   4.168  10.607  0.3180 -0.2825  0.4575
  106OSM    O1310816   1.467   4.289  10.528  0.4021 -0.1491 -0.0986
  106OSM    O1410817   1.617   4.161  10.690 -0.2113 -0.1567 -0.4915
  106OSM    O1110818   1.507   4.045  10.511 -0.2490  0.7093 -0.0628
  106OSM    O1210819   1.369   4.136  10.693 -0.1555 -0.4432  0.3910
  106OSM    C1S10820   1.421   4.037  10.393  0.3940 -0.0607  0.7392
  106OSM    H1S10821   1.450   4.114  10.318 -2.6742  0.7173  0.2774
  106OSM    H1T10822   1.318   4.047  10.434  0.0193  0.5074 -0.3395
  106OSM     NF10823   1.373   3.925  10.180 -0.6297 -0.0944 -0.6290
  106OSM    HNF10824   1.276   3.912  10.161 -0.8312 -0.6744  0.7042
  106OSM    C2S10825   1.424   3.904  10.316  0.5021 -0.0344 -0.0999
  106OSM    H2S10826   1.530   3.873  10.314  0.7548  0.6735  1.4367
  106OSM    C3S10827   1.333   3.809  10.405 -0.9937 -0.4773  0.9711
  106OSM    H3S10828   1.231   3.850  10.412 -0.9052 -0.3630  1.5857
  106OSM     O310829   1.378   3.790  10.540  0.0718 -0.7851  0.0449
  106OSM    HO310830   1.439   3.861  10.556 -0.0515  0.3181 -3.8954
  106OSM    C4S10831   1.335   3.668  10.342 -0.5778 -0.3920  0.2302
  106OSM    H4S10832   1.420   3.600  10.359  1.3518  2.5020  2.7370
  106OSM    C5S10833   1.226   3.623  10.277 -0.1720 -0.4218  0.3210
  106OSM    H5S10834   1.132   3.680  10.274 -0.5816 -1.0151  1.4028
  106OSM    C6S10835   1.220   3.482  10.213  0.0232 -0.0671 -0.6655
  106OSM    H6S10836   1.139   3.425  10.263  1.1034 -0.3686  0.7357
  106OSM    H6T10837   1.312   3.421  10.211  0.5567  0.7412 -1.0458
  106OSM    C7S10838   1.202   3.502  10.061 -0.2464 -0.9015 -0.1942
  106OSM    H7S10839   1.259   3.582  10.010 -0.2056 -1.3088 -0.7911
  106OSM    H7T10840   1.103   3.553  10.063  1.0093  1.6237 -0.3477
  106OSM    C8S10841   1.193   3.373   9.987 -0.4394  0.0253  0.1495
  106OSM    H8S10842   1.104   3.323  10.030 -0.7937 -1.1605 -1.8827
  106OSM    H8T10843   1.291   3.322   9.998 -0.1678  0.4807 -0.1745
  106OSM    C9S10844   1.152   3.400   9.844 -0.1497 -0.5228  0.6532
  106OSM    H9S10845   1.171   3.505   9.814  1.9931 -1.0829 -0.0627
  106OSM    H9T10846   1.046   3.383   9.815 -0.3712  2.6171 -0.5057
  106OSM   C10S10847   1.226   3.320   9.739 -0.5001  0.0856 -0.4596
  106OSM   H10S10848   1.203   3.212   9.756 -1.6169  0.2046 -1.1771
  106OSM   H10T10849   1.333   3.317   9.769 -0.4858  0.6233 -0.4636
  106OSM   C11S10850   1.189   3.369   9.598  0.5854 -0.3190 -0.2415
  106OSM   H11S10851   1.230   3.473   9.588 -2.0373  0.8926  1.2061
  106OSM   H11T10852   1.080   3.379   9.582  0.4537  2.0348  1.8256
  106OSM   C12S10853   1.257   3.289   9.492 -0.0449  0.6662  0.1572
  106OSM   H12S10854   1.233   3.181   9.505 -0.2694  0.8420  1.2676
  106OSM   H12T10855   1.367   3.276   9.502 -0.1879  0.4867  1.5768
  106OSM   C13S10856   1.221   3.337   9.353 -0.1752  0.0884  0.3214
  106OSM   H13S10857   1.253   3.442   9.336 -1.5501  0.2021 -1.8055
  106OSM   H13T10858   1.111   3.328   9.341 -0.0703 -1.3051  0.3425
  106OSM   C14S10859   1.286   3.246   9.247 -0.0026 -0.3020 -0.3734
  106OSM   H14S10860   1.282   3.139   9.278  1.9548  0.1069  1.4138
  106OSM   H14T10861   1.395   3.268   9.247 -0.3456  1.4247  0.7117
  106OSM   C15S10862   1.207   3.251   9.109 -0.7964 -0.8187  0.0961
  106OSM   H15S10863   1.193   3.358   9.083 -2.0097 -1.1151 -0.5342
  106OSM   H15T10864   1.106   3.204   9.118 -1.1738  0.5509  3.8936
  106OSM   C16S10865   1.284   3.180   9.002  0.2445 -0.4924  0.0604
  106OSM   H16S10866   1.305   3.078   9.042  1.5609  0.1134  0.9539
  106OSM   H16T10867   1.386   3.225   8.993 -0.2430  0.3055 -1.6753
  106OSM   C17S10868   1.213   3.167   8.862 -0.5879 -0.3070  0.3138
  106OSM   H17S10869   1.158   3.260   8.835 -1.4423 -0.1746  2.4239
  106OSM   H17T10870   1.139   3.084   8.869 -1.5947  0.5452  0.0110
  106OSM   C18S10871   1.307   3.133   8.747 -0.1862 -0.1150  0.1487
  106OSM   H18S10872   1.363   3.220   8.707  1.4866 -1.1699  0.1689
  106OSM   H18T10873   1.242   3.101   8.663  2.0122  2.2160 -2.5076
  106OSM   H18U10874   1.374   3.048   8.772 -0.3758 -1.2512 -3.0327
  106OSM    C1F10875   1.448   3.985  10.088  0.2372  0.0764  0.9848
  106OSM     OF10876   1.563   4.015  10.119 -0.0138  0.6614  0.0242
  106OSM    C2F10877   1.378   4.017   9.958 -0.2503  0.5177  0.1413
  106OSM    H2F10878   1.274   4.053   9.974 -0.5578  0.7181 -2.1029
  106OSM    H2G10879   1.385   3.922   9.901  1.7774 -0.1972  1.5041
  106OSM    C3F10880   1.457   4.135   9.877  0.2090  0.9092  0.6376
  106OSM    H3F10881   1.564   4.107   9.875  0.1618  0.7152  0.7747
  106OSM    H3G10882   1.444   4.230   9.932  1.8044  0.3741  1.9561
  106OSM    C4F10883   1.392   4.140   9.738 -0.1686  0.4422  0.0779
  106OSM    H4F10884   1.393   4.042   9.687 -1.6008  0.0724  0.7515
  106OSM    H4G10885   1.457   4.197   9.668 -1.5146 -0.6697 -2.1030
  106OSM    C5F10886   1.258   4.209   9.754  0.6205 -0.3923  0.5348
  106OSM    H5F10887   1.272   4.301   9.815 -0.8159 -1.4255  2.4832
  106OSM    H5G10888   1.191   4.146   9.815  0.0543  0.2173  0.5462
  106OSM    C6F10889   1.186   4.241   9.615  0.0690 -0.6682 -0.8576
  106OSM    H6F10890   1.079   4.270   9.623  0.4409  1.2974 -2.6893
  106OSM    H6G10891   1.191   4.147   9.556  0.2556 -0.8381 -0.5764
  106OSM    C7F10892   1.263   4.352   9.539 -0.1283 -0.7572  0.9357
  106OSM    H7F10893   1.213   4.387   9.446  0.9770  1.4908  1.1580
  106OSM    H7G10894   1.364   4.317   9.510 -0.3116 -0.2336 -0.3818
  106OSM    C8F10895   1.295   4.473   9.632  1.2299 -0.3813 -0.2948
  106OSM    H8F10896   1.348   4.550   9.571 -1.7412  1.1039 -1.1296
  106OSM    H8G10897   1.352   4.446   9.723  0.1017 -1.6348  0.0572
  106OSM    C9F10898   1.162   4.528   9.671 -0.1371  0.1086  0.0931
  106OSM    H9F10899   1.112   4.474   9.753 -0.9734  0.6176 -0.0760
  106OSM   C10F10900   1.102   4.638   9.619 -0.0772 -0.6615  0.9379
  106OSM   H10F10901   1.007   4.671   9.664  0.6577  1.2531  1.1236
  106OSM   C11F10902   1.136   4.737   9.511  0.0420  0.1489  0.7080
  106OSM   H11F10903   1.238   4.716   9.474 -0.2687 -2.7697  1.4312
  106OSM   H11G10904   1.119   4.842   9.545 -0.1962 -0.2720  1.9009
  106OSM   C12F10905   1.041   4.719   9.390 -0.0847  0.3362  0.0629
  106OSM   H12F10906   1.065   4.797   9.314  2.4564 -1.4224 -1.0197
  106OSM   H12G10907   0.937   4.735   9.425  1.2305  3.4998  2.8104
  106OSM   C13F10908   1.060   4.596   9.308  0.7592 -0.0142  0.0818
  106OSM   H13F10909   1.039   4.499   9.359 -0.0453  0.0163 -0.1756
  106OSM   H13G10910   1.167   4.589   9.279  0.7157 -2.3395  0.3563
  106OSM   C14F10911   0.971   4.592   9.187  0.2689 -0.2008  0.3571
  106OSM   H14F10912   0.995   4.682   9.127  2.1186 -1.3973 -0.7726
  106OSM   H14G10913   0.861   4.594   9.201  0.1493  1.7803 -0.6965
  106OSM   C15F10914   1.013   4.470   9.105  0.2285 -0.5996  0.0596
  106OSM   H15F10915   0.972   4.380   9.155  0.0008  0.4208  1.7503
  106OSM   H15G10916   1.124   4.457   9.112  0.5591  2.1135  0.6152
  106OSM   C16F10917   0.965   4.484   8.954 -0.0199  0.1201 -0.5725
  106OSM   H16F10918   0.997   4.582   8.914  0.7430 -0.4393 -1.3549
  106OSM   H16G10919   0.855   4.470   8.950 -0.0670  0.8216 -2.1018
  106OSM   C17F10920   1.041   4.380   8.874  0.3940  0.0617 -0.4186
  106OSM   H17F10921   1.026   4.276   8.911  1.1160  0.4256  0.9366
  106OSM   H17G10922   1.152   4.386   8.877  0.5020  0.9176 -3.6639
  106OSM   C18F10923   1.006   4.380   8.725  0.3581  0.1942  0.1478
  106OSM   H18F10924   0.895   4.385   8.721  0.2375 -1.2200  1.0929
  106OSM   H18G10925   1.041   4.290   8.669  1.1012  0.9581 -0.6258
  106OSM   H18H10926   1.045   4.476   8.686 -1.3978  1.3007  1.1016
  107OSM      N10927   2.046   1.883  11.331  0.3024  0.0435 -0.0651
  107OSM    C1510928   2.034   1.919  11.473  0.3127  0.6604  0.9188
  107OSM   H15A10929   2.124   1.967  11.508  1.5404 -0.5649 -0.4586
  107OSM   H15B10930   2.034   1.833  11.539  1.9544 -0.1265 -0.0577
  107OSM   H15C10931   1.949   1.984  11.485  0.0411  0.3997  0.4406
  107OSM    C1410932   2.147   1.772  11.309 -0.2383  0.0423 -0.6806
  107OSM   H14A10933   2.154   1.753  11.203  2.5597 -0.9954 -0.3595
  107OSM   H14B10934   2.118   1.680  11.358 -1.7170  0.4480 -0.7892
  107OSM   H14C10935   2.245   1.799  11.344 -0.6497  0.5688  0.0775
  107OSM    C1310936   1.925   1.829  11.271  0.3880 -0.5966 -0.0081
  107OSM   H13A10937   1.884   1.747  11.327  1.8121  0.9188  3.3908
  107OSM   H13B10938   1.942   1.783  11.175  3.3632  2.4122 -1.0331
  107OSM   H13C10939   1.847   1.903  11.257  1.3322  0.5361  0.5584
  107OSM    C1210940   2.085   2.003  11.251  0.1152 -0.0151 -0.0886
  107OSM   H12A10941   2.103   1.964  11.151  1.0537  0.9050 -0.2889
  107OSM   H12B10942   2.180   2.044  11.280 -0.6263  2.0841 -0.5645
  107OSM    C1110943   1.989   2.126  11.232  0.0055  0.9919 -0.0432
  107OSM   H11A10944   2.045   2.190  11.162  2.1763 -0.7960  0.0008
  107OSM   H11B10945   1.976   2.181  11.328  2.0636  0.8312  0.3567
  107OSM      P10946   1.815   2.077  11.035  0.1684  0.0825 -0.0951
  107OSM    O1310947   1.722   1.961  11.051  0.3035 -0.0002  0.3911
  107OSM    O1410948   1.760   2.206  10.983 -0.4089 -0.2280  0.3572
  107OSM    O1110949   1.946   2.041  10.955  0.0757 -0.0845  0.0499
  107OSM    O1210950   1.860   2.092  11.185  0.4109 -0.2977  0.1700
  107OSM    C1S10951   1.951   2.040  10.812  0.4708 -0.4309  0.3544
  107OSM    H1S10952   1.853   2.054  10.760  0.3419 -2.3828  0.0423
  107OSM    H1T10953   1.971   1.933  10.792  0.6998 -0.2254 -0.5595
  107OSM     NF10954   2.037   2.115  10.595 -0.0775 -0.3940  0.0389
  107OSM    HNF10955   2.099   2.052  10.549 -0.7472 -2.0463  1.3833
  107OSM    C2S10956   2.053   2.133  10.745  0.5414  0.0047 -0.2113
  107OSM    H2S10957   2.032   2.239  10.767  0.6155  0.2152 -1.1446
  107OSM    C3S10958   2.197   2.102  10.796  0.0106  0.6646 -0.3991
  107OSM    H3S10959   2.211   1.994  10.773 -2.5085 -0.3371  2.4567
  107OSM     O310960   2.221   2.108  10.933  0.3179  0.7951 -0.1395
  107OSM    HO310961   2.141   2.076  10.976 -0.4488  0.5673 -1.7269
  107OSM    C4S10962   2.287   2.193  10.729 -0.5134  0.6455  0.1769
  107OSM    H4S10963   2.261   2.300  10.728  1.9244  1.2959  1.1587
  107OSM    C5S10964   2.380   2.144  10.642 -0.4079 -0.4181  0.1663
  107OSM    H5S10965   2.380   2.036  10.619  0.5126 -0.8003  1.9314
  107OSM    C6S10966   2.464   2.230  10.552 -0.5889 -0.3176 -0.4937
  107OSM    H6S10967   2.574   2.217  10.569 -1.2508 -1.7141  3.2009
  107OSM    H6T10968   2.437   2.336  10.571 -2.7222 -1.0557  0.7922
  107OSM    C7S10969   2.438   2.206  10.401  0.3600 -0.3826  0.7977
  107OSM    H7S10970   2.498   2.269  10.332  0.4161 -1.6869 -0.3790
  107OSM    H7T10971   2.335   2.244  10.385  1.0882  0.3475 -2.4428
  107OSM    C8S10972   2.438   2.069  10.335 -0.1137  0.1541 -0.0525
  107OSM    H8S10973   2.377   2.002  10.398 -1.4900  0.4310 -1.0554
  107OSM    H8T10974   2.546   2.042  10.335 -0.0764  0.2538 -1.4129
  107OSM    C9S10975   2.396   2.059  10.189 -0.1926 -0.2376  0.4813
  107OSM    H9S10976   2.289   2.087  10.175 -0.1759 -1.1978 -1.8608
  107OSM    H9T10977   2.405   1.951  10.165 -0.2527  0.4823 -2.9873
  107OSM   C10S10978   2.480   2.141  10.092  1.0335 -0.4580  0.7336
  107OSM   H10S10979   2.584   2.104  10.106  0.8052 -1.1025  0.7372
  107OSM   H10T10980   2.486   2.250  10.114 -1.7723 -0.4631  1.6872
  107OSM   C11S10981   2.437   2.118   9.942  0.2461  0.2326  0.6551
  107OSM   H11S10982   2.343   2.176   9.928 -0.1595 -1.0510 -2.4155
  107OSM   H11T10983   2.426   2.009   9.923  3.3854 -0.1172  0.4966
  107OSM   C12S10984   2.547   2.159   9.833  0.5588  0.0452  0.0554
  107OSM   H12S10985   2.647   2.125   9.869  0.5306  0.0039  0.0927
  107OSM   H12T10986   2.541   2.270   9.839  1.7487  0.1042  0.4776
  107OSM   C13S10987   2.508   2.106   9.692 -0.7843  0.4991 -0.5268
  107OSM   H13S10988   2.511   1.995   9.701  0.5129  0.6077  0.5037
  107OSM   H13T10989   2.588   2.143   9.625  0.3713 -1.2329 -0.1390
  107OSM   C14S10990   2.365   2.134   9.649 -0.7316  0.7529  0.3987
  107OSM   H14S10991   2.351   2.243   9.663  0.2684  0.8440  0.6907
  107OSM   H14T10992   2.287   2.087   9.712 -1.1108 -1.4229 -1.6275
  107OSM   C15S10993   2.333   2.106   9.503 -0.4254 -0.2655 -0.2046
  107OSM   H15S10994   2.338   1.995   9.502 -1.9327 -0.3309 -1.7862
  107OSM   H15T10995   2.409   2.139   9.429 -0.0433 -0.8397 -0.0782
  107OSM   C16S10996   2.197   2.150   9.474  0.3629  1.0249  0.9517
  107OSM   H16S10997   2.214   2.259   9.459  2.8537  0.4626 -0.7246
  107OSM   H16T10998   2.139   2.136   9.567 -1.9761 -3.0410 -0.9612
  107OSM   C17S10999   2.135   2.088   9.351 -0.2907 -0.6285 -1.0447
  107OSM   H17S11000   2.218   2.096   9.278 -2.0615 -1.1251 -3.1728
  107OSM   H17T11001   2.046   2.146   9.319 -0.4813  0.1882  0.9382
  107OSM   C18S11002   2.102   1.937   9.366  0.1108  0.0673 -0.5557
  107OSM   H18S11003   2.073   1.899   9.266  1.5470 -4.1269  0.4935
  107OSM   H18T11004   2.027   1.907   9.443 -0.3802 -1.0085 -1.4393
  107OSM   H18U11005   2.191   1.873   9.384 -0.4318 -0.1155  1.6480
  107OSM    C1F11006   1.936   2.170  10.530 -0.6072 -0.1344 -0.1402
  107OSM     OF11007   1.875   2.261  10.576 -0.0847  0.1683  0.0231
  107OSM    C2F11008   1.908   2.123  10.390  0.5507  0.1923 -0.7157
  107OSM    H2F11009   1.858   2.025  10.402  1.8102 -0.1924  1.7749
  107OSM    H2G11010   2.004   2.106  10.336  0.9102  1.4969 -0.5050
  107OSM    C3F11011   1.818   2.223  10.305 -0.3493  0.7793  0.0738
  107OSM    H3F11012   1.858   2.327  10.306  0.6605  0.4017  2.7215
  107OSM    H3G11013   1.723   2.220  10.362  1.0008  1.2998  2.4548
  107OSM    C4F11014   1.780   2.169  10.169  0.4538  0.1593 -0.1383
  107OSM    H4F11015   1.691   2.216  10.123  0.1771 -1.6089 -1.5049
  107OSM    H4G11016   1.745   2.064  10.180  1.6737 -0.1274  1.0762
  107OSM    C5F11017   1.891   2.181  10.062 -0.4568  0.2960 -0.7291
  107OSM    H5F11018   1.989   2.137  10.090  0.1156  2.9264  1.5851
  107OSM    H5G11019   1.906   2.287  10.034  0.2752  0.4783  0.3383
  107OSM    C6F11020   1.852   2.109   9.930 -0.4143  0.2115 -0.1901
  107OSM    H6F11021   1.753   2.145   9.894 -0.1426  0.5160 -0.6418
  107OSM    H6G11022   1.837   2.001   9.951 -3.3359  0.7743  0.8462
  107OSM    C7F11023   1.939   2.138   9.808 -0.1434  0.9319 -0.2817
  107OSM    H7F11024   2.032   2.078   9.814  0.2807  1.5697 -0.3328
  107OSM    H7G11025   1.963   2.247   9.808 -0.5728  1.0269  0.5847
  107OSM    C8F11026   1.857   2.108   9.676  0.6244  0.3827  0.2873
  107OSM    H8F11027   1.923   2.143   9.593 -0.8737  2.5290 -0.0152
  107OSM    H8G11028   1.758   2.158   9.675  0.1748 -0.4867 -1.0749
  107OSM    C9F11029   1.829   1.957   9.661 -0.5526  0.3492 -0.6258
  107OSM    H9F11030   1.901   1.889   9.707 -0.9121  1.1523  1.1728
  107OSM   C10F11031   1.722   1.898   9.602  0.0024  0.6617 -0.2003
  107OSM   H10F11032   1.721   1.788   9.599 -0.3192  0.6815 -1.0740
  107OSM   C11F11033   1.596   1.950   9.541 -0.4196 -0.3655 -0.2065
  107OSM   H11F11034   1.591   2.060   9.527  0.5374 -0.5354 -2.1127
  107OSM   H11G11035   1.517   1.946   9.618  0.4311 -1.4727  0.6155
  107OSM   C12F11036   1.554   1.873   9.417  1.0421 -0.9395 -0.8940
  107OSM   H12F11037   1.446   1.895   9.403  1.0575 -0.0836  0.2873
  107OSM   H12G11038   1.563   1.762   9.425 -0.1208 -0.8829  1.6846
  107OSM   C13F11039   1.632   1.919   9.293 -0.2514 -0.0135 -0.3764
  107OSM   H13F11040   1.741   1.913   9.315 -0.3694  0.8101  0.4807
  107OSM   H13G11041   1.630   2.029   9.285  1.2599  0.1544  1.1726
  107OSM   C14F11042   1.607   1.847   9.158  0.0489 -0.4406  0.7764
  107OSM   H14F11043   1.498   1.837   9.134 -0.1285  2.2754  0.3596
  107OSM   H14G11044   1.631   1.740   9.179  0.3532 -0.3736  0.7656
  107OSM   C15F11045   1.683   1.900   9.037  0.1535  0.6589  0.1331
  107OSM   H15F11046   1.790   1.889   9.065  0.7180  1.8851 -1.4081
  107OSM   H15G11047   1.654   2.006   9.019  0.3317  0.7076  0.1321
  107OSM   C16F11048   1.663   1.822   8.903 -0.0510  0.1706 -0.5724
  107OSM   H16F11049   1.594   1.886   8.845  0.4308  1.2515  0.0201
  107OSM   H16G11050   1.617   1.725   8.930  1.5622 -0.4131  0.1916
  107OSM   C17F11051   1.803   1.798   8.845  0.1806 -0.0050  0.5504
  107OSM   H17F11052   1.868   1.726   8.899  3.7801  1.1906 -2.0091
  107OSM   H17G11053   1.852   1.898   8.844 -0.3394  0.2679  1.2476
  107OSM   C18F11054   1.796   1.746   8.703  0.0337 -0.3901  0.2695
  107OSM   H18F11055   1.901   1.734   8.668  0.6968  0.9667  1.7072
  107OSM   H18G11056   1.743   1.810   8.631 -3.1214 -2.4473  0.6691
  107OSM   H18H11057   1.744   1.648   8.699  0.6050 -0.7122  0.6402
  108OSM      N11058   5.531   6.419  11.185  0.4378  0.0013 -0.1151
  108OSM    C1511059   5.633   6.474  11.281  0.3746 -0.0720 -0.1518
  108OSM   H15A11060   5.717   6.511  11.225 -0.5787  0.7269 -1.0981
  108OSM   H15B11061   5.662   6.403  11.356 -3.1533 -0.1653  1.2221
  108OSM   H15C11062   5.596   6.557  11.339  1.0824 -1.2653  2.0657
  108OSM    C1411063   5.417   6.352  11.268  0.8462 -0.2585 -0.8023
  108OSM   H14A11064   5.361   6.281  11.208 -2.8697  1.0124  0.9844
  108OSM   H14B11065   5.348   6.425  11.308  1.2982 -0.5785  0.6083
  108OSM   H14C11066   5.457   6.299  11.354  0.1657 -0.4498 -0.5945
  108OSM    C1311067   5.471   6.524  11.105 -0.3713  0.6382  0.3222
  108OSM   H13A11068   5.539   6.570  11.034 -1.1126  1.5265  0.1814
  108OSM   H13B11069   5.454   6.605  11.175  0.9305  0.9587  0.2826
  108OSM   H13C11070   5.382   6.497  11.050 -1.5716  0.0007  2.5235
  108OSM    C1211071   5.599   6.308  11.097  0.0846 -0.5632 -0.8081
  108OSM   H12A11072   5.523   6.268  11.032 -2.0848 -1.4543  2.1367
  108OSM   H12B11073   5.632   6.221  11.151 -0.5379  0.0646  0.6272
  108OSM    C1111074   5.726   6.349  11.013  0.2115  0.1898  0.3744
  108OSM   H11A11075   5.754   6.264  10.947  0.9753  0.1328  0.7664
  108OSM   H11B11076   5.812   6.369  11.080 -0.7741  4.2984  0.5422
  108OSM      P11077   5.782   6.572  10.879 -0.3212 -0.0661  0.2004
  108OSM    O1311078   5.695   6.684  10.834 -0.7944  0.2117 -0.0396
  108OSM    O1411079   5.897   6.607  10.962 -0.2736 -0.1978 -0.1186
  108OSM    O1111080   5.834   6.496  10.754  0.5831 -0.6403 -0.2394
  108OSM    O1211081   5.686   6.464  10.944 -0.6810 -0.4649 -1.0115
  108OSM    C1S11082   5.763   6.414  10.659 -0.5257  0.0329 -0.0085
  108OSM    H1S11083   5.694   6.476  10.597 -0.2820  0.2401 -0.0718
  108OSM    H1T11084   5.700   6.335  10.706  1.3862 -1.7160 -0.3102
  108OSM     NF11085   5.786   6.281  10.460  0.3489  0.7447 -0.0228
  108OSM    HNF11086   5.764   6.184  10.457  0.1277  0.8461 -3.2951
  108OSM    C2S11087   5.866   6.334  10.566 -0.9161 -0.6494  0.6152
  108OSM    H2S11088   5.938   6.404  10.519 -1.7403  0.6898  1.3278
  108OSM    C3S11089   5.942   6.227  10.648 -0.1764  0.2144 -0.1771
  108OSM    H3S11090   5.863   6.153  10.673  0.7491 -1.0477 -0.8892
  108OSM     O311091   5.987   6.282  10.775 -0.9568 -0.0612  0.6478
  108OSM    HO311092   5.937   6.364  10.773 -2.1181 -0.7856 -2.5986
  108OSM    C4S11093   6.059   6.165  10.574 -0.3907  0.2323 -0.0926
  108OSM    H4S11094   6.141   6.229  10.537  0.2287 -1.3341 -1.4686
  108OSM    C5S11095   6.067   6.033  10.548  0.4596 -0.1985 -0.1576
  108OSM    H5S11096   5.981   5.972  10.577  0.6529 -1.7366 -2.6593
  108OSM    C6S11097   6.178   5.971  10.472  0.0509 -0.1075  1.0896
  108OSM    H6S11098   6.155   5.863  10.457  1.3644 -0.4370  1.3708
  108OSM    H6T11099   6.269   5.966  10.536 -0.0452 -0.1820  1.2231
  108OSM    C7S11100   6.233   6.034  10.344  0.8387 -0.2127  0.5239
  108OSM    H7S11101   6.227   6.143  10.363 -3.8028  0.1836 -2.5333
  108OSM    H7T11102   6.158   6.018  10.264  0.7260 -3.0330  1.1264
  108OSM    C8S11103   6.363   5.972  10.301  0.4406 -0.4384 -0.5035
  108OSM    H8S11104   6.366   5.870  10.345  2.8491 -0.1459  0.0691
  108OSM    H8T11105   6.451   6.025  10.343 -0.6248  1.7584 -0.9695
  108OSM    C9S11106   6.379   5.973  10.144  0.4245 -0.2724  0.1807
  108OSM    H9S11107   6.480   5.926  10.137  0.4042 -0.2742 -0.1044
  108OSM    H9T11108   6.380   6.080  10.116  1.5107  0.4022  2.6439
  108OSM   C10S11109   6.272   5.883  10.082  0.0974 -0.7589 -0.6365
  108OSM   H10S11110   6.175   5.936  10.072  0.9540  1.1274  0.7078
  108OSM   H10T11111   6.250   5.798  10.150 -0.8597  0.1482  0.1974
  108OSM   C11S11112   6.316   5.838   9.937 -0.0961 -0.4915 -0.1801
  108OSM   H11S11113   6.236   5.768   9.904  0.8074 -1.6916  0.1369
  108OSM   H11T11114   6.412   5.783   9.949  2.2997  4.1676  3.7764
  108OSM   C12S11115   6.330   5.964   9.853 -1.2340  0.3842 -0.9916
  108OSM   H12S11116   6.420   6.017   9.889 -1.1123  1.3060 -2.6072
  108OSM   H12T11117   6.245   6.035   9.866  1.3837  3.3319  0.8624
  108OSM   C13S11118   6.350   5.928   9.703  1.0627  0.4044 -0.4116
  108OSM   H13S11119   6.450   5.881   9.689  0.8069  0.0532 -1.0641
  108OSM   H13T11120   6.345   6.023   9.646 -2.9721 -0.2989 -1.3429
  108OSM   C14S11121   6.248   5.828   9.642 -0.5274 -0.4085  0.2291
  108OSM   H14S11122   6.148   5.857   9.679  0.3444  2.7005  0.2993
  108OSM   H14T11123   6.261   5.728   9.688  2.4210  0.8290  2.2645
  108OSM   C15S11124   6.260   5.830   9.491  0.4371  0.0500  0.3076
  108OSM   H15S11125   6.355   5.785   9.456  0.2025  1.0210 -1.6823
  108OSM   H15T11126   6.277   5.936   9.463  0.1225 -0.2505 -1.0927
  108OSM   C16S11127   6.158   5.742   9.429 -0.2030 -0.3459  0.2160
  108OSM   H16S11128   6.055   5.769   9.461  0.0493 -0.1155  0.8487
  108OSM   H16T11129   6.167   5.645   9.484 -0.6141  0.7049  2.2003
  108OSM   C17S11130   6.155   5.728   9.276  0.1789 -0.2988 -0.5986
  108OSM   H17S11131   6.084   5.646   9.255 -0.3896 -0.5469  2.0868
  108OSM   H17T11132   6.254   5.694   9.238  0.2515  0.0099 -0.6889
  108OSM   C18S11133   6.104   5.852   9.195  0.1846 -0.0389  0.3373
  108OSM   H18S11134   6.105   5.840   9.085  0.3259  0.9596  0.2262
  108OSM   H18T11135   6.192   5.918   9.209  0.9674 -0.6041 -1.7109
  108OSM   H18U11136   6.008   5.899   9.225  0.8001  1.2146  0.3467
  108OSM    C1F11137   5.749   6.356  10.355  0.0709  0.5579 -0.2309
  108OSM     OF11138   5.768   6.478  10.361 -0.0594  0.3480  0.6387
  108OSM    C2F11139   5.686   6.297  10.228  0.6639  0.3437  0.3971
  108OSM    H2F11140   5.615   6.217  10.256 -0.1346  1.1236  0.6218
  108OSM    H2G11141   5.761   6.259  10.155  0.6787 -0.5550  0.8808
  108OSM    C3F11142   5.592   6.398  10.159 -0.3599  0.0231  0.2786
  108OSM    H3F11143   5.656   6.482  10.123 -2.9576  1.3969 -1.2398
  108OSM    H3G11144   5.522   6.444  10.232 -0.2205 -2.2928  1.9252
  108OSM    C4F11145   5.518   6.343  10.037  0.2596  0.3060 -0.1275
  108OSM    H4F11146   5.459   6.434  10.011 -0.5045 -0.2467 -0.3313
  108OSM    H4G11147   5.443   6.264  10.055  0.2541  0.5142  0.7962
  108OSM    C5F11148   5.608   6.300   9.926  0.5924 -0.1081  0.1614
  108OSM    H5F11149   5.671   6.212   9.954  1.4312  0.1407 -0.9234
  108OSM    H5G11150   5.675   6.383   9.895 -1.5176  1.5209 -0.1487
  108OSM    C6F11151   5.534   6.247   9.808  0.2188 -0.3205 -0.3001
  108OSM    H6F11152   5.456   6.321   9.781 -0.4837 -0.9201  0.0985
  108OSM    H6G11153   5.466   6.164   9.835  0.4643 -1.0042 -1.7724
  108OSM    C7F11154   5.629   6.210   9.689  0.5952  0.5151 -0.4492
  108OSM    H7F11155   5.700   6.135   9.729 -1.2100 -2.1471 -2.0994
  108OSM    H7G11156   5.675   6.308   9.664 -1.0265  1.4680  0.2382
  108OSM    C8F11157   5.536   6.163   9.568 -0.7303  0.8069 -0.2980
  108OSM    H8F11158   5.460   6.241   9.547 -0.5894  0.2824 -2.9109
  108OSM    H8G11159   5.490   6.073   9.615  1.0601 -0.6176 -1.1918
  108OSM    C9F11160   5.615   6.116   9.452  0.6362  0.0337 -1.1640
  108OSM    H9F11161   5.683   6.189   9.405  0.4769  1.1585  0.3189
  108OSM   C10F11162   5.637   5.988   9.406  0.3301 -0.2592  0.5352
  108OSM   H10F11163   5.699   5.973   9.316 -1.8493 -1.9327 -0.7245
  108OSM   C11F11164   5.581   5.861   9.467 -0.4181 -0.6423  0.3007
  108OSM   H11F11165   5.517   5.805   9.395 -1.2677  1.8077 -0.9255
  108OSM   H11G11166   5.520   5.887   9.556 -1.1010  1.6974 -0.7925
  108OSM   C12F11167   5.699   5.772   9.515 -0.4919  0.7311  0.2160
  108OSM   H12F11168   5.767   5.753   9.430 -1.6552 -0.7225 -0.4074
  108OSM   H12G11169   5.660   5.680   9.563  4.5971 -0.3551  2.5311
  108OSM   C13F11170   5.783   5.834   9.631 -0.8215  0.1537 -0.2471
  108OSM   H13F11171   5.819   5.934   9.600  0.4992  0.7202  3.0148
  108OSM   H13G11172   5.872   5.768   9.642  0.4959  1.8390 -0.6247
  108OSM   C14F11173   5.710   5.838   9.772  0.4079  0.3530 -0.5149
  108OSM   H14F11174   5.667   5.739   9.797  1.4613  0.1850  0.7375
  108OSM   H14G11175   5.628   5.912   9.765 -0.8940 -1.0637 -0.4320
  108OSM   C15F11176   5.805   5.878   9.881 -0.5560  0.1388 -0.3830
  108OSM   H15F11177   5.822   5.988   9.892  1.2048 -0.4166  2.9709
  108OSM   H15G11178   5.901   5.828   9.859 -0.8630 -0.5817 -0.0948
  108OSM   C16F11179   5.760   5.824  10.020 -0.4240  0.5189  0.1514
  108OSM   H16F11180   5.751   5.715  10.004  4.4070  0.0072  0.1556
  108OSM   H16G11181   5.658   5.864  10.041  0.2529  0.4669  3.8297
  108OSM   C17F11182   5.859   5.841  10.140  0.9166  0.0515 -0.0589
  108OSM   H17F11183   5.954   5.794  10.109  0.5007  0.7142 -2.3820
  108OSM   H17G11184   5.834   5.786  10.234 -1.1058  1.7862  0.4731
  108OSM   C18F11185   5.877   5.993  10.160  0.5515 -1.2847  0.5915
  108OSM   H18F11186   5.779   6.030  10.199  1.5561  3.0651 -0.7797
  108OSM   H18G11187   5.914   6.050  10.073  1.4049 -2.3996  0.2192
  108OSM   H18H11188   5.952   5.996  10.242 -0.5043  1.5374  1.5186
  109OSM      N11189   6.686   0.511  10.682 -0.1647 -0.1825 -0.4432
  109OSM    C1511190   6.785   0.472  10.788 -0.2850  0.0922  0.0795
  109OSM   H15A11191   6.762   0.519  10.882 -0.4381 -2.4438  1.3599
  109OSM   H15B11192   6.884   0.498  10.752 -0.1749  0.1538  0.4222
  109OSM   H15C11193   6.793   0.365  10.801  0.4264  0.0760 -0.4611
  109OSM    C1411194   6.683   0.662  10.682 -0.3634 -0.0307 -0.0897
  109OSM   H14A11195   6.665   0.701  10.781  2.0715 -0.3238  0.5089
  109OSM   H14B11196   6.608   0.695  10.612 -0.2858 -0.5377 -0.4218
  109OSM   H14C11197   6.781   0.699  10.656  0.2725 -0.9366  0.9841
  109OSM    C1311198   6.724   0.454  10.547 -0.2861  0.2709 -0.1331
  109OSM   H13A11199   6.683   0.354  10.548 -1.3553  0.6681 -1.6476
  109OSM   H13B11200   6.828   0.468  10.522 -0.7636 -0.4201 -2.7224
  109OSM   H13C11201   6.661   0.511  10.479 -2.5393  0.6998  2.2239
  109OSM    C1211202   6.545   0.455  10.722  0.5928  0.0364  1.0849
  109OSM   H12A11203   6.465   0.498  10.664  0.6990 -1.8135 -0.4719
  109OSM   H12B11204   6.526   0.501  10.818 -0.2598  1.0308  0.4426
  109OSM    C1111205   6.522   0.308  10.734  0.2651 -1.0404 -0.2886
  109OSM   H11A11206   6.419   0.292  10.774  0.3205 -0.0876  0.2538
  109OSM   H11B11207   6.589   0.267  10.813 -1.3983 -2.5324  0.3909
  109OSM      P11208   6.463   0.113  10.571  0.0992 -0.1642  0.2021
  109OSM    O1311209   6.556   0.015  10.510  1.0349  0.0345 -0.7061
  109OSM    O1411210   6.372   0.063  10.676 -0.0377  0.2179 -0.5867
  109OSM    O1111211   6.365   0.167  10.458  0.2609 -0.2065  0.7639
  109OSM    O1211212   6.538   0.238  10.613 -0.2949 -0.0320  0.4781
  109OSM    C1S11213   6.412   0.260  10.359 -0.1118  0.0172 -0.1563
  109OSM    H1S11214   6.521   0.248  10.339  0.1699 -1.3445  2.1020
  109OSM    H1T11215   6.405   0.365  10.393  1.8281  1.1897 -3.1023
  109OSM     NF11216   6.346   0.376  10.160 -0.3514 -0.3159 -0.8480
  109OSM    HNF11217   6.309   0.457  10.205  1.7538 -0.4450  1.2036
  109OSM    C2S11218   6.330   0.245  10.227  0.0700 -0.9915  0.7001
  109OSM    H2S11219   6.382   0.171  10.162 -0.2791 -1.6245  1.1373
  109OSM    C3S11220   6.185   0.188  10.241 -0.3550  0.6284 -0.5303
  109OSM    H3S11221   6.137   0.252  10.319 -0.2071 -1.0110  0.9218
  109OSM     O311222   6.178   0.060  10.300 -0.4762 -0.2726  0.3249
  109OSM    HO311223   6.254   0.051  10.359  0.6211 -1.2585 -1.2013
  109OSM    C4S11224   6.126   0.195  10.104  0.1598  0.0022  0.1241
  109OSM    H4S11225   6.088   0.294  10.072  3.0790  1.8039  1.9541
  109OSM    C5S11226   6.107   0.092  10.016 -0.3400 -0.3766  0.1923
  109OSM    H5S11227   6.142  -0.011  10.035  0.6543  0.0552  0.7891
  109OSM    C6S11228   6.058   0.115   9.879 -0.5502  0.5883  0.8388
  109OSM    H6S11229   5.962   0.059   9.865 -0.2000  0.0191  0.6661
  109OSM    H6T11230   6.131   0.066   9.811 -1.0674  1.4923 -0.4022
  109OSM    C7S11231   6.039   0.254   9.818  0.2584 -0.3235 -0.3650
  109OSM    H7S11232   6.135   0.309   9.825 -0.0929  0.2954 -0.3219
  109OSM    H7T11233   5.964   0.325   9.860  0.5024  1.9911 -3.7169
  109OSM    C8S11234   5.987   0.260   9.668 -0.1058  0.8746 -0.2116
  109OSM    H8S11235   5.957   0.366   9.657  0.7441  1.2381  0.9147
  109OSM    H8T11236   5.898   0.194   9.658  0.4137  0.2123 -0.5449
  109OSM    C9S11237   6.097   0.202   9.573  0.0036 -0.3126 -0.1499
  109OSM    H9S11238   6.120   0.096   9.600 -1.4771  0.1562  3.1756
  109OSM    H9T11239   6.198   0.248   9.570 -0.6435  1.2384  0.9508
  109OSM   C10S11240   6.058   0.200   9.425  0.1784  0.2446  0.0197
  109OSM   H10S11241   6.045   0.307   9.395 -0.9473  0.1541  0.1768
  109OSM   H10T11242   5.955   0.162   9.409 -0.1879  0.6648  1.3543
  109OSM   C11S11243   6.153   0.121   9.333 -0.7089  0.0645  0.4696
  109OSM   H11S11244   6.109   0.021   9.314 -0.9529  0.0628  1.0664
  109OSM   H11T11245   6.259   0.126   9.367 -0.3890  0.9276 -0.5803
  109OSM   C12S11246   6.159   0.185   9.188  0.0270  0.5406  0.3615
  109OSM   H12S11247   6.206   0.285   9.197  0.0846  0.6286 -0.7451
  109OSM   H12T11248   6.054   0.200   9.155  0.3485  0.7878 -0.5944
  109OSM   C13S11249   6.233   0.108   9.075 -0.3016 -0.6481  0.1979
  109OSM   H13S11250   6.195   0.006   9.052 -0.6709 -0.2805 -0.8784
  109OSM   H13T11251   6.339   0.090   9.102 -0.8790  0.0815  3.1188
  109OSM   C14S11252   6.240   0.196   8.953 -0.2437  0.0754  0.7857
  109OSM   H14S11253   6.274   0.296   8.986 -0.1869  0.4101 -0.2878
  109OSM   H14T11254   6.138   0.208   8.910  0.1391  0.9322  0.1172
  109OSM   C15S11255   6.333   0.151   8.845 -0.0282  0.5120  0.3959
  109OSM   H15S11256   6.332   0.042   8.825  0.1956  0.3375  1.3313
  109OSM   H15T11257   6.432   0.181   8.883  0.0238 -1.1183  1.6100
  109OSM   C16S11258   6.317   0.220   8.702  0.5684 -1.2254 -0.4363
  109OSM   H16S11259   6.352   0.324   8.716 -2.2822 -0.1091 -1.2388
  109OSM   H16T11260   6.208   0.214   8.683  0.5283  0.7066 -0.8901
  109OSM   C17S11261   6.405   0.158   8.590 -0.6290 -0.2627  0.1984
  109OSM   H17S11262   6.373   0.185   8.487 -0.8223 -0.9159  0.0830
  109OSM   H17T11263   6.397   0.047   8.598  2.5184 -0.5353  0.0541
  109OSM   C18S11264   6.554   0.192   8.597  0.7226 -0.0721 -0.1791
  109OSM   H18S11265   6.609   0.129   8.670 -1.5192 -1.8216  0.0391
  109OSM   H18T11266   6.570   0.295   8.636 -2.0784 -0.4237  2.0062
  109OSM   H18U11267   6.596   0.186   8.494  1.8867  3.1747  0.0339
  109OSM    C1F11268   6.452   0.412  10.093  0.1115 -0.0926 -0.3008
  109OSM     OF11269   6.545   0.335  10.074  0.0806 -0.4787  0.8055
  109OSM    C2F11270   6.452   0.556  10.050 -0.2410  0.4177 -0.1485
  109OSM    H2F11271   6.506   0.607  10.133  2.6700 -2.1865 -0.3237
  109OSM    H2G11272   6.348   0.594  10.060 -0.0976  0.7128  0.2315
  109OSM    C3F11273   6.517   0.584   9.913  0.3053 -0.1242 -0.7981
  109OSM    H3F11274   6.618   0.537   9.915  0.6055  0.5130 -1.0145
  109OSM    H3G11275   6.522   0.694   9.903  2.0529 -0.2036 -0.9778
  109OSM    C4F11276   6.432   0.532   9.800 -0.2109 -0.8582  0.1726
  109OSM    H4F11277   6.329   0.536   9.841  0.3132 -2.3096  1.6558
  109OSM    H4G11278   6.454   0.424   9.788  0.5595 -0.5172 -1.7776
  109OSM    C5F11279   6.459   0.606   9.671  0.2464 -0.6104  0.5317
  109OSM    H5F11280   6.569   0.615   9.655  0.2627  0.6006  1.2338
  109OSM    H5G11281   6.411   0.706   9.668  0.6621 -0.4442 -0.8723
  109OSM    C6F11282   6.396   0.527   9.552  0.3177  0.8435  0.2221
  109OSM    H6F11283   6.291   0.495   9.570  1.2173 -1.4802  1.5740
  109OSM    H6G11284   6.455   0.433   9.542 -1.4165 -0.4222  1.5669
  109OSM    C7F11285   6.409   0.618   9.430 -0.1037  0.0539 -0.3742
  109OSM    H7F11286   6.500   0.682   9.434  0.8564 -1.4163  2.9725
  109OSM    H7G11287   6.333   0.700   9.435 -1.4080 -1.0531 -1.7911
  109OSM    C8F11288   6.382   0.554   9.294 -0.2887 -0.1953 -0.0754
  109OSM    H8F11289   6.279   0.513   9.301 -1.0681  2.0634  2.6557
  109OSM    H8G11290   6.455   0.474   9.270 -0.5536 -0.0603 -1.3641
  109OSM    C9F11291   6.408   0.643   9.186  0.1093  0.2059  0.4868
  109OSM    H9F11292   6.321   0.705   9.161 -0.3160  0.5687  2.7646
  109OSM   C10F11293   6.515   0.653   9.104 -0.6218 -0.5977 -0.4869
  109OSM   H10F11294   6.520   0.725   9.020  0.3806  0.1257  0.1787
  109OSM   C11F11295   6.643   0.566   9.112  0.7247 -0.0474  0.0877
  109OSM   H11F11296   6.666   0.535   9.216 -1.2706 -0.2606  0.4736
  109OSM   H11G11297   6.735   0.622   9.083 -1.2586  1.5588 -3.4834
  109OSM   C12F11298   6.646   0.444   9.018 -0.0562 -0.6824  0.0781
  109OSM   H12F11299   6.609   0.477   8.919 -0.5595 -0.3283  0.3849
  109OSM   H12G11300   6.581   0.374   9.075  0.2723 -0.1752  1.0964
  109OSM   C13F11301   6.782   0.387   8.992 -0.3244  0.3108  0.8312
  109OSM   H13F11302   6.828   0.354   9.088 -2.8152  0.0896  1.9866
  109OSM   H13G11303   6.857   0.463   8.961 -1.0389  0.9928  0.7708
  109OSM   C14F11304   6.768   0.267   8.893 -0.3334  0.5553  0.5137
  109OSM   H14F11305   6.725   0.294   8.794  0.7574  0.6905  0.0722
  109OSM   H14G11306   6.690   0.203   8.940 -0.8412  1.5969  1.1199
  109OSM   C15F11307   6.897   0.189   8.878 -0.9184  0.5610 -0.0962
  109OSM   H15F11308   6.921   0.120   8.962 -0.4862  1.2903  0.3783
  109OSM   H15G11309   6.987   0.254   8.884 -0.1555 -0.3937 -0.8629
  109OSM   C16F11310   6.904   0.121   8.744 -0.8989  0.5730 -0.5923
  109OSM   H16F11311   6.882   0.193   8.662 -1.2432 -0.8120 -1.7512
  109OSM   H16G11312   6.835   0.034   8.733  0.1119 -0.1754 -1.1564
  109OSM   C17F11313   7.044   0.056   8.710  0.3665 -0.0856 -0.4238
  109OSM   H17F11314   7.121   0.130   8.742 -0.1144 -0.1377  0.9193
  109OSM   H17G11315   7.039   0.048   8.600 -3.3842 -0.5115 -0.2838
  109OSM   C18F11316   7.071  -0.075   8.782  0.3597  0.7849  0.4945
  109OSM   H18F11317   7.001  -0.152   8.745 -1.1284  1.5893  1.5598
  109OSM   H18G11318   7.063  -0.071   8.893  4.4072 -1.6984  1.0020
  109OSM   H18H11319   7.175  -0.102   8.754 -0.4359 -3.1037  0.9930
  110OSM      N11320   0.381   0.761  11.037 -0.1369 -0.0677  0.1730
  110OSM    C1511321   0.437   0.889  11.005  0.4441  0.5261  0.3799
  110OSM   H15A11322   0.412   0.928  10.907 -0.3234  1.4432  0.9299
  110OSM   H15B11323   0.545   0.886  11.012  0.4788 -2.5236 -0.6705
  110OSM   H15C11324   0.403   0.960  11.079  1.9026  1.0812  0.5404
  110OSM    C1411325   0.408   0.723  11.183 -0.6355 -0.4862  0.6410
  110OSM   H14A11326   0.509   0.750  11.212 -1.0821  0.9771  0.8420
  110OSM   H14B11327   0.395   0.617  11.203 -0.4749 -0.1834  2.4450
  110OSM   H14C11328   0.331   0.771  11.242 -0.2046  1.7892 -0.6166
  110OSM    C1311329   0.234   0.757  11.005  0.2145 -0.1823  0.2877
  110OSM   H13A11330   0.175   0.822  11.068 -0.7574  1.6997 -2.4432
  110OSM   H13B11331   0.195   0.657  11.018 -1.2085  0.4191  0.7126
  110OSM   H13C11332   0.217   0.788  10.903  1.8112 -1.0246 -0.2528
  110OSM    C1211333   0.447   0.664  10.942  0.2478  0.0416  0.5337
  110OSM   H12A11334   0.554   0.677  10.947  0.2128  0.3080  0.5776
  110OSM   H12B11335   0.421   0.682  10.839 -0.2272 -0.5127  0.5543
  110OSM    C1111336   0.434   0.511  10.967  0.0729 -0.4588  0.2113
  110OSM   H11A11337   0.415   0.447  10.878 -0.8978  1.2174 -0.8264
  110OSM   H11B11338   0.339   0.510  11.025  0.3660  1.1875  0.7426
  110OSM      P11339   0.689   0.435  11.002  0.3803 -0.1960  0.0494
  110OSM    O1311340   0.744   0.546  10.915 -0.4447  0.1019  0.5249
  110OSM    O1411341   0.779   0.416  11.122  0.9652  0.1095  0.2902
  110OSM    O1111342   0.677   0.309  10.916 -0.4364 -0.2838 -0.6076
  110OSM    O1211343   0.543   0.465  11.049  0.0491  0.1205 -0.0810
  110OSM    C1S11344   0.643   0.292  10.780 -0.0567  0.9209  0.3182
  110OSM    H1S11345   0.599   0.385  10.737 -2.1683  1.1217  2.7954
  110OSM    H1T11346   0.571   0.210  10.762 -0.6697  1.4625  0.2735
  110OSM     NF11347   0.724   0.233  10.549 -0.1813  0.1327 -0.0676
  110OSM    HNF11348   0.677   0.149  10.525 -0.1350  0.4637 -1.3404
  110OSM    C2S11349   0.765   0.237  10.687 -0.1862  0.2508  0.3653
  110OSM    H2S11350   0.850   0.305  10.709  0.2360  0.0453 -0.6102
  110OSM    C3S11351   0.806   0.101  10.760  0.4783  0.3661 -0.2528
  110OSM    H3S11352   0.723   0.029  10.776 -1.0884  2.0504 -0.6234
  110OSM     O311353   0.867   0.124  10.885  0.1593 -0.3192 -0.6573
  110OSM    HO311354   0.838   0.209  10.917 -1.4311 -0.8829 -0.5518
  110OSM    C4S11355   0.912   0.029  10.676  0.2665  0.2048  0.0811
  110OSM    H4S11356   1.005   0.085  10.660  0.4322  0.1964  0.9935
  110OSM    C5S11357   0.906  -0.092  10.624  0.3194 -0.9279 -0.2203
  110OSM    H5S11358   0.809  -0.143  10.619 -0.6272  0.9156 -1.0079
  110OSM    C6S11359   1.016  -0.157  10.543  0.0124  0.0183  0.6517
  110OSM    H6S11360   1.047  -0.250  10.596 -1.9143 -0.4867  0.9396
  110OSM    H6T11361   1.101  -0.087  10.534  0.0340 -0.1186 -0.3293
  110OSM    C7S11362   0.963  -0.190  10.397  0.2913  0.3015 -0.8285
  110OSM    H7S11363   1.044  -0.239  10.339  3.1606  1.8060  1.7753
  110OSM    H7T11364   0.934  -0.095  10.347  0.5751 -0.2008 -1.9488
  110OSM    C8S11365   0.858  -0.302  10.383  0.6033  0.1456 -0.3682
  110OSM    H8S11366   0.763  -0.259  10.420  1.4446  1.0477  0.7962
  110OSM    H8T11367   0.869  -0.394  10.445 -0.0521  1.4753  1.8064
  110OSM    C9S11368   0.820  -0.341  10.237  0.0471  0.1455  0.3483
  110OSM    H9S11369   0.737  -0.415  10.238 -0.8551  1.1033 -1.0746
  110OSM    H9T11370   0.911  -0.397  10.207  2.4032  3.4988  0.9727
  110OSM   C10S11371   0.792  -0.224  10.150 -0.1122  0.4285 -0.5902
  110OSM   H10S11372   0.885  -0.163  10.142  0.6891 -0.8605 -1.2391
  110OSM   H10T11373   0.713  -0.157  10.191  0.2028 -0.5925  1.7765
  110OSM   C11S11374   0.757  -0.274  10.008 -0.4342  0.2870 -0.1157
  110OSM   H11S11375   0.651  -0.308   9.998 -0.4883  0.4235  0.0040
  110OSM   H11T11376   0.821  -0.361   9.980 -0.1072  0.2561  0.7108
  110OSM   C12S11377   0.770  -0.164   9.902 -0.3242 -0.4382 -0.5792
  110OSM   H12S11378   0.869  -0.113   9.903  0.2182 -1.4586 -1.0800
  110OSM   H12T11379   0.692  -0.090   9.927 -1.0066 -1.1668 -0.5137
  110OSM   C13S11380   0.742  -0.215   9.758  0.3658 -0.2398 -0.2643
  110OSM   H13S11381   0.713  -0.122   9.704 -0.3520  0.8219  1.8992
  110OSM   H13T11382   0.656  -0.286   9.768 -0.2850  0.7146  1.0610
  110OSM   C14S11383   0.861  -0.276   9.688 -0.1119 -0.6605 -0.5982
  110OSM   H14S11384   0.898  -0.373   9.728 -2.2130 -1.2892 -0.1499
  110OSM   H14T11385   0.941  -0.204   9.716 -0.8866 -0.2616  0.5783
  110OSM   C15S11386   0.859  -0.287   9.537 -0.1513 -0.1045  0.2490
  110OSM   H15S11387   0.962  -0.303   9.498  0.3756  0.7288  1.2509
  110OSM   H15T11388   0.816  -0.202   9.480  1.1852 -0.3413 -1.1482
  110OSM   C16S11389   0.775  -0.410   9.494  0.1465  0.0357 -0.4336
  110OSM   H16S11390   0.677  -0.411   9.546 -0.1199 -3.8716 -0.8890
  110OSM   H16T11391   0.841  -0.494   9.523 -1.1491 -0.4609  1.1402
  110OSM   C17S11392   0.733  -0.413   9.341  0.1250  0.1861  0.0454
  110OSM   H17S11393   0.674  -0.321   9.321 -1.2787 -0.5173  0.8811
  110OSM   H17T11394   0.672  -0.502   9.315 -0.7835 -0.0345  2.7920
  110OSM   C18S11395   0.857  -0.407   9.256  0.1471  0.5289  0.2491
  110OSM   H18S11396   0.917  -0.498   9.273 -0.0782  0.2331 -0.5277
  110OSM   H18T11397   0.928  -0.323   9.274  2.7852 -1.8772  1.3585
  110OSM   H18U11398   0.820  -0.393   9.152 -1.1786  1.8661  0.8601
  110OSM    C1F11399   0.718   0.347  10.485 -0.0934  0.1491  0.1710
  110OSM     OF11400   0.766   0.446  10.532  0.4049  0.1820 -0.0063
  110OSM    C2F11401   0.641   0.352  10.358  0.1711 -0.0983  0.1322
  110OSM    H2F11402   0.706   0.406  10.286  0.5730  0.3523  0.8262
  110OSM    H2G11403   0.552   0.416  10.373 -1.5583 -1.8584 -2.2098
  110OSM    C3F11404   0.587   0.217  10.301  0.9519  0.5201  0.7512
  110OSM    H3F11405   0.508   0.192  10.375 -0.3629  1.8158 -0.1739
  110OSM    H3G11406   0.672   0.148  10.285  1.9414  1.8051  0.3039
  110OSM    C4F11407   0.517   0.248  10.168  0.3156 -0.0374 -0.0549
  110OSM    H4F11408   0.482   0.353  10.174 -1.2289 -0.6908  4.7259
  110OSM    H4G11409   0.430   0.180  10.152  1.1361 -0.8787 -0.9665
  110OSM    C5F11410   0.605   0.236  10.046 -0.1275 -0.0151  0.2442
  110OSM    H5F11411   0.673   0.150  10.067  2.1002  2.0465  1.8330
  110OSM    H5G11412   0.678   0.320  10.051 -1.8996  1.4875  1.2139
  110OSM    C6F11413   0.530   0.228   9.917  0.2760  0.4075  0.4162
  110OSM    H6F11414   0.448   0.302   9.931  1.7388  2.1403 -0.0186
  110OSM    H6G11415   0.485   0.127   9.906  2.8725 -1.3641  4.5629
  110OSM    C7F11416   0.620   0.275   9.798  0.2360  0.3311 -0.6425
  110OSM    H7F11417   0.699   0.199   9.786  2.4207  2.7304 -1.8304
  110OSM    H7G11418   0.680   0.361   9.835 -0.5561  0.0875  1.2829
  110OSM    C8F11419   0.547   0.300   9.663 -0.1629  0.0270 -0.5827
  110OSM    H8F11420   0.619   0.297   9.579  1.3969 -0.8041  0.7302
  110OSM    H8G11421   0.486   0.392   9.669  2.1858  1.6005 -0.2441
  110OSM    C9F11422   0.445   0.187   9.654 -0.2855  0.3051  0.3697
  110OSM    H9F11423   0.352   0.189   9.712 -0.5868  1.5025 -0.1437
  110OSM   C10F11424   0.465   0.079   9.572 -0.1513 -0.0015 -0.5262
  110OSM   H10F11425   0.385   0.003   9.565  1.6730 -2.0326 -0.0151
  110OSM   C11F11426   0.585   0.053   9.483  0.6513  0.6437  0.1332
  110OSM   H11F11427   0.611  -0.054   9.492 -1.3521  0.1007 -0.2282
  110OSM   H11G11428   0.679   0.099   9.521 -0.1946  1.7349  0.9374
  110OSM   C12F11429   0.557   0.086   9.331 -0.0520 -0.6768  0.1954
  110OSM   H12F11430   0.650   0.046   9.284 -0.7563 -1.8482 -0.2230
  110OSM   H12G11431   0.552   0.194   9.304  1.2115 -0.7207 -0.2338
  110OSM   C13F11432   0.435   0.010   9.277 -0.2266 -0.1644 -0.3397
  110OSM   H13F11433   0.343   0.053   9.321 -1.3886 -2.7056 -0.1700
  110OSM   H13G11434   0.441  -0.098   9.303 -3.2159 -0.0628  0.9338
  110OSM   C14F11435   0.433   0.025   9.122 -0.1370  0.8074 -0.3082
  110OSM   H14F11436   0.424   0.135   9.109  1.8107  0.6356 -3.5224
  110OSM   H14G11437   0.336  -0.012   9.080 -0.1787  0.2116  0.3002
  110OSM   C15F11438   0.545  -0.046   9.052  0.3955  0.2162  0.0419
  110OSM   H15F11439   0.640  -0.010   9.097 -1.2889  4.0686  0.6700
  110OSM   H15G11440   0.539  -0.019   8.945 -1.1020 -2.3686 -0.5793
  110OSM   C16F11441   0.539  -0.201   9.062 -0.4573  0.2863 -0.2763
  110OSM   H16F11442   0.445  -0.244   9.023 -1.2106  0.1359  1.6730
  110OSM   H16G11443   0.546  -0.240   9.166  1.2916 -0.0531 -0.5068
  110OSM   C17F11444   0.657  -0.273   8.994  0.1691 -0.1878 -0.4840
  110OSM   H17F11445   0.664  -0.381   9.018  1.5123 -0.4300 -1.8939
  110OSM   H17G11446   0.755  -0.233   9.028  0.6022 -1.9927  0.4381
  110OSM   C18F11447   0.664  -0.261   8.842  0.0833 -0.0019 -0.8041
  110OSM   H18F11448   0.568  -0.294   8.796  0.6983 -2.8759 -0.1566
  110OSM   H18G11449   0.749  -0.319   8.799 -0.3680  0.1795 -1.9697
  110OSM   H18H11450   0.676  -0.153   8.823 -2.0451  0.5348  0.7373
  111OSM      N11451   2.011   3.063  11.032 -1.0146 -0.3553 -0.1880
  111OSM    C1511452   1.878   3.038  11.087  0.2317  0.1675 -0.0965
  111OSM   H15A11453   1.869   2.949  11.148  2.2975 -0.2477 -0.3536
  111OSM   H15B11454   1.802   3.028  11.011  1.0350 -0.3387 -0.8418
  111OSM   H15C11455   1.854   3.133  11.132 -0.7852 -0.2288  0.2100
  111OSM    C1411456   2.012   3.196  10.954 -0.1495  0.0017 -0.0635
  111OSM   H14A11457   1.970   3.278  11.011  0.3357 -0.1446  0.5040
  111OSM   H14B11458   1.952   3.179  10.866  0.0972  0.1520 -0.2597
  111OSM   H14C11459   2.108   3.219  10.912  0.1585  1.7944  1.5631
  111OSM    C1311460   2.110   3.087  11.140  0.3362  0.4715  0.4685
  111OSM   H13A11461   2.076   3.159  11.213  1.9908  0.9401  0.7930
  111OSM   H13B11462   2.199   3.130  11.095  0.4194  0.6574  0.8126
  111OSM   H13C11463   2.128   2.994  11.191 -0.2093  1.5654  2.6920
  111OSM    C1211464   2.056   2.952  10.938 -0.0676 -0.1439 -0.5019
  111OSM   H12A11465   2.157   2.979  10.912  0.9988 -3.5935 -0.2002
  111OSM   H12B11466   1.994   2.956  10.850 -1.7368 -0.4143  0.6405
  111OSM    C1111467   2.057   2.805  10.967  0.2509  0.4576  0.3971
  111OSM   H11A11468   2.128   2.777  11.048 -1.4071  3.0001  2.8069
  111OSM   H11B11469   2.098   2.744  10.883  0.0789 -1.3679  1.6155
  111OSM      P11470   1.816   2.712  10.910  0.3884  0.2562 -0.0996
  111OSM    O1311471   1.862   2.587  10.844 -0.8549  0.1682 -0.0182
  111OSM    O1411472   1.679   2.705  10.967 -0.7702 -0.0018 -0.1021
  111OSM    O1111473   1.815   2.825  10.802 -0.1057 -0.0422  0.6610
  111OSM    O1211474   1.930   2.764  11.007 -0.0222  0.4981 -0.0595
  111OSM    C1S11475   1.839   2.801  10.660  0.3870 -0.0998  0.1477
  111OSM    H1S11476   1.798   2.700  10.635  1.0651 -0.0068 -1.3813
  111OSM    H1T11477   1.946   2.803  10.632 -0.2206 -0.2567 -2.3208
  111OSM     NF11478   1.767   2.884  10.434  0.0730 -0.1362 -0.0811
  111OSM    HNF11479   1.815   2.943  10.371 -3.5666  3.9876  0.7752
  111OSM    C2S11480   1.769   2.908  10.577  0.2222 -0.4442 -0.1778
  111OSM    H2S11481   1.659   2.911  10.588  0.3172  0.7149  0.5612
  111OSM    C3S11482   1.828   3.044  10.623 -0.0563 -0.3325  0.2127
  111OSM    H3S11483   1.937   3.033  10.601  0.3409  1.9790  0.9109
  111OSM     O311484   1.787   3.072  10.755  0.1505 -0.1699 -0.3562
  111OSM    HO311485   1.779   2.986  10.797  4.0505  1.2293  3.7130
  111OSM    C4S11486   1.774   3.159  10.539 -0.7654 -0.3398 -0.0921
  111OSM    H4S11487   1.671   3.192  10.555  0.3447  2.2643  2.1944
  111OSM    C5S11488   1.851   3.234  10.458  0.3165 -0.0136 -0.3474
  111OSM    H5S11489   1.961   3.220  10.461  0.5931  1.8747 -1.5063
  111OSM    C6S11490   1.798   3.347  10.379 -0.2866 -0.2398  0.2269
  111OSM    H6S11491   1.868   3.434  10.375  0.8309 -1.2399 -2.9947
  111OSM    H6T11492   1.708   3.383  10.433 -0.1991 -1.4537  1.1961
  111OSM    C7S11493   1.745   3.310  10.237 -0.2258  0.1189  1.1471
  111OSM    H7S11494   1.698   3.209  10.238  1.0447 -0.4727  1.1896
  111OSM    H7T11495   1.821   3.305  10.157 -1.4172  0.6402 -0.0417
  111OSM    C8S11496   1.640   3.408  10.187 -0.8504 -0.0212  0.6482
  111OSM    H8S11497   1.558   3.413  10.262  0.2370 -1.5958  1.9822
  111OSM    H8T11498   1.586   3.354  10.106  1.8105 -2.9727  0.7656
  111OSM    C9S11499   1.698   3.549  10.156  0.9218  0.1754 -0.9795
  111OSM    H9S11500   1.772   3.542  10.074 -0.5146 -0.0788 -2.2938
  111OSM    H9T11501   1.729   3.586  10.256  0.1840 -1.2524 -0.2025
  111OSM   C10S11502   1.598   3.643  10.093  0.2435 -0.0202  0.2873
  111OSM   H10S11503   1.586   3.737  10.152  2.3900  0.5584 -0.1477
  111OSM   H10T11504   1.500   3.595  10.107  0.5951 -0.6981  0.4203
  111OSM   C11S11505   1.623   3.665   9.944  0.4490 -0.0948  0.5447
  111OSM   H11S11506   1.729   3.685   9.917  0.4911 -1.3984 -0.2568
  111OSM   H11T11507   1.558   3.751   9.917 -1.8203 -2.1821 -0.7553
  111OSM   C12S11508   1.579   3.551   9.855  0.5997  1.0879  0.6447
  111OSM   H12S11509   1.476   3.523   9.884  0.5395 -0.3031 -0.8450
  111OSM   H12T11510   1.644   3.465   9.880  0.1529  0.6182  0.1983
  111OSM   C13S11511   1.594   3.566   9.705  1.0476  0.8164 -0.3304
  111OSM   H13S11512   1.699   3.599   9.686  1.1210  0.9810  0.3494
  111OSM   H13T11513   1.519   3.641   9.673 -2.3171 -2.6603 -0.8664
  111OSM   C14S11514   1.584   3.432   9.628 -0.0798 -0.0679 -0.6900
  111OSM   H14S11515   1.498   3.386   9.682 -1.0325  3.9269  1.3746
  111OSM   H14T11516   1.673   3.372   9.658 -0.7821 -0.4015  0.7548
  111OSM   C15S11517   1.565   3.438   9.478  0.4875 -0.5437 -0.3077
  111OSM   H15S11518   1.478   3.504   9.458  0.2097 -1.0590 -0.8276
  111OSM   H15T11519   1.539   3.336   9.442  0.3829 -0.7503  0.3568
  111OSM   C16S11520   1.692   3.479   9.410  0.3399 -0.1188  0.0329
  111OSM   H16S11521   1.772   3.403   9.425  1.5529  1.2317  0.5832
  111OSM   H16T11522   1.718   3.577   9.457 -1.0371  0.6206 -0.7439
  111OSM   C17S11523   1.675   3.507   9.259 -0.0152 -1.0435 -0.3446
  111OSM   H17S11524   1.748   3.575   9.210  0.0856  0.2092  1.4982
  111OSM   H17T11525   1.576   3.554   9.242  1.0712  0.7535 -1.9991
  111OSM   C18S11526   1.685   3.370   9.185 -0.5407  0.5960 -0.7455
  111OSM   H18S11527   1.663   3.378   9.077 -0.8849  1.4044 -0.6233
  111OSM   H18T11528   1.625   3.294   9.240  0.8336 -0.1836 -0.2798
  111OSM   H18U11529   1.785   3.322   9.195 -1.0452 -0.5032 -0.8868
  111OSM    C1F11530   1.713   2.778  10.377  0.5334 -0.0465 -0.4019
  111OSM     OF11531   1.647   2.702  10.441 -0.3586  0.4896 -0.0803
  111OSM    C2F11532   1.744   2.764  10.235  0.0725 -0.0640 -0.2969
  111OSM    H2F11533   1.853   2.786  10.230 -0.1865  1.3433 -0.0080
  111OSM    H2G11534   1.689   2.840  10.175 -0.6734 -0.4087 -0.0505
  111OSM    C3F11535   1.707   2.633  10.171 -0.6171  0.2613 -0.3518
  111OSM    H3F11536   1.596   2.629  10.179 -0.4579  0.2155  2.1623
  111OSM    H3G11537   1.750   2.551  10.232 -1.5316 -0.3858 -0.5665
  111OSM    C4F11538   1.747   2.621  10.021  0.5757  0.0898  0.0204
  111OSM    H4F11539   1.858   2.620  10.025  0.5469 -0.2029  0.9860
  111OSM    H4G11540   1.712   2.712   9.968  0.5090 -0.5350 -1.0206
  111OSM    C5F11541   1.691   2.498   9.960  0.7953  0.3049 -0.2665
  111OSM    H5F11542   1.580   2.494   9.958  0.8242 -0.1994 -1.3058
  111OSM    H5G11543   1.723   2.411  10.020  0.3383  1.3858  1.5852
  111OSM    C6F11544   1.727   2.474   9.809  0.0159  0.2287  0.7513
  111OSM    H6F11545   1.674   2.379   9.788 -2.2929  0.7885  3.7537
  111OSM    H6G11546   1.834   2.445   9.800  0.2342  0.8022  1.4132
  111OSM    C7F11547   1.681   2.585   9.704 -0.4242  0.4479 -0.8591
  111OSM    H7F11548   1.761   2.662   9.709 -0.2703  0.2742 -0.6524
  111OSM    H7G11549   1.585   2.616   9.750  0.3388  1.9991 -0.2716
  111OSM    C8F11550   1.686   2.526   9.557  0.3701  0.6756  0.3887
  111OSM    H8F11551   1.627   2.590   9.488  0.7999 -0.0081 -0.6239
  111OSM    H8G11552   1.627   2.432   9.565  0.4513  0.6282  0.4250
  111OSM    C9F11553   1.824   2.495   9.496  0.7411 -0.2863 -0.3705
  111OSM    H9F11554   1.896   2.575   9.514  0.0309  0.4644 -0.8194
  111OSM   C10F11555   1.852   2.390   9.418  0.4263  0.1515 -0.3798
  111OSM   H10F11556   1.947   2.378   9.365 -0.1211 -2.0208 -0.9299
  111OSM   C11F11557   1.758   2.286   9.368  0.2767  0.3511  0.1101
  111OSM   H11F11558   1.673   2.273   9.438  1.5783 -0.3509  1.6015
  111OSM   H11G11559   1.814   2.190   9.369 -0.3572 -0.0079  1.4874
  111OSM   C12F11560   1.707   2.320   9.228 -0.2373  0.0692  0.1585
  111OSM   H12F11561   1.657   2.419   9.227  1.0488  0.7304 -0.2828
  111OSM   H12G11562   1.633   2.241   9.201  3.9378 -3.6987 -0.8957
  111OSM   C13F11563   1.814   2.316   9.124 -0.1047 -0.2367  0.3201
  111OSM   H13F11564   1.879   2.230   9.152  0.3381  0.0775  0.2597
  111OSM   H13G11565   1.874   2.409   9.122 -1.9161  0.9355 -1.4829
  111OSM   C14F11566   1.762   2.281   8.983  0.5706  0.4170 -0.1784
  111OSM   H14F11567   1.706   2.368   8.940 -1.0730 -1.0644 -1.0960
  111OSM   H14G11568   1.684   2.202   8.982  1.5221 -0.6109  2.9131
  111OSM   C15F11569   1.882   2.241   8.890 -0.0539 -0.3274  0.5070
  111OSM   H15F11570   1.920   2.147   8.935 -0.6769 -0.2241  1.2577
  111OSM   H15G11571   1.954   2.324   8.908 -0.2716 -0.4361  1.9084
  111OSM   C16F11572   1.851   2.226   8.743 -0.2315  0.6001  1.0125
  111OSM   H16F11573   1.811   2.320   8.699  0.8431  1.1106  1.0933
  111OSM   H16G11574   1.780   2.143   8.725 -2.0131  2.0101  1.3286
  111OSM   C17F11575   1.975   2.187   8.659  0.5880  0.4693 -0.9272
  111OSM   H17F11576   2.037   2.116   8.718  0.2597  1.3454  0.4998
  111OSM   H17G11577   2.041   2.276   8.653 -2.1984  2.6789  0.0341
  111OSM   C18F11578   1.948   2.141   8.515 -0.4889  0.0632 -0.3560
  111OSM   H18F11579   1.865   2.067   8.518  0.4406 -0.9235  2.7863
  111OSM   H18G11580   2.037   2.094   8.467  1.9353  3.0921  1.0145
  111OSM   H18H11581   1.922   2.231   8.455 -0.1328 -0.5259 -1.4133
  112OSM      N11582   1.162   0.255  11.096  0.2331  1.1443 -0.1952
  112OSM    C1511583   1.031   0.238  11.156  0.6440 -0.2347 -0.1981
  112OSM   H15A11584   1.005   0.138  11.189  2.3525  0.0911  2.2077
  112OSM   H15B11585   0.946   0.284  11.108  0.9655 -0.0609 -0.6036
  112OSM   H15C11586   1.032   0.292  11.249 -3.5412 -0.8651  0.3136
  112OSM    C1411587   1.201   0.399  11.072  0.3719 -0.8164 -0.0530
  112OSM   H14A11588   1.299   0.400  11.026  0.7882  1.0270  0.8312
  112OSM   H14B11589   1.209   0.453  11.165 -0.2075  0.0359 -0.5010
  112OSM   H14C11590   1.131   0.453  11.011 -0.2214  1.4590  2.5480
  112OSM    C1311591   1.259   0.196  11.193  0.0403  0.1583 -0.6216
  112OSM   H13A11592   1.358   0.195  11.148 -0.0610  0.0838 -0.8424
  112OSM   H13B11593   1.232   0.092  11.203 -1.7958  0.7697  1.1473
  112OSM   H13C11594   1.262   0.242  11.291  1.1821 -0.4643 -0.3513
  112OSM    C1211595   1.173   0.182  10.962  0.9206 -0.1928 -0.0048
  112OSM   H12A11596   1.080   0.190  10.907  0.0729  0.7021  1.5160
  112OSM   H12B11597   1.179   0.079  10.994 -0.0856 -0.1298  0.4041
  112OSM    C1111598   1.298   0.201  10.874 -1.0690 -0.4264 -0.0790
  112OSM   H11A11599   1.300   0.296  10.816  1.9501 -0.4340 -0.0427
  112OSM   H11B11600   1.284   0.126  10.793  0.3149  0.7456 -1.4311
  112OSM      P11601   1.551   0.234  10.957 -0.3914 -0.0394 -0.1927
  112OSM    O1311602   1.530   0.373  11.006 -0.2233 -0.8506 -0.1713
  112OSM    O1411603   1.647   0.147  11.029 -0.3398  0.2085  0.6158
  112OSM    O1111604   1.584   0.245  10.798  0.4042  0.2075  0.0807
  112OSM    O1211605   1.409   0.163  10.953 -0.7279 -0.1183 -0.0191
  112OSM    C1S11606   1.694   0.320  10.750  0.7063  0.1456 -0.3574
  112OSM    H1S11607   1.790   0.306  10.805  0.2308 -0.2413  0.3890
  112OSM    H1T11608   1.669   0.428  10.757  0.9801  0.1720  0.2708
  112OSM     NF11609   1.860   0.320  10.565 -0.4541  0.1492  0.3282
  112OSM    HNF11610   1.859   0.407  10.515 -3.4661 -0.4059 -0.6887
  112OSM    C2S11611   1.727   0.273  10.600 -0.6210  0.2015 -0.7628
  112OSM    H2S11612   1.739   0.163  10.594 -1.2447  0.0876 -0.0935
  112OSM    C3S11613   1.619   0.319  10.505  0.8837  0.0322  0.0655
  112OSM    H3S11614   1.622   0.429  10.493 -0.9263  0.4326  2.7561
  112OSM     O311615   1.485   0.294  10.547 -1.0291  0.2199  0.0785
  112OSM    HO311616   1.493   0.248  10.631 -0.3352  0.3600  0.0944
  112OSM    C4S11617   1.624   0.244  10.377 -0.3106  0.0057 -0.0588
  112OSM    H4S11618   1.607   0.137  10.394  0.3525 -0.4427 -2.1503
  112OSM    C5S11619   1.673   0.289  10.254  0.2618 -0.9778  0.9985
  112OSM    H5S11620   1.717   0.386  10.228 -0.9864 -1.4692 -3.4109
  112OSM    C6S11621   1.691   0.192  10.138 -0.5467  0.4156  0.2098
  112OSM    H6S11622   1.655   0.090  10.165 -0.3542 -0.0034 -1.0824
  112OSM    H6T11623   1.800   0.196  10.115 -0.6822 -0.3900 -0.6093
  112OSM    C7S11624   1.614   0.241  10.013  0.1196  0.1022  1.0504
  112OSM    H7S11625   1.666   0.327   9.966 -1.0926  0.2924  0.0445
  112OSM    H7T11626   1.514   0.274  10.046 -1.0527 -3.1035  0.8600
  112OSM    C8S11627   1.613   0.124   9.913 -0.1639 -0.3089 -0.2505
  112OSM    H8S11628   1.554   0.038   9.951 -1.2725  0.6435  0.2106
  112OSM    H8T11629   1.717   0.083   9.910 -0.9089 -2.2734  0.3408
  112OSM    C9S11630   1.568   0.164   9.771  0.0514  0.4515  0.4117
  112OSM    H9S11631   1.619   0.260   9.749 -1.3868  1.2423  0.4976
  112OSM    H9T11632   1.460   0.186   9.767 -0.2725 -1.1356  0.0075
  112OSM   C10S11633   1.606   0.058   9.663 -0.1570  0.4089  0.3327
  112OSM   H10S11634   1.537  -0.029   9.673  0.6289 -0.3491 -0.7641
  112OSM   H10T11635   1.711   0.025   9.672 -0.5255 -0.5172  1.3697
  112OSM   C11S11636   1.593   0.125   9.524 -0.6233 -0.2148 -0.0666
  112OSM   H11S11637   1.675   0.195   9.500 -0.4840 -0.4429 -0.2679
  112OSM   H11T11638   1.493   0.172   9.515  0.1281  1.6526  1.0527
  112OSM   C12S11639   1.580   0.026   9.405  0.2429  0.6943 -0.1608
  112OSM   H12S11640   1.509  -0.051   9.442 -0.0849  2.1331  2.3862
  112OSM   H12T11641   1.672  -0.032   9.380 -0.0351 -0.7341  1.9247
  112OSM   C13S11642   1.522   0.098   9.285 -0.0136  0.2496 -0.1587
  112OSM   H13S11643   1.594   0.168   9.238 -0.0476  2.3489  2.7293
  112OSM   H13T11644   1.426   0.149   9.310  0.4672  1.2821 -0.3988
  112OSM   C14S11645   1.486  -0.001   9.168  0.4756 -0.2929 -0.7270
  112OSM   H14S11646   1.438   0.052   9.084  0.2176  2.3313  1.0100
  112OSM   H14T11647   1.431  -0.085   9.214 -0.2366  0.0208 -1.0090
  112OSM   C15S11648   1.612  -0.067   9.113 -0.2788 -0.1696  0.4796
  112OSM   H15S11649   1.660  -0.141   9.181  1.1826 -0.0669 -0.3995
  112OSM   H15T11650   1.691   0.009   9.094  1.2512 -1.7234  0.4190
  112OSM   C16S11651   1.596  -0.125   8.966  0.4803 -0.4587 -0.4034
  112OSM   H16S11652   1.585  -0.037   8.899 -1.7328 -0.7642 -0.4737
  112OSM   H16T11653   1.508  -0.194   8.972 -0.4334  0.7750  0.5540
  112OSM   C17S11654   1.716  -0.204   8.921  0.4684 -0.4291 -0.8167
  112OSM   H17S11655   1.721  -0.292   8.989 -1.1511 -0.2076 -0.4012
  112OSM   H17T11656   1.804  -0.140   8.946  0.2200  0.2210 -1.5827
  112OSM   C18S11657   1.726  -0.234   8.768  0.4374  0.6356  0.1140
  112OSM   H18S11658   1.726  -0.146   8.700 -0.5338 -0.8817 -1.8985
  112OSM   H18T11659   1.642  -0.298   8.734  0.4936  1.2987 -1.3190
  112OSM   H18U11660   1.823  -0.285   8.751 -0.3425 -0.7820 -0.1287
  112OSM    C1F11661   1.977   0.264  10.606 -0.5916  0.1312 -0.4136
  112OSM     OF11662   1.974   0.178  10.691  0.3781 -0.1658 -0.0745
  112OSM    C2F11663   2.103   0.319  10.554  0.0684  1.0528  0.0169
  112OSM    H2F11664   2.171   0.329  10.642  0.6394 -0.3700 -0.2396
  112OSM    H2G11665   2.080   0.416  10.507  0.2759  0.4292 -1.3967
  112OSM    C3F11666   2.165   0.237  10.439 -0.1682  0.3186  0.1056
  112OSM    H3F11667   2.174   0.132  10.476 -0.1578  0.0956 -0.5069
  112OSM    H3G11668   2.269   0.269  10.415 -0.9849  3.4318  0.5555
  112OSM    C4F11669   2.086   0.234  10.310  0.0179  0.2807  0.4914
  112OSM    H4F11670   2.112   0.328  10.257  1.2430 -0.8339 -0.9231
  112OSM    H4G11671   1.982   0.218  10.346 -0.1828 -3.3496 -1.5553
  112OSM    C5F11672   2.140   0.122  10.221 -0.1346 -0.0194 -0.4098
  112OSM    H5F11673   2.121   0.024  10.271 -1.6810 -0.5405 -1.9522
  112OSM    H5G11674   2.250   0.133  10.218 -0.1272  0.5974  1.4792
  112OSM    C6F11675   2.085   0.109  10.082  0.5775  0.0099  1.1206
  112OSM    H6F11676   2.075   0.213  10.043 -0.3183 -0.4249  0.1666
  112OSM    H6G11677   1.986   0.059  10.078  0.1389  0.9915 -2.5139
  112OSM    C7F11678   2.180   0.035   9.983 -0.5865  0.2546  0.7162
  112OSM    H7F11679   2.207  -0.068  10.015  0.1079  0.3909  0.5585
  112OSM    H7G11680   2.274   0.093   9.984  0.0492 -0.7055 -1.4669
  112OSM    C8F11681   2.120   0.031   9.844  0.2532 -0.1870  0.3071
  112OSM    H8F11682   2.109   0.136   9.810  0.4424  0.1619  1.2944
  112OSM    H8G11683   2.018  -0.013   9.845 -0.3266  0.8928 -3.4394
  112OSM    C9F11684   2.212  -0.042   9.746  0.1567  0.3060 -1.5143
  112OSM    H9F11685   2.271  -0.120   9.797  0.6997  0.0647 -2.4943
  112OSM   C10F11686   2.215  -0.031   9.613  0.3282 -0.1378 -0.1211
  112OSM   H10F11687   2.273  -0.101   9.550 -1.3710 -0.0701 -1.8309
  112OSM   C11F11688   2.138   0.059   9.537 -0.1757  0.1800 -0.4258
  112OSM   H11F11689   2.038   0.074   9.584  0.6946 -0.0629  1.5541
  112OSM   H11G11690   2.121   0.014   9.437  1.2248  1.5402 -1.2974
  112OSM   C12F11691   2.208   0.195   9.492 -0.1928  0.3552  0.0903
  112OSM   H12F11692   2.253   0.260   9.569  2.7866 -0.5105 -0.8122
  112OSM   H12G11693   2.122   0.251   9.450 -0.0639  0.1169 -0.4993
  112OSM   C13F11694   2.306   0.184   9.378 -0.5093 -0.0696  0.3700
  112OSM   H13F11695   2.274   0.111   9.301  2.5967  1.4708 -2.4758
  112OSM   H13G11696   2.408   0.163   9.417 -0.4783 -0.6022  0.0103
  112OSM   C14F11697   2.305   0.311   9.293  0.5117  0.6262 -0.6929
  112OSM   H14F11698   2.350   0.390   9.358  0.0090  0.1357  0.2619
  112OSM   H14G11699   2.197   0.328   9.271 -0.4433  0.3228  3.4134
  112OSM   C15F11700   2.385   0.296   9.160 -0.3068  0.0798  0.6803
  112OSM   H15F11701   2.442   0.202   9.152 -0.4511  0.0912 -0.6319
  112OSM   H15G11702   2.465   0.373   9.154 -1.2308  1.1617  1.9395
  112OSM   C16F11703   2.296   0.303   9.041  0.0842 -0.2054  0.4174
  112OSM   H16F11704   2.232   0.393   9.048 -0.3505 -0.6284  2.1938
  112OSM   H16G11705   2.228   0.216   9.041 -0.5298  0.2311  2.2986
  112OSM   C17F11706   2.375   0.307   8.906 -0.1854 -0.6914 -0.5232
  112OSM   H17F11707   2.311   0.292   8.816  0.8325 -3.0944 -0.8889
  112OSM   H17G11708   2.446   0.222   8.897 -0.7969 -0.9847 -2.8088
  112OSM   C18F11709   2.445   0.439   8.884 -0.7124 -0.0318 -0.0416
  112OSM   H18F11710   2.471   0.450   8.776 -0.4957 -0.6668 -0.0559
  112OSM   H18G11711   2.533   0.449   8.951 -1.8817  1.2729  1.3259
  112OSM   H18H11712   2.372   0.520   8.903 -1.3663 -0.0642 -2.2636
  113OSM      N11713   5.578   4.322  11.276  0.4253 -0.2644  0.3109
  113OSM    C1511714   5.689   4.291  11.367  0.0201 -0.0334  0.1331
  113OSM   H15A11715   5.708   4.188  11.343  2.0908  0.1682  0.7993
  113OSM   H15B11716   5.677   4.281  11.474 -0.3272 -3.1199 -0.1573
  113OSM   H15C11717   5.777   4.350  11.346 -0.2951  0.6785  0.7510
  113OSM    C1411718   5.467   4.230  11.294 -0.1205  0.6840 -0.2945
  113OSM   H14A11719   5.512   4.134  11.277 -0.8025  0.1201  1.0597
  113OSM   H14B11720   5.382   4.243  11.229 -0.8927 -1.2155  0.3173
  113OSM   H14C11721   5.435   4.230  11.397  1.5429  2.0655  0.2472
  113OSM    C1311722   5.525   4.456  11.330 -0.4054  0.0087 -0.3884
  113OSM   H13A11723   5.441   4.483  11.267 -0.7725  0.4214  0.2671
  113OSM   H13B11724   5.600   4.531  11.310 -0.5319  0.7374  1.7614
  113OSM   H13C11725   5.501   4.446  11.435 -0.9096 -1.4022 -0.6187
  113OSM    C1211726   5.626   4.333  11.137 -0.2397  0.7620 -1.2977
  113OSM   H12A11727   5.689   4.420  11.134  0.6598  0.2519  1.3386
  113OSM   H12B11728   5.539   4.349  11.075 -0.6481  0.6979 -0.7443
  113OSM    C1111729   5.704   4.215  11.088  0.0745  0.1078 -0.5600
  113OSM   H11A11730   5.696   4.206  10.978 -0.4667 -0.0486 -0.5101
  113OSM   H11B11731   5.664   4.119  11.127 -1.8687  1.0016 -0.2711
  113OSM      P11732   5.929   4.340  11.085 -0.4698  0.0872 -0.0601
  113OSM    O1311733   5.923   4.433  11.198  0.2368  0.3078  0.1730
  113OSM    O1411734   6.065   4.291  11.048 -0.6492  0.7359 -0.0078
  113OSM    O1111735   5.867   4.399  10.955  0.7721 -0.3214  0.0553
  113OSM    O1211736   5.838   4.217  11.131  0.7575 -0.5904 -0.1384
  113OSM    C1S11737   5.915   4.386  10.822 -0.1591 -0.2940  0.0993
  113OSM    H1S11738   5.883   4.287  10.783 -1.2474 -0.0323  0.3070
  113OSM    H1T11739   6.025   4.380  10.814  0.0601  1.1743  1.6697
  113OSM     NF11740   5.915   4.499  10.596 -0.0258 -0.8137 -0.2725
  113OSM    HNF11741   5.977   4.575  10.580  1.0020 -1.3401  1.0919
  113OSM    C2S11742   5.857   4.497  10.730  0.5993  0.1724 -0.6595
  113OSM    H2S11743   5.746   4.491  10.725  0.7054 -1.1413 -1.6378
  113OSM    C3S11744   5.872   4.632  10.804 -0.7915 -0.4557  0.2292
  113OSM    H3S11745   5.981   4.645  10.819 -0.8560  1.4200 -0.7710
  113OSM     O311746   5.807   4.646  10.931  0.6748 -0.1021 -0.2299
  113OSM    HO311747   5.798   4.555  10.960  2.2479 -0.3160 -0.4023
  113OSM    C4S11748   5.822   4.741  10.716  0.0969  0.4909 -0.2766
  113OSM    H4S11749   5.715   4.729  10.691 -0.8882 -0.9284  4.1119
  113OSM    C5S11750   5.878   4.854  10.676 -0.1473  0.5602 -0.6798
  113OSM    H5S11751   5.981   4.879  10.705 -0.5260 -1.0516  2.1969
  113OSM    C6S11752   5.807   4.951  10.586 -0.1787 -0.0542 -1.1947
  113OSM    H6S11753   5.874   5.036  10.558  1.4348 -1.4658 -1.7188
  113OSM    H6T11754   5.724   4.993  10.647 -0.2562 -0.6223 -0.9069
  113OSM    C7S11755   5.745   4.886  10.457 -0.2545 -0.5175  0.3822
  113OSM    H7S11756   5.692   4.964  10.397 -0.1257 -1.2166 -0.6527
  113OSM    H7T11757   5.678   4.804  10.489 -1.0454 -1.1678 -2.6991
  113OSM    C8S11758   5.846   4.832  10.356 -0.0448  0.0311 -0.2184
  113OSM    H8S11759   5.780   4.779  10.284 -0.5748 -1.0236  1.0254
  113OSM    H8T11760   5.903   4.747  10.401  0.4588  1.1103  1.2446
  113OSM    C9S11761   5.940   4.937  10.295 -0.0741  0.6882  0.0043
  113OSM    H9S11762   6.001   4.889  10.215  0.7696  3.4218 -1.0268
  113OSM    H9T11763   6.011   4.973  10.372  2.1155 -1.6389 -0.8630
  113OSM   C10S11764   5.879   5.048  10.210  0.6612 -1.2652 -0.6305
  113OSM   H10S11765   5.960   5.111  10.169 -2.0295  2.7694 -0.0928
  113OSM   H10T11766   5.827   5.118  10.279 -0.7768  0.4151 -3.3438
  113OSM   C11S11767   5.783   5.008  10.100 -0.6405  0.4145 -0.3759
  113OSM   H11S11768   5.768   5.102  10.045 -0.1111  0.0545 -1.1405
  113OSM   H11T11769   5.686   4.990  10.152  0.3015 -0.5236  1.1137
  113OSM   C12S11770   5.819   4.894   9.997 -0.1132 -0.5582  0.6043
  113OSM   H12S11771   5.759   4.802  10.016  0.0266 -0.9415 -0.7906
  113OSM   H12T11772   5.927   4.869  10.003  0.4349  1.2433 -1.4765
  113OSM   C13S11773   5.785   4.934   9.855 -0.0721 -0.9579 -0.3391
  113OSM   H13S11774   5.849   5.023   9.836 -0.5730 -0.3609  0.7200
  113OSM   H13T11775   5.678   4.963   9.852 -0.1583 -1.4794 -3.4334
  113OSM   C14S11776   5.806   4.813   9.760  0.8572  0.0125  0.0355
  113OSM   H14S11777   5.714   4.750   9.755  2.3616 -2.2741  0.2308
  113OSM   H14T11778   5.896   4.757   9.795  0.7602 -0.3461 -0.2860
  113OSM   C15S11779   5.829   4.852   9.613 -0.3587  0.5713  0.1064
  113OSM   H15S11780   5.852   4.761   9.553 -3.0219 -0.5372  0.6916
  113OSM   H15T11781   5.915   4.918   9.591  1.2218 -2.3612 -2.8999
  113OSM   C16S11782   5.706   4.908   9.550  0.2244 -0.4933  0.5876
  113OSM   H16S11783   5.672   4.995   9.610 -1.7812 -0.0949 -1.0394
  113OSM   H16T11784   5.631   4.825   9.545 -1.3234  0.8334  1.2164
  113OSM   C17S11785   5.742   4.956   9.409 -0.5281  0.6548  0.7282
  113OSM   H17S11786   5.810   4.886   9.356 -0.1487  3.0467 -2.1332
  113OSM   H17T11787   5.785   5.057   9.425  0.7554 -0.0406  1.7864
  113OSM   C18S11788   5.625   4.969   9.314  0.0204 -0.3424  0.3721
  113OSM   H18S11789   5.556   4.882   9.312 -0.2695 -0.1179  0.5797
  113OSM   H18T11790   5.659   5.001   9.213  1.6709 -1.8554  0.4246
  113OSM   H18U11791   5.565   5.055   9.351  1.3474  0.3201  1.0017
  113OSM    C1F11792   5.904   4.394  10.514  0.0118  0.1376 -0.4689
  113OSM     OF11793   5.829   4.303  10.542  0.2312  0.6533  0.5758
  113OSM    C2F11794   5.991   4.387  10.395  0.2391 -0.8635 -0.1959
  113OSM    H2F11795   6.081   4.331  10.427  0.5221 -0.2134  0.1591
  113OSM    H2G11796   6.019   4.488  10.358  0.3091 -1.5081 -1.9497
  113OSM    C3F11797   5.920   4.309  10.278 -0.0957 -0.0779 -0.5495
  113OSM    H3F11798   5.825   4.365  10.267 -2.7217 -4.5245 -1.6416
  113OSM    H3G11799   5.886   4.209  10.311  0.0309 -0.1208 -0.5487
  113OSM    C4F11800   6.005   4.289  10.150  0.1104 -0.4128 -0.9421
  113OSM    H4F11801   5.950   4.226  10.077  0.7146 -0.4009 -1.4098
  113OSM    H4G11802   6.102   4.240  10.173  0.7310 -0.0692 -2.7626
  113OSM    C5F11803   6.021   4.426  10.091  0.2884 -0.0210 -0.1524
  113OSM    H5F11804   6.091   4.480  10.159 -1.5324  1.9218  0.2328
  113OSM    H5G11805   5.923   4.477  10.082  0.4711  0.8029  2.1245
  113OSM    C6F11806   6.078   4.423   9.950 -0.0889 -0.0482 -0.5424
  113OSM    H6F11807   6.165   4.354   9.956 -0.0268 -0.1940 -2.6995
  113OSM    H6G11808   6.118   4.521   9.917 -0.2580  0.5936  1.1166
  113OSM    C7F11809   5.975   4.377   9.847  0.0453 -0.2362 -0.0880
  113OSM    H7F11810   5.883   4.420   9.891  1.2148  3.2100 -0.8318
  113OSM    H7G11811   5.962   4.267   9.850  0.4191 -0.2876 -0.3255
  113OSM    C8F11812   6.010   4.418   9.702 -0.9275 -0.2157 -0.2249
  113OSM    H8F11813   6.009   4.528   9.689 -0.5026  0.1051  2.2146
  113OSM    H8G11814   5.936   4.387   9.625  1.8960 -2.6053 -2.0837
  113OSM    C9F11815   6.136   4.358   9.651  0.3761 -0.3634 -0.8835
  113OSM    H9F11816   6.222   4.365   9.721 -0.1914 -0.2008 -0.1987
  113OSM   C10F11817   6.170   4.293   9.538  0.2850 -0.3950 -0.2956
  113OSM   H10F11818   6.272   4.253   9.537 -0.2386 -2.0597  3.4206
  113OSM   C11F11819   6.076   4.265   9.423  0.4272 -0.5677  0.4538
  113OSM   H11F11820   5.970   4.250   9.454  0.2083  1.5061  0.7696
  113OSM   H11G11821   6.105   4.166   9.382  2.1992 -0.1747  0.7113
  113OSM   C12F11822   6.107   4.375   9.317  0.8342  0.0756 -0.5092
  113OSM   H12F11823   6.209   4.361   9.275  0.9920 -2.0220  0.5022
  113OSM   H12G11824   6.106   4.472   9.371 -0.3971 -1.2195  1.8528
  113OSM   C13F11825   5.996   4.368   9.211 -0.0419  0.3119 -0.1642
  113OSM   H13F11826   5.918   4.291   9.229 -0.1775 -0.2902 -3.1238
  113OSM   H13G11827   6.015   4.334   9.107 -0.1937  0.6103 -0.2895
  113OSM   C14F11828   5.927   4.495   9.189  0.5428 -0.6671  0.0275
  113OSM   H14F11829   5.884   4.544   9.279 -3.1260  1.0552 -2.5357
  113OSM   H14G11830   5.844   4.473   9.119  0.8137 -1.8765  0.0805
  113OSM   C15F11831   6.011   4.596   9.104  0.0774 -0.2619  0.4452
  113OSM   H15F11832   6.037   4.544   9.009 -2.3080 -0.0476 -0.3702
  113OSM   H15G11833   6.104   4.624   9.157 -0.0357 -0.1021  0.5602
  113OSM   C16F11834   5.939   4.728   9.084 -0.1940  0.0155 -0.0888
  113OSM   H16F11835   5.923   4.779   9.181 -0.1697 -1.7720  0.8870
  113OSM   H16G11836   5.843   4.724   9.027  0.2771  0.0805 -0.8930
  113OSM   C17F11837   6.023   4.822   8.993 -0.3645  0.3310  0.5217
  113OSM   H17F11838   6.046   4.765   8.901  3.2238 -0.2049  1.6535
  113OSM   H17G11839   6.117   4.838   9.050 -2.0054 -0.4166  3.5753
  113OSM   C18F11840   5.973   4.958   8.960 -0.2256  0.8968  0.4138
  113OSM   H18F11841   6.049   5.007   8.896 -1.1812 -0.8277 -2.1597
  113OSM   H18G11842   5.949   5.023   9.046 -1.9358  1.8196 -0.7229
  113OSM   H18H11843   5.882   4.953   8.896  0.4624  2.2137 -0.6816
  114OSM      N11844   1.138   1.618  10.823  0.1802  0.4819  0.6177
  114OSM    C1511845   1.021   1.681  10.749  0.1860  0.3956  0.4677
  114OSM   H15A11846   1.053   1.717  10.653 -1.6640  1.4141  0.2093
  114OSM   H15B11847   0.966   1.756  10.804 -1.0814  0.4832 -0.8936
  114OSM   H15C11848   0.956   1.600  10.717 -0.6799  1.3521 -0.2166
  114OSM    C1411849   1.251   1.720  10.832 -0.1599  0.0863 -0.0484
  114OSM   H14A11850   1.229   1.806  10.893 -1.0550 -0.2115  0.0447
  114OSM   H14B11851   1.274   1.748  10.730 -1.6207 -0.3979 -0.5266
  114OSM   H14C11852   1.334   1.673  10.883  0.4350 -0.0280 -1.1042
  114OSM    C1311853   1.090   1.581  10.958  0.3118  0.2879 -0.4055
  114OSM   H13A11854   1.000   1.521  10.967  0.8041 -0.6743 -1.8643
  114OSM   H13B11855   1.058   1.669  11.012  1.9053  0.4508  0.2890
  114OSM   H13C11856   1.169   1.532  11.013  0.8816  0.0184 -1.4651
  114OSM    C1211857   1.179   1.498  10.747  0.3340 -0.2955 -0.0343
  114OSM   H12A11858   1.265   1.452  10.793  0.1257  1.0193  1.7069
  114OSM   H12B11859   1.217   1.537  10.653 -1.8699  0.0813 -0.8076
  114OSM    C1111860   1.077   1.392  10.708  0.1290 -0.4038  0.0236
  114OSM   H11A11861   1.116   1.331  10.623  2.0742  0.4380  0.2997
  114OSM   H11B11862   0.980   1.430  10.669 -0.6340 -0.9156  1.3928
  114OSM      P11863   1.142   1.213  10.877 -0.0691  0.0820 -0.1869
  114OSM    O1311864   1.267   1.285  10.909  0.2009  0.2284  0.5380
  114OSM    O1411865   1.078   1.138  10.987 -0.0572 -0.2437 -0.1579
  114OSM    O1111866   1.171   1.122  10.750  0.3105 -0.1290 -0.1151
  114OSM    O1211867   1.036   1.309  10.816  0.3151 -0.1505  0.1031
  114OSM    C1S11868   1.091   1.000  10.726  0.1322 -0.4258  0.6230
  114OSM    H1S11869   0.986   1.031  10.708  0.2624  0.4180  1.2848
  114OSM    H1T11870   1.100   0.916  10.798 -0.0863 -1.0024 -0.0199
  114OSM     NF11871   1.069   0.826  10.534  0.7479 -0.0361 -0.7848
  114OSM    HNF11872   1.100   0.733  10.553  3.2334  0.2428 -3.1850
  114OSM    C2S11873   1.150   0.931  10.597 -0.3423  0.2363  0.5211
  114OSM    H2S11874   1.164   1.017  10.528  2.1891 -1.7804 -1.6121
  114OSM    C3S11875   1.295   0.892  10.632  0.1837  0.1779 -0.7860
  114OSM    H3S11876   1.300   0.813  10.709  2.9466 -1.0004 -2.1053
  114OSM     O311877   1.380   0.992  10.689 -0.3227 -0.2092 -0.4373
  114OSM    HO311878   1.316   1.062  10.707 -1.6748 -0.8366 -2.6555
  114OSM    C4S11879   1.354   0.820  10.517 -0.1422 -0.3683  0.0027
  114OSM    H4S11880   1.348   0.710  10.519  0.1596 -0.3883 -0.1304
  114OSM    C5S11881   1.411   0.875  10.407 -0.4000  0.2771  0.0603
  114OSM    H5S11882   1.410   0.985  10.405 -0.3896  0.2835  0.4058
  114OSM    C6S11883   1.475   0.807  10.290  0.3377  0.5459  0.0308
  114OSM    H6S11884   1.583   0.797  10.311  0.0986 -0.0881  0.9504
  114OSM    H6T11885   1.464   0.869  10.198  0.0452  0.9812  0.3571
  114OSM    C7S11886   1.434   0.662  10.253 -0.5732 -0.4842 -0.3593
  114OSM    H7S11887   1.327   0.663  10.224  0.5480  0.1775 -4.7695
  114OSM    H7T11888   1.450   0.591  10.338 -0.5659 -0.2323 -0.1482
  114OSM    C8S11889   1.518   0.607  10.140  0.0958  0.0979 -0.2524
  114OSM    H8S11890   1.478   0.504  10.132  1.8864 -0.6317 -0.1699
  114OSM    H8T11891   1.620   0.590  10.180 -1.0838 -1.6293  2.1026
  114OSM    C9S11892   1.515   0.684  10.007 -0.1010  0.1730 -0.0521
  114OSM    H9S11893   1.576   0.628   9.932 -1.4424 -1.2560 -0.1021
  114OSM    H9T11894   1.564   0.783  10.012 -0.0392  0.3282 -2.8676
  114OSM   C10S11895   1.374   0.709   9.954  0.4129 -0.2445 -0.1214
  114OSM   H10S11896   1.323   0.782  10.020 -1.7279  0.1125 -2.1024
  114OSM   H10T11897   1.305   0.622   9.962 -0.5596  0.3644 -1.5547
  114OSM   C11S11898   1.379   0.746   9.809 -0.3456  0.3056 -0.7031
  114OSM   H11S11899   1.450   0.831   9.801  0.2844 -0.3363 -2.0722
  114OSM   H11T11900   1.280   0.792   9.788 -0.5853 -0.4741 -1.3178
  114OSM   C12S11901   1.401   0.641   9.712  0.4763 -0.3393  0.2607
  114OSM   H12S11902   1.312   0.574   9.716 -0.1884  0.6173  4.4547
  114OSM   H12T11903   1.493   0.581   9.728 -0.0912 -1.7303 -1.5362
  114OSM   C13S11904   1.409   0.698   9.571 -0.3428 -0.3775  0.7436
  114OSM   H13S11905   1.517   0.724   9.564 -0.4117  0.2187  1.8282
  114OSM   H13T11906   1.354   0.794   9.559  1.6906  0.6794 -0.4148
  114OSM   C14S11907   1.373   0.588   9.469 -0.2741 -0.2172 -0.3098
  114OSM   H14S11908   1.263   0.572   9.474 -0.1590 -1.0302 -0.4188
  114OSM   H14T11909   1.427   0.496   9.496 -0.6684 -0.1897  0.6081
  114OSM   C15S11910   1.413   0.622   9.325  0.5041  0.0421  0.1166
  114OSM   H15S11911   1.516   0.661   9.336  0.5118  0.0956 -0.1330
  114OSM   H15T11912   1.355   0.709   9.289  0.0073 -0.0786  0.6213
  114OSM   C16S11913   1.415   0.506   9.229 -0.0563  0.0596 -0.4441
  114OSM   H16S11914   1.319   0.451   9.223  1.0239 -1.8346 -0.5557
  114OSM   H16T11915   1.480   0.424   9.267 -1.0493  0.1847  1.5965
  114OSM   C17S11916   1.469   0.552   9.096 -0.1693  0.6680 -0.0721
  114OSM   H17S11917   1.573   0.586   9.117 -0.1479  0.6598 -0.1620
  114OSM   H17T11918   1.421   0.643   9.055 -0.6456  0.5900  0.3066
  114OSM   C18S11919   1.474   0.441   8.992 -0.2901 -0.2186 -0.0338
  114OSM   H18S11920   1.535   0.468   8.903  0.3894 -1.8356 -0.0704
  114OSM   H18T11921   1.371   0.413   8.962 -1.5313  1.0434  2.8737
  114OSM   H18U11922   1.512   0.347   9.038  2.0845  0.7920  0.1222
  114OSM    C1F11923   0.969   0.860  10.453  0.0854 -0.6447  0.3515
  114OSM     OF11924   0.934   0.978  10.452 -0.3142 -0.1558  0.3824
  114OSM    C2F11925   0.901   0.752  10.369  0.2722 -0.2309  1.0826
  114OSM    H2F11926   0.897   0.657  10.427  2.4617 -2.0375 -1.5834
  114OSM    H2G11927   0.965   0.719  10.284 -1.9406 -2.6003  0.2898
  114OSM    C3F11928   0.762   0.801  10.321  1.0422  0.4740 -0.1496
  114OSM    H3F11929   0.772   0.906  10.287 -1.3863  1.0775  0.8426
  114OSM    H3G11930   0.690   0.804  10.406 -0.5730 -0.8092 -1.4315
  114OSM    C4F11931   0.707   0.715  10.204  1.1989  0.5372  0.1740
  114OSM    H4F11932   0.730   0.607  10.217  0.0491  0.2331 -0.2413
  114OSM    H4G11933   0.750   0.762  10.113 -0.8503  0.3112 -0.9461
  114OSM    C5F11934   0.553   0.724  10.188  0.0392  0.1929  0.2719
  114OSM    H5F11935   0.525   0.830  10.174 -0.4950 -0.0708 -0.7083
  114OSM    H5G11936   0.507   0.684  10.281 -0.1143 -1.0440 -0.3306
  114OSM    C6F11937   0.517   0.646  10.059 -0.4346 -0.2013  0.2999
  114OSM    H6F11938   0.429   0.590  10.094  0.5596 -2.0014 -0.0096
  114OSM    H6G11939   0.587   0.560  10.052  0.1499  0.3185 -0.3692
  114OSM    C7F11940   0.509   0.725   9.932 -0.3853  0.5121  0.2661
  114OSM    H7F11941   0.596   0.795   9.934 -0.8757  1.1488 -0.6850
  114OSM    H7G11942   0.425   0.798   9.930  0.4283  1.4397 -1.6281
  114OSM    C8F11943   0.508   0.639   9.804 -0.6129  0.7214  0.7923
  114OSM    H8F11944   0.422   0.569   9.810  0.6330 -0.9705 -0.5869
  114OSM    H8G11945   0.602   0.581   9.797 -0.2627  1.5045 -1.5750
  114OSM    C9F11946   0.489   0.728   9.683  0.4710  0.6394  0.0239
  114OSM    H9F11947   0.391   0.776   9.672 -0.6965 -0.8915  3.2857
  114OSM   C10F11948   0.576   0.735   9.579  0.4845 -0.0068  0.3779
  114OSM   H10F11949   0.543   0.797   9.494  2.4020  1.3167  0.5764
  114OSM   C11F11950   0.706   0.663   9.568  0.3092  0.5155 -0.9267
  114OSM   H11F11951   0.703   0.559   9.607 -1.9951  1.4697  1.6010
  114OSM   H11G11952   0.787   0.718   9.621 -1.6825  3.6379 -0.9937
  114OSM   C12F11953   0.749   0.653   9.419 -0.3950 -0.4550  0.3307
  114OSM   H12F11954   0.857   0.631   9.414 -0.1823  0.3190  1.4045
  114OSM   H12G11955   0.735   0.754   9.376  1.8600  0.0292  0.6963
  114OSM   C13F11956   0.671   0.541   9.340  0.2953 -0.0297 -0.8069
  114OSM   H13F11957   0.573   0.580   9.303 -0.4298 -0.4954  0.5668
  114OSM   H13G11958   0.648   0.449   9.399 -4.0261  2.0233  0.9409
  114OSM   C14F11959   0.745   0.495   9.220  0.5084 -0.4423 -0.1736
  114OSM   H14F11960   0.801   0.401   9.239  1.7000  0.0676 -1.1333
  114OSM   H14G11961   0.827   0.567   9.202  0.6634 -0.2619  1.1430
  114OSM   C15F11962   0.653   0.481   9.098 -0.3775 -0.3943 -0.4908
  114OSM   H15F11963   0.612   0.582   9.078 -1.5184 -1.2591 -2.6736
  114OSM   H15G11964   0.577   0.406   9.129 -0.4900  1.1522  3.1771
  114OSM   C16F11965   0.704   0.420   8.969 -0.8918 -0.9329 -0.4512
  114OSM   H16F11966   0.735   0.314   8.980  1.9335 -0.1791 -0.7721
  114OSM   H16G11967   0.800   0.470   8.946 -0.9440 -0.2225  0.8403
  114OSM   C17F11968   0.624   0.442   8.845  0.9390  0.4812 -0.8352
  114OSM   H17F11969   0.690   0.440   8.756 -0.9606  0.8597 -2.3033
  114OSM   H17G11970   0.569   0.538   8.848  3.1280  1.7801 -1.4862
  114OSM   C18F11971   0.521   0.330   8.834 -0.4294  0.5353  0.2139
  114OSM   H18F11972   0.563   0.228   8.823  0.3646  0.8918 -0.0866
  114OSM   H18G11973   0.461   0.358   8.744 -0.7297 -2.2602 -0.4850
  114OSM   H18H11974   0.443   0.331   8.913 -0.5546 -3.4915  0.2322
  115OSM      N11975   4.620   6.582  11.321  0.4947  0.2113  0.2594
  115OSM    C1511976   4.482   6.511  11.330 -0.5743 -1.3689  0.4416
  115OSM   H15A11977   4.413   6.570  11.388 -2.3061 -1.3369 -1.5927
  115OSM   H15B11978   4.495   6.413  11.373  0.6531 -1.2771  0.3105
  115OSM   H15C11979   4.438   6.489  11.234 -2.1315  0.8640  0.6070
  115OSM    C1411980   4.587   6.717  11.277  0.0151 -0.5499  0.8865
  115OSM   H14A11981   4.677   6.766  11.244 -1.0115  0.1740 -0.8472
  115OSM   H14B11982   4.544   6.779  11.355  0.9144  1.0135  0.1466
  115OSM   H14C11983   4.528   6.700  11.188  2.1830 -1.9999 -0.3056
  115OSM    C1311984   4.684   6.592  11.456 -0.4182 -0.3065 -0.0465
  115OSM   H13A11985   4.761   6.667  11.468  0.1209 -0.8578 -0.0654
  115OSM   H13B11986   4.735   6.497  11.459  1.6054  0.7935  0.9408
  115OSM   H13C11987   4.612   6.603  11.536 -4.2599  0.3354 -3.3847
  115OSM    C1211988   4.711   6.505  11.226 -0.4956  0.1872 -0.1706
  115OSM   H12A11989   4.701   6.399  11.238  0.1355  0.3803  2.5720
  115OSM   H12B11990   4.813   6.535  11.249 -0.8593  0.4709  1.1167
  115OSM    C1111991   4.676   6.530  11.080 -0.0495 -0.8717 -0.8037
  115OSM   H11A11992   4.571   6.498  11.062 -0.3210 -1.5951  1.8294
  115OSM   H11B11993   4.732   6.451  11.025  1.9561  1.5391 -2.3167
  115OSM      P11994   4.850   6.699  10.980 -0.3875  0.0566  0.0858
  115OSM    O1311995   4.855   6.848  10.969  0.7241 -0.3175 -0.2129
  115OSM    O1411996   4.936   6.633  11.077 -0.1670 -0.1258 -0.1292
  115OSM    O1111997   4.852   6.624  10.845  0.0634 -0.1435  0.4824
  115OSM    O1211998   4.708   6.663  11.026  0.0402 -1.2003  0.2552
  115OSM    C1S11999   4.730   6.597  10.774  0.4419 -0.8430 -0.6541
  115OSM    H1S12000   4.690   6.692  10.734  0.1597  0.2702  2.1529
  115OSM    H1T12001   4.650   6.543  10.830 -0.6963  1.2661 -0.1967
  115OSM     NF12002   4.685   6.511  10.541 -0.2323  0.5576 -0.1695
  115OSM    HNF12003   4.596   6.466  10.532 -0.3592  0.8506 -0.3734
  115OSM    C2S12004   4.755   6.484  10.666 -0.2111 -0.0740  0.0719
  115OSM    H2S12005   4.864   6.487  10.645 -0.4262  0.3766 -1.0349
  115OSM    C3S12006   4.728   6.346  10.729  0.2259 -0.3428 -0.3157
  115OSM    H3S12007   4.631   6.334  10.782  2.4027 -0.3890  3.9073
  115OSM     O312008   4.831   6.303  10.824 -0.2542 -0.7062  0.0031
  115OSM    HO312009   4.889   6.379  10.831  1.3091 -1.9933  1.6099
  115OSM    C4S12010   4.739   6.245  10.621 -0.1050 -0.6816  0.8052
  115OSM    H4S12011   4.829   6.258  10.559  0.6482  1.1994  2.2352
  115OSM    C5S12012   4.635   6.158  10.586 -0.4122  0.5608 -0.0144
  115OSM    H5S12013   4.545   6.156  10.649 -0.4671  1.1801 -0.0706
  115OSM    C6S12014   4.647   6.057  10.476 -0.1736  0.4595 -0.3849
  115OSM    H6S12015   4.646   5.955  10.521 -0.9479 -0.0439 -1.5495
  115OSM    H6T12016   4.742   6.062  10.418 -0.1514 -2.3004 -0.6881
  115OSM    C7S12017   4.520   6.072  10.392 -0.6791 -0.0167  0.6177
  115OSM    H7S12018   4.432   6.053  10.458 -1.1838 -0.9253 -0.2934
  115OSM    H7T12019   4.510   5.984  10.324 -1.9428 -0.2543  1.0846
  115OSM    C8S12020   4.512   6.186  10.298  0.1353  0.2097  0.4506
  115OSM    H8S12021   4.531   6.280  10.354  1.1886 -0.2888  0.9272
  115OSM    H8T12022   4.405   6.186  10.267 -0.0560  2.1556  1.0026
  115OSM    C9S12023   4.594   6.183  10.163  0.9697  1.0129  0.4063
  115OSM    H9S12024   4.549   6.102  10.102  0.9646 -0.0504  1.8076
  115OSM    H9T12025   4.701   6.158  10.179  0.8923 -0.2639 -0.9324
  115OSM   C10S12026   4.562   6.313  10.094 -0.8930 -0.3654  1.2430
  115OSM   H10S12027   4.599   6.401  10.150 -0.8618  0.4462 -0.0243
  115OSM   H10T12028   4.452   6.330  10.088 -0.6229  0.9094 -0.4347
  115OSM   C11S12029   4.621   6.297   9.951  0.8653  0.4151 -0.8661
  115OSM   H11S12030   4.560   6.215   9.905  0.2061  0.8892 -0.8440
  115OSM   H11T12031   4.725   6.259   9.960  1.1703  1.4703  0.0713
  115OSM   C12S12032   4.609   6.419   9.862 -0.3932 -0.3114  0.6994
  115OSM   H12S12033   4.670   6.506   9.892  1.1942 -1.6834  1.5477
  115OSM   H12T12034   4.503   6.452   9.875  0.0714  0.5871  2.2439
  115OSM   C13S12035   4.650   6.388   9.718 -0.5975  0.0466  0.2925
  115OSM   H13S12036   4.601   6.294   9.686 -0.9600  0.0898  0.7092
  115OSM   H13T12037   4.758   6.362   9.712 -0.4929  0.1814  1.3690
  115OSM   C14S12038   4.629   6.494   9.618 -0.3810  0.1760 -0.1682
  115OSM   H14S12039   4.699   6.577   9.640  0.3216  0.2297 -2.4377
  115OSM   H14T12040   4.530   6.539   9.639 -0.5536  0.0924 -0.7848
  115OSM   C15S12041   4.631   6.440   9.482 -0.0393 -0.3080 -1.0186
  115OSM   H15S12042   4.560   6.356   9.474  0.2999 -0.9405  2.1319
  115OSM   H15T12043   4.726   6.389   9.452  0.3026 -0.0590 -0.3663
  115OSM   C16S12044   4.590   6.553   9.389  0.0469  0.3118  0.1118
  115OSM   H16S12045   4.648   6.640   9.428  3.0834 -1.2520 -0.7788
  115OSM   H16T12046   4.487   6.572   9.426  0.0607 -2.0025  1.4382
  115OSM   C17S12047   4.603   6.531   9.238  0.2197  0.2234  0.2318
  115OSM   H17S12048   4.555   6.618   9.187 -3.4313 -1.9392 -0.2344
  115OSM   H17T12049   4.551   6.442   9.197  0.2228  0.4011 -0.1690
  115OSM   C18S12050   4.750   6.518   9.192  0.3018 -0.5012 -0.3161
  115OSM   H18S12051   4.790   6.414   9.194  1.6924  0.0460  2.3668
  115OSM   H18T12052   4.822   6.585   9.245  0.2153  1.5573 -2.7087
  115OSM   H18U12053   4.764   6.557   9.089 -2.2593  1.1063 -0.0947
  115OSM    C1F12054   4.715   6.620  10.470 -0.1589 -0.3427  0.6739
  115OSM     OF12055   4.815   6.688  10.498  0.0881  0.0673 -0.5817
  115OSM    C2F12056   4.632   6.658  10.354 -0.3730  0.4098 -0.6027
  115OSM    H2F12057   4.535   6.700  10.390  0.7840  3.9948 -1.4278
  115OSM    H2G12058   4.606   6.563  10.303 -0.3530 -1.1093  2.1122
  115OSM    C3F12059   4.702   6.756  10.255 -0.8741  0.5140  0.0197
  115OSM    H3F12060   4.812   6.738  10.259 -1.1467 -1.2090  0.3488
  115OSM    H3G12061   4.694   6.856  10.302 -1.3325 -0.5798  2.3160
  115OSM    C4F12062   4.639   6.759  10.117  0.1413 -0.2680  0.0475
  115OSM    H4F12063   4.532   6.759  10.146 -0.1811 -0.4718 -1.1221
  115OSM    H4G12064   4.650   6.664  10.060 -0.8102 -0.9091  0.9033
  115OSM    C5F12065   4.693   6.879  10.040  0.0974 -0.0276  0.9169
  115OSM    H5F12066   4.803   6.879  10.057  0.1813  0.2765  0.3941
  115OSM    H5G12067   4.646   6.972  10.078 -1.2944 -0.6145  0.6862
  115OSM    C6F12068   4.676   6.871   9.891 -0.0384  0.1717 -0.0957
  115OSM    H6F12069   4.570   6.843   9.872  0.2585 -0.9064 -0.1974
  115OSM    H6G12070   4.742   6.789   9.854  0.1473 -0.4260  1.5226
  115OSM    C7F12071   4.715   6.998   9.804 -0.4651  0.7225 -0.2150
  115OSM    H7F12072   4.799   7.043   9.861  1.9240 -4.0732  0.3447
  115OSM    H7G12073   4.636   7.076   9.812 -1.4288  0.2097 -3.8551
  115OSM    C8F12074   4.740   6.978   9.653  0.3257 -0.1205 -0.7302
  115OSM    H8F12075   4.829   6.912   9.641  0.9764  0.4553  0.7997
  115OSM    H8G12076   4.781   7.073   9.611  2.6671 -0.5449  0.4998
  115OSM    C9F12077   4.623   6.924   9.572 -0.1367 -0.3793 -0.1500
  115OSM    H9F12078   4.590   6.822   9.595  0.0339 -0.1441  1.1778
  115OSM   C10F12079   4.542   6.992   9.487  0.3550 -1.3562 -0.2189
  115OSM   H10F12080   4.450   6.945   9.449 -2.0072  1.0333  2.2773
  115OSM   C11F12081   4.551   7.144   9.457 -0.3955  1.0316  0.3376
  115OSM   H11F12082   4.607   7.165   9.363  0.5306 -0.5427  0.5249
  115OSM   H11G12083   4.612   7.192   9.537 -0.8609  3.9902 -1.0275
  115OSM   C12F12084   4.417   7.218   9.457 -0.4809 -0.4414  0.0754
  115OSM   H12F12085   4.426   7.325   9.486 -0.2004  0.0043 -1.6318
  115OSM   H12G12086   4.370   7.163   9.541  2.4377 -2.1903  0.6253
  115OSM   C13F12087   4.356   7.219   9.318 -0.7769 -0.2697 -0.0408
  115OSM   H13F12088   4.341   7.119   9.272  1.1443  0.5154 -2.4965
  115OSM   H13G12089   4.423   7.279   9.252 -1.8629  1.4320  0.3724
  115OSM   C14F12090   4.233   7.303   9.314 -0.1413  0.5463 -0.3153
  115OSM   H14F12091   4.266   7.403   9.348  0.0935 -0.2350  1.8616
  115OSM   H14G12092   4.166   7.253   9.387 -0.3847 -1.4412 -1.8584
  115OSM   C15F12093   4.162   7.323   9.180  0.3520 -0.3804 -0.4041
  115OSM   H15F12094   4.080   7.396   9.196  1.2562  0.0909  2.4555
  115OSM   H15G12095   4.120   7.225   9.148 -0.4209  0.3648 -1.7049
  115OSM   C16F12096   4.255   7.374   9.071 -0.0162  0.1073 -0.1018
  115OSM   H16F12097   4.340   7.305   9.052  0.1031  0.5308 -1.1123
  115OSM   H16G12098   4.307   7.459   9.121 -0.8724 -0.2207  1.3695
  115OSM   C17F12099   4.185   7.411   8.932 -0.5238 -0.1923  0.0015
  115OSM   H17F12100   4.252   7.470   8.867  0.6642  0.0373  1.4050
  115OSM   H17G12101   4.101   7.479   8.958  1.4355  3.1248 -2.0609
  115OSM   C18F12102   4.140   7.289   8.863 -0.1224  0.1868  0.1540
  115OSM   H18F12103   4.224   7.238   8.812  0.2849 -0.2136  1.2291
  115OSM   H18G12104   4.065   7.315   8.784  1.8159 -1.3396 -2.2683
  115OSM   H18H12105   4.091   7.223   8.938 -1.6253  0.8910 -0.1807
  116OSM      N12106   0.824   3.103  11.350 -0.0167 -0.2721 -0.2761
  116OSM    C1512107   0.969   3.127  11.388 -0.0693 -0.1117  0.4425
  116OSM   H15A12108   1.028   3.191  11.325  0.7763  0.6149  1.9467
  116OSM   H15B12109   1.010   3.027  11.393 -2.4547 -1.0448  2.5904
  116OSM   H15C12110   0.972   3.174  11.485  1.4675 -1.5942  1.1414
  116OSM    C1412111   0.754   3.008  11.445  0.2548 -0.6146  0.7819
  116OSM   H14A12112   0.648   3.010  11.423  0.3572 -0.0083  0.3461
  116OSM   H14B12113   0.775   3.056  11.539  0.4011 -0.5886  0.7368
  116OSM   H14C12114   0.795   2.907  11.448  2.4458  0.2716  2.5955
  116OSM    C1312115   0.753   3.233  11.346  0.0200 -0.1453  0.0483
  116OSM   H13A12116   0.820   3.314  11.325  0.0486 -0.0865  0.3563
  116OSM   H13B12117   0.725   3.253  11.449  0.7691 -2.5951  0.7743
  116OSM   H13C12118   0.663   3.235  11.287 -0.3877 -1.5723  0.5883
  116OSM    C1212119   0.821   3.042  11.208  0.0466 -0.2052 -0.6616
  116OSM   H12A12120   0.721   3.006  11.191 -0.7072  1.7241 -0.5344
  116OSM   H12B12121   0.882   2.954  11.217 -0.5022 -0.5766 -0.6016
  116OSM    C1112122   0.869   3.134  11.085 -0.0755  0.3043 -0.6778
  116OSM   H11A12123   0.793   3.213  11.066 -3.6944 -2.2481  2.2298
  116OSM   H11B12124   0.864   3.084  10.986  1.5944  0.8467 -1.0431
  116OSM      P12125   1.134   3.136  11.055 -0.2450 -0.2116  0.2844
  116OSM    O1312126   1.230   3.246  11.041  0.7425 -0.1091 -0.5258
  116OSM    O1412127   1.173   3.009  11.122 -0.9172  0.2476  0.5528
  116OSM    O1112128   1.103   3.098  10.904  0.3753  0.1484  0.4935
  116OSM    O1212129   0.994   3.189  11.108 -0.1221  0.5320  0.3939
  116OSM    C1S12130   1.196   3.129  10.795 -0.6972  0.6318  0.4142
  116OSM    H1S12131   1.248   3.033  10.770  0.0773  1.8815 -2.9694
  116OSM    H1T12132   1.279   3.197  10.824 -0.9270  1.0219  0.1467
  116OSM     NF12133   1.203   3.177  10.560  0.0574 -0.3218  0.3219
  116OSM    HNF12134   1.257   3.260  10.547 -0.2303 -0.2791 -0.5558
  116OSM    C2S12135   1.115   3.181  10.672  0.7010  0.0662 -1.0072
  116OSM    H2S12136   1.036   3.107  10.650  3.0596 -3.1254  0.7975
  116OSM    C3S12137   1.056   3.322  10.699 -0.0300 -0.1654  0.1075
  116OSM    H3S12138   1.139   3.395  10.703 -0.7986  0.7048  0.1373
  116OSM     O312139   0.979   3.347  10.815 -0.6534 -0.0478 -0.4150
  116OSM    HO312140   0.985   3.273  10.876 -1.2685  1.3408  1.3569
  116OSM    C4S12141   0.982   3.364  10.574  0.3353 -0.1025 -0.4713
  116OSM    H4S12142   0.934   3.276  10.529  0.2669  1.4305 -3.5291
  116OSM    C5S12143   0.949   3.490  10.535  0.5101  0.0286  0.0849
  116OSM    H5S12144   0.983   3.577  10.594  1.5166 -1.0221  1.0940
  116OSM    C6S12145   0.862   3.515  10.412  0.5958 -0.2532 -0.2901
  116OSM    H6S12146   0.937   3.548  10.337  0.3477  0.3617 -0.2689
  116OSM    H6T12147   0.806   3.609  10.427  1.4381 -0.0301  1.5830
  116OSM    C7S12148   0.773   3.403  10.343 -0.2095  0.1790 -0.3611
  116OSM    H7S12149   0.705   3.349  10.412 -0.0974 -1.6081 -1.6217
  116OSM    H7T12150   0.837   3.327  10.294  1.3451  0.3060  1.4035
  116OSM    C8S12151   0.698   3.467  10.224 -1.0021  0.4292  0.3745
  116OSM    H8S12152   0.647   3.559  10.260 -0.9598  0.0785  1.3477
  116OSM    H8T12153   0.624   3.390  10.196 -0.9253  0.9422 -1.2899
  116OSM    C9S12154   0.779   3.505  10.105  0.9312 -0.2495  1.0628
  116OSM    H9S12155   0.822   3.407  10.076 -0.9165 -0.6427 -0.4773
  116OSM    H9T12156   0.859   3.576  10.136  1.6270 -0.4050 -0.3660
  116OSM   C10S12157   0.701   3.562   9.989  0.4462  0.3142  0.1564
  116OSM   H10S12158   0.684   3.672   9.993  0.0141  0.2452  0.2479
  116OSM   H10T12159   0.599   3.518   9.983  1.0370 -1.3260  1.6877
  116OSM   C11S12160   0.758   3.521   9.851 -0.1666 -0.5742  0.1950
  116OSM   H11S12161   0.735   3.413   9.838  0.1802 -0.7990  1.4313
  116OSM   H11T12162   0.868   3.515   9.857 -0.1828  0.2778  1.6674
  116OSM   C12S12163   0.719   3.605   9.732 -0.8299  0.3275  0.6659
  116OSM   H12S12164   0.753   3.706   9.765 -3.5820  0.7706  2.3255
  116OSM   H12T12165   0.611   3.628   9.719 -0.1292  3.0378 -0.7887
  116OSM   C13S12166   0.793   3.562   9.597 -0.1212 -0.4285 -0.1148
  116OSM   H13S12167   0.900   3.540   9.620  0.3475  2.5826  0.8302
  116OSM   H13T12168   0.791   3.649   9.527  1.9813 -0.5395 -0.3667
  116OSM   C14S12169   0.731   3.435   9.535 -0.3402  0.4931  0.0120
  116OSM   H14S12170   0.622   3.453   9.531 -0.2397  1.6186  1.6932
  116OSM   H14T12171   0.744   3.354   9.609 -0.7465 -1.9748 -2.5456
  116OSM   C15S12172   0.775   3.398   9.397  0.7216  0.6694  0.3006
  116OSM   H15S12173   0.736   3.297   9.371 -0.3628  0.9375  0.8385
  116OSM   H15T12174   0.886   3.399   9.395  0.7560 -0.7116  0.8178
  116OSM   C16S12175   0.726   3.494   9.282 -0.0956  0.3406  0.4216
  116OSM   H16S12176   0.790   3.582   9.261  0.1895 -0.4146 -1.9576
  116OSM   H16T12177   0.621   3.519   9.308 -0.3736 -3.0150  2.9769
  116OSM   C17S12178   0.721   3.431   9.143  0.2731  0.6465  0.0742
  116OSM   H17S12179   0.640   3.483   9.088 -0.1506 -0.0863  0.0045
  116OSM   H17T12180   0.691   3.324   9.143  1.2512  0.3756 -0.1270
  116OSM   C18S12181   0.852   3.442   9.068  0.0828 -0.2102  0.7636
  116OSM   H18S12182   0.943   3.421   9.128 -0.2609 -0.4223  1.2135
  116OSM   H18T12183   0.866   3.545   9.027 -0.0827 -1.1049 -1.6292
  116OSM   H18U12184   0.845   3.394   8.968 -0.5244  0.0404  0.6811
  116OSM    C1F12185   1.229   3.069  10.492 -0.4125 -0.6102 -0.7356
  116OSM     OF12186   1.175   2.964  10.526  0.1843  0.0293  0.4809
  116OSM    C2F12187   1.343   3.083  10.387  0.0242 -1.1969 -0.2577
  116OSM    H2F12188   1.437   3.062  10.442  0.6938 -1.0724 -1.3415
  116OSM    H2G12189   1.337   3.181  10.335 -0.5290 -0.6747  0.7508
  116OSM    C3F12190   1.339   2.972  10.278 -0.4157 -0.2113  0.5156
  116OSM    H3F12191   1.242   2.966  10.224  0.0293  0.4952 -0.3735
  116OSM    H3G12192   1.367   2.874  10.322 -0.5808 -0.6602 -0.3544
  116OSM    C4F12193   1.447   3.008  10.174 -0.2336  0.2289  0.7065
  116OSM    H4F12194   1.537   2.960  10.217  0.0325  1.1376  1.1941
  116OSM    H4G12195   1.459   3.119  10.177 -0.5578  0.3376 -1.5280
  116OSM    C5F12196   1.441   2.944  10.036  0.8390 -0.4130  0.6405
  116OSM    H5F12197   1.406   2.839  10.045  0.4793 -0.2674  0.9508
  116OSM    H5G12198   1.546   2.938   9.999  0.3478  0.7741 -0.9732
  116OSM    C6F12199   1.354   3.003   9.926 -0.0001  0.2119  0.3969
  116OSM    H6F12200   1.391   3.101   9.889 -1.4149  0.8393  0.5811
  116OSM    H6G12201   1.254   2.997   9.975  1.1449 -2.4444  2.5752
  116OSM    C7F12202   1.338   2.914   9.799  0.2959 -0.4730 -0.9509
  116OSM    H7F12203   1.231   2.914   9.768  0.2503 -0.0629 -0.7893
  116OSM    H7G12204   1.386   2.815   9.815 -0.1513 -0.6021 -0.3723
  116OSM    C8F12205   1.421   2.975   9.676 -0.1573 -0.0779  0.6880
  116OSM    H8F12206   1.527   2.958   9.702 -0.1227  0.0968  0.6613
  116OSM    H8G12207   1.395   3.082   9.658 -0.5342 -0.2141  0.4127
  116OSM    C9F12208   1.395   2.880   9.559 -0.6448 -0.4574 -0.3512
  116OSM    H9F12209   1.316   2.805   9.574 -0.3612 -1.0311 -1.6312
  116OSM   C10F12210   1.469   2.853   9.453  0.4326  0.1051  0.0463
  116OSM   H10F12211   1.430   2.778   9.383  1.5672  0.4787 -0.9839
  116OSM   C11F12212   1.596   2.926   9.413 -0.4746 -1.0202 -0.8045
  116OSM   H11F12213   1.688   2.864   9.405 -0.6247 -1.1182 -1.7413
  116OSM   H11G12214   1.620   2.994   9.499  1.6469  0.0451 -2.1865
  116OSM   C12F12215   1.591   2.995   9.277  0.3508  0.3058 -0.1452
  116OSM   H12F12216   1.643   3.093   9.281 -2.1533  1.6261  0.8092
  116OSM   H12G12217   1.486   3.016   9.246  0.2580 -0.8920 -0.6687
  116OSM   C13F12218   1.645   2.907   9.168  0.0460  0.8636 -0.9383
  116OSM   H13F12219   1.581   2.816   9.170 -0.6351  1.3325 -1.1930
  116OSM   H13G12220   1.750   2.880   9.191  0.5357  1.8690 -1.9413
  116OSM   C14F12221   1.638   2.953   9.022 -0.1141  0.5378 -0.4727
  116OSM   H14F12222   1.687   3.051   9.004  2.3948 -0.5841  0.1939
  116OSM   H14G12223   1.530   2.978   9.006 -0.3393 -0.7586 -1.0968
  116OSM   C15F12224   1.686   2.845   8.920 -0.2126  0.1028  0.7039
  116OSM   H15F12225   1.689   2.884   8.816  0.9263  0.5938  0.9127
  116OSM   H15G12226   1.611   2.763   8.923 -0.8709  0.6543 -0.5991
  116OSM   C16F12227   1.831   2.793   8.953  0.5998 -0.7637  0.3797
  116OSM   H16F12228   1.820   2.733   9.046 -1.1454  0.4376  0.9705
  116OSM   H16G12229   1.909   2.870   8.967 -1.1789  1.1288  0.1371
  116OSM   C17F12230   1.881   2.700   8.843  0.3421  0.4522  0.4470
  116OSM   H17F12231   1.901   2.771   8.759  0.8876  0.6569  0.7506
  116OSM   H17G12232   1.805   2.631   8.800 -1.6354  2.3335  0.7806
  116OSM   C18F12233   2.015   2.619   8.869  0.9154  0.0231  0.2704
  116OSM   H18F12234   2.046   2.587   8.767  1.8974 -0.2805  0.6592
  116OSM   H18G12235   2.012   2.526   8.930 -0.8069  0.6005  1.0843
  116OSM   H18H12236   2.082   2.698   8.910 -1.8830  2.2533  0.6921
  117OSM      N12237   5.743   3.369  11.019 -0.5565 -0.2368  0.7097
  117OSM    C1512238   5.658   3.264  11.081  0.0296  0.3788 -0.2795
  117OSM   H15A12239   5.601   3.294  11.168 -2.1580 -0.9222 -1.2215
  117OSM   H15B12240   5.724   3.182  11.105 -1.4864 -0.3877  1.4249
  117OSM   H15C12241   5.581   3.229  11.014 -1.5062  0.4011  1.4138
  117OSM    C1412242   5.836   3.431  11.120  0.1549  0.0352  0.0181
  117OSM   H14A12243   5.903   3.372  11.181  0.4121  1.3101  0.9840
  117OSM   H14B12244   5.780   3.487  11.194 -0.6883 -0.3402 -0.3303
  117OSM   H14C12245   5.881   3.515  11.069 -2.0006  2.3529  1.8313
  117OSM    C1312246   5.820   3.319  10.900  0.8756 -0.0754  0.3140
  117OSM   H13A12247   5.749   3.280  10.828 -0.0499  2.9245 -0.4464
  117OSM   H13B12248   5.881   3.233  10.925  0.4154 -0.2887  0.7137
  117OSM   H13C12249   5.882   3.396  10.856  0.0620  0.0441 -0.6447
  117OSM    C1212250   5.638   3.476  10.970 -0.1884  0.3195  0.2526
  117OSM   H12A12251   5.593   3.509  11.063  2.2178  0.2192  1.5150
  117OSM   H12B12252   5.562   3.423  10.915 -0.1208 -1.0568  1.4360
  117OSM    C1112253   5.679   3.597  10.882  0.3222  0.6940  0.1732
  117OSM   H11A12254   5.583   3.648  10.858 -0.3526  0.4862  2.2706
  117OSM   H11B12255   5.710   3.565  10.781 -0.9017  0.1698 -0.0419
  117OSM      P12256   5.712   3.794  11.035 -0.1251  0.2473 -0.3250
  117OSM    O1312257   5.569   3.771  11.076 -0.6130  0.6557  0.1124
  117OSM    O1412258   5.804   3.821  11.147  0.1148  0.2768 -0.1787
  117OSM    O1112259   5.709   3.914  10.933 -0.5584  0.4567 -0.0270
  117OSM    O1212260   5.776   3.678  10.949 -0.1501 -0.1273  0.2926
  117OSM    C1S12261   5.821   3.963  10.861  0.0282 -0.1168  0.1861
  117OSM    H1S12262   5.916   3.908  10.874 -0.9976 -1.7306  1.0256
  117OSM    H1T12263   5.853   4.063  10.896  1.3812 -1.5665  3.2590
  117OSM     NF12264   5.916   4.034  10.636 -0.0974 -0.1587 -0.6919
  117OSM    HNF12265   5.913   4.129  10.605 -0.0634  0.1999  0.3729
  117OSM    C2S12266   5.797   3.978  10.705  0.8294 -0.0072 -0.2881
  117OSM    H2S12267   5.782   3.872  10.677 -0.5707  0.1809 -0.2810
  117OSM    C3S12268   5.656   4.054  10.667  0.1061  0.6115 -0.2695
  117OSM    H3S12269   5.674   4.163  10.678 -0.5110  0.9689 -2.5417
  117OSM     O312270   5.550   4.037  10.763 -0.6428  0.1931 -0.0187
  117OSM    HO312271   5.600   3.995  10.833  1.5215  1.0526 -1.0046
  117OSM    C4S12272   5.610   4.012  10.531 -0.0964 -0.0628 -0.3795
  117OSM    H4S12273   5.606   3.904  10.511  0.3903 -0.4099  1.3467
  117OSM    C5S12274   5.574   4.101  10.434 -0.8398  0.9508 -0.4666
  117OSM    H5S12275   5.587   4.209  10.454 -0.7617  0.7532  0.5892
  117OSM    C6S12276   5.544   4.064  10.288 -1.4398  0.3700  0.2364
  117OSM    H6S12277   5.442   4.095  10.256 -0.1470  2.8126 -1.6562
  117OSM    H6T12278   5.547   3.954  10.273  2.7755 -0.1379  3.8596
  117OSM    C7S12279   5.642   4.126  10.178  0.2047 -0.7358 -0.6459
  117OSM    H7S12280   5.748   4.095  10.189  0.1403 -0.2973  1.3304
  117OSM    H7T12281   5.643   4.237  10.173 -0.8660 -0.6558  0.5426
  117OSM    C8S12282   5.594   4.079  10.038  0.0771 -0.0720  0.5480
  117OSM    H8S12283   5.486   4.106  10.029  0.2239  0.4703  0.3636
  117OSM    H8T12284   5.591   3.968  10.041  0.1593 -0.0830  0.2601
  117OSM    C9S12285   5.693   4.125   9.928  0.1573  0.2590 -0.3423
  117OSM    H9S12286   5.784   4.066   9.953 -0.8107 -1.3927 -0.6337
  117OSM    H9T12287   5.715   4.232   9.948  0.8138  0.0117  0.2872
  117OSM   C10S12288   5.637   4.082   9.786 -0.7728  0.5989 -0.8213
  117OSM   H10S12289   5.532   4.118   9.777 -0.4078  1.4961 -1.5872
  117OSM   H10T12290   5.632   3.971   9.779  1.0214  0.3994  0.6288
  117OSM   C11S12291   5.716   4.130   9.663  0.1026 -0.1647  0.4553
  117OSM   H11S12292   5.816   4.082   9.654  0.5779  0.6049  1.5578
  117OSM   H11T12293   5.725   4.240   9.654 -1.5226 -0.0804 -0.4751
  117OSM   C12S12294   5.641   4.076   9.544  0.7495 -0.1674  0.6559
  117OSM   H12S12295   5.540   4.118   9.525  1.6460  1.3990 -0.8204
  117OSM   H12T12296   5.614   3.968   9.545 -0.4520  0.1018 -0.5666
  117OSM   C13S12297   5.706   4.099   9.402  0.8035  0.3385 -0.4511
  117OSM   H13S12298   5.811   4.063   9.403  0.4690 -0.6581 -1.0347
  117OSM   H13T12299   5.717   4.209   9.389  2.1547  0.2979  0.2763
  117OSM   C14S12300   5.632   4.049   9.277  0.1973  0.4275 -0.7493
  117OSM   H14S12301   5.527   4.075   9.301  0.4377 -0.8263  1.8599
  117OSM   H14T12302   5.644   3.939   9.265 -0.5562  0.3227 -0.5679
  117OSM   C15S12303   5.668   4.112   9.143 -0.3184  0.6822 -0.7572
  117OSM   H15S12304   5.681   4.221   9.163 -0.7802  0.1113  3.1175
  117OSM   H15T12305   5.585   4.093   9.072  0.3450  0.8163 -1.5758
  117OSM   C16S12306   5.801   4.049   9.094 -0.4445  0.3990 -0.4052
  117OSM   H16S12307   5.791   3.939   9.088 -0.8247  0.4406 -0.5349
  117OSM   H16T12308   5.874   4.071   9.176  0.2493  0.5260 -1.0570
  117OSM   C17S12309   5.855   4.113   8.965  0.3003  1.2304  0.3496
  117OSM   H17S12310   5.871   4.221   8.981 -0.9152  1.4307  0.2737
  117OSM   H17T12311   5.788   4.110   8.876  0.9725  0.6589 -0.1460
  117OSM   C18S12312   5.982   4.043   8.925 -0.4162 -0.3965  0.5228
  117OSM   H18S12313   5.970   3.959   8.853 -2.0978 -0.9418  1.4357
  117OSM   H18T12314   6.032   3.997   9.013 -0.9156  1.0104  1.5634
  117OSM   H18U12315   6.058   4.106   8.872  1.3715 -1.4570  1.7668
  117OSM    C1F12316   6.024   3.954  10.610  0.1983  0.3697  0.4549
  117OSM     OF12317   6.016   3.838  10.655  0.3830 -0.4299 -0.5776
  117OSM    C2F12318   6.143   4.006  10.542 -1.0710  0.4218  0.8531
  117OSM    H2F12319   6.227   3.995  10.613  0.9780  2.1182 -1.2297
  117OSM    H2G12320   6.134   4.113  10.511  0.6277  0.3100 -0.0578
  117OSM    C3F12321   6.171   3.930  10.410 -0.1715  0.4315 -0.0799
  117OSM    H3F12322   6.202   3.830  10.450  0.3872  0.1491 -1.2200
  117OSM    H3G12323   6.252   3.982  10.355 -1.1385  1.5016 -0.5071
  117OSM    C4F12324   6.037   3.921  10.330  1.1406  0.1921 -0.2291
  117OSM    H4F12325   5.986   4.019  10.338  0.1886 -0.3381  0.3397
  117OSM    H4G12326   5.971   3.842  10.371 -0.3619  0.9199 -1.1830
  117OSM    C5F12327   6.061   3.911  10.180  0.5631  0.2071  0.0373
  117OSM    H5F12328   6.121   3.997  10.142  0.1018  0.6303  0.2566
  117OSM    H5G12329   5.967   3.911  10.121 -0.0890 -2.0305  1.0517
  117OSM    C6F12330   6.121   3.784  10.131 -0.1587  0.3772  0.0352
  117OSM    H6F12331   6.063   3.706  10.186 -0.2752  0.4560  0.0252
  117OSM    H6G12332   6.227   3.774  10.159  0.1894 -0.1887 -1.4154
  117OSM    C7F12333   6.120   3.756   9.979  1.1553 -0.5724 -0.4801
  117OSM    H7F12334   6.021   3.718   9.948  0.5800  1.2388 -0.8850
  117OSM    H7G12335   6.191   3.671   9.967  2.1677  0.1509  0.2091
  117OSM    C8F12336   6.178   3.876   9.896  0.0748  0.3680  0.6833
  117OSM    H8F12337   6.250   3.937   9.954  3.2189 -1.4460 -1.1181
  117OSM    H8G12338   6.091   3.938   9.865 -0.0761  0.1052  0.5812
  117OSM    C9F12339   6.260   3.815   9.780 -0.4150 -0.0916  1.1014
  117OSM    H9F12340   6.339   3.745   9.810  0.3466  0.5506  0.6108
  117OSM   C10F12341   6.237   3.824   9.646  0.3734  0.4191  0.0186
  117OSM   H10F12342   6.298   3.774   9.569  0.7772 -0.6730  1.0331
  117OSM   C11F12343   6.107   3.887   9.593 -0.5680  0.2841  0.4934
  117OSM   H11F12344   6.129   3.987   9.551 -0.9887  0.1570 -0.0327
  117OSM   H11G12345   6.036   3.899   9.677  1.2552  0.7983  1.9764
  117OSM   C12F12346   6.036   3.792   9.493 -0.5664  0.3881 -0.6477
  117OSM   H12F12347   5.930   3.821   9.475 -0.5186  0.8547 -0.1576
  117OSM   H12G12348   6.038   3.693   9.543  3.2515  0.6777 -0.0722
  117OSM   C13F12349   6.111   3.785   9.361  0.0877  0.2656 -0.4076
  117OSM   H13F12350   6.214   3.745   9.373  0.0445  0.9505  2.8128
  117OSM   H13G12351   6.116   3.893   9.336  2.7846  0.4990  0.9340
  117OSM   C14F12352   6.030   3.710   9.254  0.5672  0.1399 -0.3623
  117OSM   H14F12353   5.934   3.766   9.249  0.7376  0.9437  3.4845
  117OSM   H14G12354   6.002   3.609   9.289  2.3734  0.1420  1.2023
  117OSM   C15F12355   6.095   3.702   9.114 -0.4310 -0.3269  0.3670
  117OSM   H15F12356   6.172   3.622   9.112  0.2542  0.3291 -4.1259
  117OSM   H15G12357   6.141   3.801   9.094  1.1986 -0.8013  1.6364
  117OSM   C16F12358   5.985   3.676   9.006  0.0557  0.6228 -0.4232
  117OSM   H16F12359   6.043   3.684   8.911  0.5289  0.9694 -0.1085
  117OSM   H16G12360   5.898   3.745   9.007 -1.5219 -1.3201  2.8817
  117OSM   C17F12361   5.940   3.523   9.008  0.5596 -1.0207  0.5781
  117OSM   H17F12362   5.850   3.524   8.943  0.6641 -0.3171  0.4372
  117OSM   H17G12363   5.899   3.507   9.110  1.0139  0.6950  1.0436
  117OSM   C18F12364   6.046   3.426   8.960 -0.5138 -0.4877  0.1695
  117OSM   H18F12365   5.998   3.327   8.944 -0.9544  0.0834 -2.2879
  117OSM   H18G12366   6.126   3.414   9.036 -2.2193  0.8152  2.2371
  117OSM   H18H12367   6.094   3.457   8.865  0.4691  1.3016  1.2307
  118OSM      N12368   6.325   4.617  10.957  0.0750  0.0732  0.1965
  118OSM    C1512369   6.368   4.483  10.995  0.1165  0.0456  0.1172
  118OSM   H15A12370   6.414   4.474  11.093 -1.6715 -0.7599  0.8971
  118OSM   H15B12371   6.452   4.462  10.930  1.5528  0.5950  1.7400
  118OSM   H15C12372   6.289   4.410  10.989 -1.6198  1.9858 -1.0530
  118OSM    C1412373   6.440   4.705  10.935 -0.1465 -0.0212 -0.4728
  118OSM   H14A12374   6.400   4.804  10.948 -1.6488 -0.8636  1.7614
  118OSM   H14B12375   6.478   4.699  10.835 -2.2585 -0.7174 -1.2772
  118OSM   H14C12376   6.517   4.679  11.006  1.1744 -1.1071 -2.2428
  118OSM    C1312377   6.252   4.608  10.827 -0.7771  0.0865  0.0008
  118OSM   H13A12378   6.161   4.550  10.833  0.1077 -1.5443 -2.1953
  118OSM   H13B12379   6.327   4.572  10.759 -1.0098 -0.5784  0.0911
  118OSM   H13C12380   6.225   4.710  10.800  1.1487  0.9102  1.0775
  118OSM    C1212381   6.230   4.668  11.066  0.1732 -0.7003  0.0651
  118OSM   H12A12382   6.283   4.675  11.160 -0.7518  0.9909  0.4856
  118OSM   H12B12383   6.155   4.592  11.079 -0.7629  0.0552 -0.8785
  118OSM    C1112384   6.152   4.804  11.048  0.6334  0.1383  0.4099
  118OSM   H11A12385   6.088   4.802  11.138  0.4742  0.4249  0.3052
  118OSM   H11B12386   6.090   4.803  10.956  1.1040  1.6983  0.0591
  118OSM      P12387   6.203   5.061  11.037  0.1343  0.1365  0.4644
  118OSM    O1312388   6.102   5.101  11.142  0.3450  0.3381  0.1661
  118OSM    O1412389   6.336   5.127  11.047  0.3431 -0.1303  0.2618
  118OSM    O1112390   6.142   5.084  10.890  0.6044  0.0185 -0.3053
  118OSM    O1212391   6.241   4.910  11.044  0.0515  0.0986 -0.5997
  118OSM    C1S12392   6.224   5.079  10.776  0.1323  0.0019  1.0636
  118OSM    H1S12393   6.259   4.975  10.758 -1.6945 -0.1585 -2.0126
  118OSM    H1T12394   6.310   5.148  10.792  1.2892 -0.7886 -1.4730
  118OSM     NF12395   6.243   5.121  10.534 -0.2843 -0.3377  0.3008
  118OSM    HNF12396   6.282   5.204  10.495 -0.3272 -0.2622  0.4171
  118OSM    C2S12397   6.152   5.129  10.646 -0.1926 -0.0355 -0.5421
  118OSM    H2S12398   6.073   5.052  10.632 -0.3571  0.2516 -1.1963
  118OSM    C3S12399   6.080   5.264  10.674 -0.4241  0.4501  0.5883
  118OSM    H3S12400   6.155   5.343  10.697  2.4225 -2.1803  0.5685
  118OSM     O312401   5.987   5.264  10.787  0.0413 -0.2203 -0.0452
  118OSM    HO312402   6.024   5.195  10.842  0.9874 -0.3936 -0.8763
  118OSM    C4S12403   6.009   5.298  10.547  1.1602  0.0658  0.3730
  118OSM    H4S12404   5.925   5.232  10.519  1.9141 -1.2124  1.0717
  118OSM    C5S12405   6.049   5.404  10.471  0.0365 -0.1753  0.3562
  118OSM    H5S12406   6.138   5.465  10.493  1.5393 -2.4227  0.7279
  118OSM    C6S12407   5.986   5.442  10.342  0.2986  0.0628  0.5625
  118OSM    H6S12408   5.952   5.548  10.343  2.9337  0.9837 -1.5762
  118OSM    H6T12409   5.894   5.379  10.335  0.6552 -0.5161  1.1202
  118OSM    C7S12410   6.070   5.424  10.220  0.0967 -0.4500  0.0744
  118OSM    H7S12411   6.106   5.320  10.208 -1.8449 -1.1028 -0.2279
  118OSM    H7T12412   6.153   5.497  10.229 -0.2562 -0.2139  1.6799
  118OSM    C8S12413   6.003   5.471  10.092  0.2731 -0.1255  0.0442
  118OSM    H8S12414   5.983   5.580  10.094 -2.2434 -0.5099 -1.2695
  118OSM    H8T12415   5.913   5.411  10.066  1.6320 -1.4483 -1.7390
  118OSM    C9S12416   6.114   5.466   9.980  0.0844  0.6546 -0.0416
  118OSM    H9S12417   6.131   5.359   9.956  4.3478  1.2514 -0.0192
  118OSM    H9T12418   6.205   5.516  10.019 -0.1025  1.2520 -0.3595
  118OSM   C10S12419   6.058   5.520   9.850 -0.2035  0.7257 -0.3005
  118OSM   H10S12420   6.134   5.569   9.785 -1.5712  1.8331 -1.0808
  118OSM   H10T12421   5.982   5.598   9.866 -2.0867 -1.2358  0.5367
  118OSM   C11S12422   5.980   5.414   9.769  0.1392 -0.8548  0.0863
  118OSM   H11S12423   5.894   5.375   9.827  2.7267 -1.1794  3.9722
  118OSM   H11T12424   6.052   5.333   9.742 -0.2940 -1.3816  0.5007
  118OSM   C12S12425   5.925   5.476   9.642 -0.8099  0.1564 -0.5257
  118OSM   H12S12426   5.995   5.545   9.591  0.2798  0.5227  1.4082
  118OSM   H12T12427   5.840   5.545   9.661  0.2114  1.3029 -0.0517
  118OSM   C13S12428   5.868   5.373   9.549  0.5407  0.8952 -0.3575
  118OSM   H13S12429   5.774   5.323   9.580 -0.7081  2.2409 -1.8902
  118OSM   H13T12430   5.940   5.289   9.540  0.9524  1.0118  1.7303
  118OSM   C14S12431   5.838   5.424   9.412 -0.7801 -0.1828 -0.8842
  118OSM   H14S12432   5.918   5.483   9.362 -0.5316  1.1320  1.0267
  118OSM   H14T12433   5.751   5.490   9.432  0.5461  1.3683 -0.1088
  118OSM   C15S12434   5.800   5.305   9.322  0.9882  0.2072  0.3151
  118OSM   H15S12435   5.708   5.259   9.363  1.1792  0.1680  0.6922
  118OSM   H15T12436   5.877   5.224   9.321  0.8263  0.0425 -1.5839
  118OSM   C16S12437   5.785   5.356   9.180  0.7907 -0.2453 -0.0767
  118OSM   H16S12438   5.886   5.394   9.154  0.4656 -0.4062 -1.5861
  118OSM   H16T12439   5.714   5.441   9.191  0.2217 -0.4098 -2.2828
  118OSM   C17S12440   5.724   5.258   9.083  0.2584  0.4451 -0.2336
  118OSM   H17S12441   5.628   5.217   9.120  0.5983 -2.3765 -2.2922
  118OSM   H17T12442   5.783   5.164   9.087 -1.6043 -0.6768  1.0680
  118OSM   C18S12443   5.711   5.289   8.930 -0.0881 -0.2842 -0.0548
  118OSM   H18S12444   5.677   5.394   8.914 -0.3116 -0.3478 -0.0012
  118OSM   H18T12445   5.651   5.213   8.876 -0.6548 -0.3621  0.6676
  118OSM   H18U12446   5.814   5.282   8.888  0.5939  0.8524  1.3525
  118OSM    C1F12447   6.306   5.016  10.497  0.2017  0.3156  0.6713
  118OSM     OF12448   6.284   4.907  10.545 -0.5516  0.5105  0.4152
  118OSM    C2F12449   6.426   5.043  10.399  0.2707 -0.1933 -0.3012
  118OSM    H2F12450   6.504   4.973  10.434  1.1418  0.2493 -1.3096
  118OSM    H2G12451   6.463   5.148  10.405 -2.1797  0.5298  5.6608
  118OSM    C3F12452   6.388   5.013  10.254 -0.3855 -0.1984 -0.7532
  118OSM    H3F12453   6.361   4.905  10.251  0.3406 -0.3878 -0.4898
  118OSM    H3G12454   6.483   5.023  10.197 -0.8513 -0.3902 -1.5763
  118OSM    C4F12455   6.273   5.100  10.193 -0.4875  0.5757 -0.2986
  118OSM    H4F12456   6.305   5.204  10.169  1.2804  1.1041  3.9367
  118OSM    H4G12457   6.184   5.112  10.259  0.3822  1.5061  0.7372
  118OSM    C5F12458   6.212   5.028  10.075 -0.0203 -0.1889  0.3310
  118OSM    H5F12459   6.111   5.067  10.048  1.0820  3.7544  1.5297
  118OSM    H5G12460   6.203   4.921  10.104 -2.0983 -0.3532 -0.8784
  118OSM    C6F12461   6.302   5.041   9.946  0.8635 -0.2127 -0.0844
  118OSM    H6F12462   6.405   5.008   9.971  0.7884 -0.3291  0.0613
  118OSM    H6G12463   6.305   5.150   9.923  0.8236  0.4448  2.8942
  118OSM    C7F12464   6.257   4.960   9.829 -0.0651  0.4492 -0.0751
  118OSM    H7F12465   6.149   4.982   9.811 -0.1238  1.9442  1.9060
  118OSM    H7G12466   6.265   4.855   9.864 -2.8083 -0.2423 -1.3621
  118OSM    C8F12467   6.336   4.986   9.697  0.7177  0.4258  0.3655
  118OSM    H8F12468   6.443   4.957   9.707  0.8331  0.0894 -1.6126
  118OSM    H8G12469   6.326   5.096   9.689 -1.6862  0.3191  1.5870
  118OSM    C9F12470   6.272   4.924   9.575  0.4808 -0.4526 -0.3830
  118OSM    H9F12471   6.287   4.815   9.571 -2.3581 -1.0027  2.5020
  118OSM   C10F12472   6.197   4.984   9.477 -0.3686  0.7506  0.1355
  118OSM   H10F12473   6.167   4.924   9.390  0.2658  1.8702 -0.8679
  118OSM   C11F12474   6.159   5.127   9.488 -0.0659 -0.1348  0.6375
  118OSM   H11F12475   6.140   5.148   9.595  2.2867 -0.5105  1.1420
  118OSM   H11G12476   6.066   5.142   9.429 -0.4069  0.8791  1.4286
  118OSM   C12F12477   6.271   5.212   9.427  0.2265 -0.0350 -0.0056
  118OSM   H12F12478   6.372   5.170   9.450  0.5486  0.1127 -1.1402
  118OSM   H12G12479   6.271   5.312   9.476 -2.3609  0.1986 -0.4517
  118OSM   C13F12480   6.270   5.215   9.272 -0.3242  0.3723 -0.2642
  118OSM   H13F12481   6.240   5.115   9.234  0.1518  0.5178 -1.0144
  118OSM   H13G12482   6.373   5.246   9.244  0.6194 -1.9592  0.4808
  118OSM   C14F12483   6.175   5.330   9.215 -0.5709 -0.2525  0.0821
  118OSM   H14F12484   6.220   5.429   9.237  0.7593 -1.3692  2.6294
  118OSM   H14G12485   6.081   5.326   9.273  0.1265  2.8674  1.5332
  118OSM   C15F12486   6.136   5.324   9.063  0.1936 -0.6513 -0.5991
  118OSM   H15F12487   6.042   5.264   9.062 -0.9263  1.0762 -1.3948
  118OSM   H15G12488   6.212   5.259   9.016  0.7104  0.2618 -1.0308
  118OSM   C16F12489   6.125   5.455   8.982  0.8086 -0.8232  0.6630
  118OSM   H16F12490   6.201   5.521   9.030 -0.6391  0.8323  0.7228
  118OSM   H16G12491   6.024   5.499   8.993  1.5560  0.6619  1.8209
  118OSM   C17F12492   6.150   5.424   8.834 -0.1937  0.8483  0.0484
  118OSM   H17F12493   6.250   5.376   8.837 -1.5388 -2.1318 -0.8594
  118OSM   H17G12494   6.158   5.522   8.782 -0.3879 -0.2680 -2.1378
  118OSM   C18F12495   6.067   5.317   8.761  0.2519  0.2427  0.0212
  118OSM   H18F12496   5.958   5.336   8.771  0.2418  0.1683  0.0529
  118OSM   H18G12497   6.084   5.223   8.817  0.8402 -0.3101 -1.0829
  118OSM   H18H12498   6.087   5.308   8.652 -1.2163  0.0895 -0.2387
  119OSM      N12499   0.192   3.946  11.088 -0.1701  0.7756 -0.0659
  119OSM    C1512500   0.286   3.833  11.082  0.4939 -0.5829 -0.2123
  119OSM   H15A12501   0.264   3.760  11.006 -1.3147  1.0996 -1.3447
  119OSM   H15B12502   0.287   3.774  11.173  1.1294 -0.3339 -0.0521
  119OSM   H15C12503   0.381   3.882  11.072 -0.3659  1.0079 -0.7447
  119OSM    C1412504   0.232   4.052  11.190 -0.3797  0.1481 -0.0112
  119OSM   H14A12505   0.338   4.066  11.177 -0.2492 -2.6728 -2.4683
  119OSM   H14B12506   0.229   4.009  11.289 -1.0164  0.1299 -0.0325
  119OSM   H14C12507   0.180   4.147  11.181  0.1276  0.3775 -0.5028
  119OSM    C1312508   0.183   4.020  10.962 -0.0897  0.2903  1.0411
  119OSM   H13A12509   0.194   3.957  10.875  2.3783  0.9284  0.8581
  119OSM   H13B12510   0.274   4.077  10.954 -0.1742  0.1967 -0.7391
  119OSM   H13C12511   0.091   4.074  10.946  0.7264  1.3230 -0.2696
  119OSM    C1212512   0.052   3.901  11.120 -0.5646  0.2584  0.1279
  119OSM   H12A12513   0.070   3.830  11.200  0.7379 -1.1805 -1.4033
  119OSM   H12B12514   0.021   3.846  11.032 -0.1362  1.0535 -0.5245
  119OSM    C1112515  -0.052   4.015  11.156 -0.0565 -0.4100  0.1349
  119OSM   H11A12516  -0.007   4.076  11.238  1.8225  1.4029 -2.1917
  119OSM   H11B12517  -0.143   3.960  11.189  0.8751 -1.3167  1.2427
  119OSM      P12518  -0.172   4.222  11.059  0.2126  0.2425  0.1413
  119OSM    O1312519  -0.313   4.178  11.053 -0.3600  0.3150 -0.5013
  119OSM    O1412520  -0.128   4.307  11.167 -0.0878 -0.3629 -0.2684
  119OSM    O1112521  -0.143   4.290  10.921 -0.7650  0.1705 -0.2693
  119OSM    O1212522  -0.079   4.098  11.049  0.1759 -0.6183 -0.1738
  119OSM    C1S12523  -0.171   4.216  10.797  0.1076 -0.3003 -0.1961
  119OSM    H1S12524  -0.277   4.225  10.764  0.5685  1.2423 -1.3203
  119OSM    H1T12525  -0.163   4.107  10.816 -5.4663 -0.6513  0.9325
  119OSM     NF12526  -0.118   4.203  10.557 -1.1157 -0.2972 -0.1983
  119OSM    HNF12527  -0.056   4.136  10.517 -0.0123  1.1559 -0.9821
  119OSM    C2S12528  -0.086   4.266  10.679 -0.4033 -0.0537  0.5711
  119OSM    H2S12529  -0.103   4.375  10.674 -0.4473 -0.1299 -1.4408
  119OSM    C3S12530   0.068   4.243  10.697 -0.5536 -0.3183 -0.6284
  119OSM    H3S12531   0.076   4.133  10.708  1.4806  0.0860  2.3987
  119OSM     O312532   0.120   4.296  10.822  0.1070 -0.5716  0.0495
  119OSM    HO312533   0.041   4.330  10.864  0.8577 -2.2975  2.9964
  119OSM    C4S12534   0.150   4.282  10.577 -0.4398 -0.9743  0.0517
  119OSM    H4S12535   0.144   4.207  10.498 -1.4940 -0.7965 -0.0401
  119OSM    C5S12536   0.235   4.390  10.552 -0.2173  0.2032  1.0824
  119OSM    H5S12537   0.258   4.469  10.625  2.2570  0.8786 -0.3568
  119OSM    C6S12538   0.300   4.416  10.415 -0.5822 -0.9294  0.4325
  119OSM    H6S12539   0.408   4.389  10.414 -0.1637  0.7248 -0.7338
  119OSM    H6T12540   0.318   4.525  10.412 -0.1567 -0.9242  2.3519
  119OSM    C7S12541   0.234   4.362  10.288 -0.0965 -0.3699  0.2775
  119OSM    H7S12542   0.126   4.383  10.303 -0.3554 -0.5267 -1.2723
  119OSM    H7T12543   0.256   4.253  10.286 -0.4078 -0.4068 -1.7840
  119OSM    C8S12544   0.273   4.440  10.167 -0.4925  1.0443  0.5305
  119OSM    H8S12545   0.375   4.484  10.166  0.0824 -0.2550 -0.1024
  119OSM    H8T12546   0.209   4.531  10.166  0.3377  1.6317  0.0027
  119OSM    C9S12547   0.257   4.367  10.032  0.0394 -0.3667  0.4856
  119OSM    H9S12548   0.149   4.343  10.022  0.0982  0.1100 -1.6327
  119OSM    H9T12549   0.297   4.264  10.029 -1.0326 -0.7710 -0.6342
  119OSM   C10S12550   0.298   4.455   9.917 -0.4489  0.4625  0.1148
  119OSM   H10S12551   0.409   4.458   9.910 -0.3151 -1.1791  1.3144
  119OSM   H10T12552   0.266   4.559   9.943  1.9996  0.9677  1.2827
  119OSM   C11S12553   0.250   4.406   9.784  0.1422  0.3227  0.2372
  119OSM   H11S12554   0.139   4.396   9.794  0.3126  0.6103  2.6801
  119OSM   H11T12555   0.285   4.301   9.768 -3.0121 -1.2232  2.7745
  119OSM   C12S12556   0.265   4.502   9.668 -0.0542  0.6981  0.1917
  119OSM   H12S12557   0.372   4.514   9.640 -0.2735  0.3866 -0.8257
  119OSM   H12T12558   0.231   4.605   9.694 -2.2780 -0.1762  0.8303
  119OSM   C13S12559   0.175   4.457   9.542 -0.2350  0.2254 -0.6929
  119OSM   H13S12560   0.066   4.473   9.558  0.2894  1.9592  1.4248
  119OSM   H13T12561   0.177   4.346   9.542 -1.7529  0.1795 -0.8161
  119OSM   C14S12562   0.208   4.500   9.400 -0.1601 -0.1363  0.5215
  119OSM   H14S12563   0.317   4.499   9.381 -0.0072 -0.1677  1.3672
  119OSM   H14T12564   0.172   4.604   9.385  1.6751  0.7710  2.1369
  119OSM   C15S12565   0.148   4.403   9.292 -0.4241 -0.5428 -0.2338
  119OSM   H15S12566   0.040   4.396   9.320 -0.4134  2.0254  0.5854
  119OSM   H15T12567   0.192   4.302   9.295  0.9640  0.0706  0.9707
  119OSM   C16S12568   0.151   4.452   9.149 -0.1006 -0.2519 -0.1877
  119OSM   H16S12569   0.253   4.450   9.105  0.0031 -1.2089  0.0906
  119OSM   H16T12570   0.128   4.561   9.153  0.2606 -0.1823  0.0054
  119OSM   C17S12571   0.065   4.377   9.041 -0.4921  0.2793 -0.2588
  119OSM   H17S12572   0.074   4.428   8.943  2.2442 -0.9432 -0.6749
  119OSM   H17T12573  -0.039   4.393   9.077  0.1332 -0.0193  1.7698
  119OSM   C18S12574   0.084   4.232   9.037  0.1627  0.9626 -0.4374
  119OSM   H18S12575  -0.006   4.188   8.989 -0.3531  1.7931 -0.2533
  119OSM   H18T12576   0.095   4.192   9.139  1.8116  2.0660 -0.1547
  119OSM   H18U12577   0.173   4.203   8.977  0.1292 -0.9584  0.4405
  119OSM    C1F12578  -0.235   4.215  10.500  0.6169 -0.2641 -0.0688
  119OSM     OF12579  -0.322   4.279  10.550 -0.1539  0.5586 -0.1276
  119OSM    C2F12580  -0.255   4.153  10.367 -0.1886 -0.1813  0.4905
  119OSM    H2F12581  -0.266   4.043  10.368 -1.3632 -0.0869 -0.4852
  119OSM    H2G12582  -0.164   4.171  10.305 -0.5021  0.7712  0.2974
  119OSM    C3F12583  -0.374   4.220  10.290  0.1947  0.3971  0.2042
  119OSM    H3F12584  -0.367   4.330  10.283 -2.5295  0.4901 -1.7955
  119OSM    H3G12585  -0.471   4.197  10.340  0.6235 -1.1807  0.3544
  119OSM    C4F12586  -0.400   4.167  10.139  0.2894 -0.3558 -0.1265
  119OSM    H4F12587  -0.501   4.203  10.108  0.8185  0.4967 -0.8981
  119OSM    H4G12588  -0.398   4.057  10.125 -0.0584 -0.4345  0.4194
  119OSM    C5F12589  -0.297   4.216  10.034  0.1773 -0.0304  0.0834
  119OSM    H5F12590  -0.205   4.157  10.058  1.3839  2.2329  1.1591
  119OSM    H5G12591  -0.285   4.324  10.056  0.1108  0.4466 -2.1242
  119OSM    C6F12592  -0.331   4.215   9.882 -0.1761 -0.9331 -0.7098
  119OSM    H6F12593  -0.415   4.284   9.859  1.2217  0.9631 -0.2676
  119OSM    H6G12594  -0.363   4.111   9.860  0.6233 -0.9556 -1.8207
  119OSM    C7F12595  -0.204   4.234   9.785  0.7090  0.2120 -0.3474
  119OSM    H7F12596  -0.128   4.158   9.811 -1.0389 -1.4974 -0.0794
  119OSM    H7G12597  -0.154   4.333   9.799 -1.3409  1.0332  1.6534
  119OSM    C8F12598  -0.251   4.222   9.638  0.0859 -0.4992 -1.0332
  119OSM    H8F12599  -0.306   4.312   9.602 -0.8669 -0.6601 -0.0087
  119OSM    H8G12600  -0.314   4.131   9.632 -1.5030  0.5500 -0.5666
  119OSM    C9F12601  -0.128   4.186   9.551  0.1116  0.4589  0.3217
  119OSM    H9F12602  -0.031   4.174   9.599  0.0266  0.2671  0.4477
  119OSM   C10F12603  -0.132   4.184   9.414 -0.2514  0.0990  0.1963
  119OSM   H10F12604  -0.038   4.167   9.358 -0.2766 -0.9851  0.4699
  119OSM   C11F12605  -0.256   4.208   9.331  0.4412 -0.0945 -0.2436
  119OSM   H11F12606  -0.229   4.268   9.242 -0.3992 -2.1949 -1.9634
  119OSM   H11G12607  -0.319   4.271   9.396 -1.7699 -2.1683 -0.3105
  119OSM   C12F12608  -0.338   4.078   9.297  0.6428 -0.0353  0.7481
  119OSM   H12F12609  -0.443   4.102   9.270  0.4162 -1.3288  0.4296
  119OSM   H12G12610  -0.345   4.021   9.392 -0.2247  0.2910  0.8857
  119OSM   C13F12611  -0.277   3.999   9.182  0.1305  0.3961 -0.4137
  119OSM   H13F12612  -0.183   3.949   9.213 -0.6062  0.7377  2.5145
  119OSM   H13G12613  -0.252   4.072   9.102 -0.8163  0.3709 -0.7419
  119OSM   C14F12614  -0.373   3.902   9.122  0.0870  0.0498  0.1421
  119OSM   H14F12615  -0.467   3.961   9.110  0.7472  0.7860 -1.6251
  119OSM   H14G12616  -0.399   3.813   9.182 -1.9829  0.2505 -0.4024
  119OSM   C15F12617  -0.316   3.849   8.986  0.0113 -0.2833 -0.9770
  119OSM   H15F12618  -0.223   3.790   9.001 -0.3560 -1.0768 -1.7512
  119OSM   H15G12619  -0.293   3.935   8.919 -0.5054  0.2297 -0.5016
  119OSM   C16F12620  -0.413   3.755   8.922 -0.2744 -0.3535 -0.3674
  119OSM   H16F12621  -0.492   3.820   8.879 -0.8996  0.4308  1.8593
  119OSM   H16G12622  -0.467   3.690   8.995  0.1000  0.6273  0.7990
  119OSM   C17F12623  -0.357   3.663   8.808 -0.0922 -0.1692 -0.1113
  119OSM   H17F12624  -0.257   3.627   8.841  0.3613  0.6827 -0.5502
  119OSM   H17G12625  -0.335   3.723   8.717 -2.4522 -0.3853 -0.8584
  119OSM   C18F12626  -0.448   3.547   8.788 -0.7070 -0.9051  0.4476
  119OSM   H18F12627  -0.434   3.472   8.869  0.6158 -0.7083  0.4038
  119OSM   H18G12628  -0.423   3.510   8.686  2.0458  1.8126  0.0678
  119OSM   H18H12629  -0.552   3.586   8.793 -0.4803 -0.5335  2.2625
  120OSM      N12630   5.528   1.101  10.956  0.2897 -0.7690 -0.4437
  120OSM    C1512631   5.615   0.977  10.970  0.3707 -0.4684  0.1644
  120OSM   H15A12632   5.558   0.886  10.961  1.0765 -0.8478 -0.6005
  120OSM   H15B12633   5.676   0.983  11.060 -0.8689 -0.7958  1.0335
  120OSM   H15C12634   5.681   0.979  10.885 -0.6325  1.5978 -0.6027
  120OSM    C1412635   5.419   1.075  10.857  0.6223 -0.0745  0.1234
  120OSM   H14A12636   5.457   1.030  10.767  0.5760  3.0903 -1.5277
  120OSM   H14B12637   5.366   1.165  10.831  1.5139  0.9578  1.7707
  120OSM   H14C12638   5.335   1.014  10.888 -0.1274  0.4119 -0.9305
  120OSM    C1312639   5.465   1.145  11.086  0.0709 -0.3879  0.0700
  120OSM   H13A12640   5.429   1.063  11.147 -0.7983 -1.1743 -1.4903
  120OSM   H13B12641   5.377   1.201  11.058  2.6395  2.5706 -2.4068
  120OSM   H13C12642   5.530   1.207  11.147  1.5900  0.3524 -2.2288
  120OSM    C1212643   5.614   1.216  10.911  0.1351 -0.5997 -0.1258
  120OSM   H12A12644   5.700   1.228  10.976  0.7161 -0.5441 -0.9048
  120OSM   H12B12645   5.558   1.306  10.931  1.3213  0.0660  0.2265
  120OSM    C1112646   5.653   1.226  10.759  0.0156  0.0382  0.2768
  120OSM   H11A12647   5.716   1.318  10.755  0.1370  0.0908  2.7041
  120OSM   H11B12648   5.563   1.248  10.697 -1.1482 -1.6402  1.3388
  120OSM      P12649   5.706   1.024  10.595  0.2543  0.4196  0.1227
  120OSM    O1312650   5.764   0.888  10.610  0.3706  0.1396  0.3860
  120OSM    O1412651   5.565   1.029  10.558 -0.2621 -0.0886  0.4080
  120OSM    O1112652   5.796   1.098  10.486 -0.1569 -0.5176 -0.5549
  120OSM    O1212653   5.734   1.112  10.716 -0.2426 -0.7191 -0.3232
  120OSM    C1S12654   5.737   1.222  10.440  0.0112 -0.3354  0.0731
  120OSM    H1S12655   5.772   1.302  10.509 -0.3737 -0.2016  0.1121
  120OSM    H1T12656   5.626   1.219  10.431 -0.0764 -0.8221  1.1467
  120OSM     NF12657   5.761   1.397  10.266 -0.0671 -0.2011  0.6406
  120OSM    HNF12658   5.680   1.420  10.212 -0.0294 -2.8820 -0.6414
  120OSM    C2S12659   5.787   1.257  10.294 -0.4341  0.5207  0.0433
  120OSM    H2S12660   5.897   1.245  10.292 -0.4966  0.0707 -1.1489
  120OSM    C3S12661   5.717   1.156  10.205  0.2836 -0.5090  0.8678
  120OSM    H3S12662   5.607   1.161  10.215  0.1387 -0.3365 -0.7834
  120OSM     O312663   5.754   1.026  10.220  0.0578 -0.3616  0.2128
  120OSM    HO312664   5.764   1.012  10.315  1.1810 -3.2641 -0.2840
  120OSM    C4S12665   5.744   1.205  10.058 -0.5434 -0.6146 -0.0368
  120OSM    H4S12666   5.844   1.179  10.020 -0.0466  0.4812  0.4944
  120OSM    C5S12667   5.658   1.261   9.973  0.6166  0.6426 -0.1771
  120OSM    H5S12668   5.553   1.277  10.003  0.9828 -0.4275  1.8049
  120OSM    C6S12669   5.695   1.302   9.828  0.2563  0.4792 -0.1636
  120OSM    H6S12670   5.776   1.378   9.829  1.9201 -1.2224 -1.2662
  120OSM    H6T12671   5.611   1.349   9.773 -0.0774  1.7105  1.3760
  120OSM    C7S12672   5.750   1.189   9.741  0.4661 -0.3140  0.2720
  120OSM    H7S12673   5.664   1.122   9.716  0.3613 -0.1663  0.2341
  120OSM    H7T12674   5.811   1.123   9.806 -0.8397 -0.4311  1.4003
  120OSM    C8S12675   5.831   1.229   9.622 -0.0570 -1.0065 -0.4060
  120OSM    H8S12676   5.927   1.266   9.663 -0.1407  1.8133 -2.5711
  120OSM    H8T12677   5.780   1.314   9.570 -1.6157  1.1304  4.3603
  120OSM    C9S12678   5.846   1.112   9.526 -0.2947  0.3099  0.0154
  120OSM    H9S12679   5.750   1.057   9.514  0.4323 -1.1628  0.8894
  120OSM    H9T12680   5.918   1.045   9.576 -0.2733  1.9214  2.2209
  120OSM   C10S12681   5.894   1.140   9.390 -0.6594  0.5893 -0.3576
  120OSM   H10S12682   5.983   1.206   9.401  1.1538 -1.5184 -1.8551
  120OSM   H10T12683   5.820   1.195   9.328  0.0671  0.1253 -1.6569
  120OSM   C11S12684   5.951   1.031   9.301  0.1244  0.3170  0.0701
  120OSM   H11S12685   5.863   0.965   9.284 -1.5729  2.7805 -1.0098
  120OSM   H11T12686   6.018   0.958   9.351 -1.7009 -0.3005  1.7206
  120OSM   C12S12687   6.007   1.082   9.171  0.1287  1.0855 -0.4114
  120OSM   H12S12688   6.109   1.118   9.193 -0.8639  1.7487  3.5394
  120OSM   H12T12689   5.946   1.159   9.119 -0.2933  1.3983  0.5228
  120OSM   C13S12690   6.023   0.962   9.076  0.2392  0.2464  0.2888
  120OSM   H13S12691   5.927   0.915   9.047  0.2661  0.2996  0.1122
  120OSM   H13T12692   6.071   0.882   9.137  0.5672  0.0352 -0.2408
  120OSM   C14S12693   6.105   0.987   8.946 -0.3161 -0.1778 -0.3392
  120OSM   H14S12694   6.185   1.062   8.965  0.4699 -1.2747  0.7602
  120OSM   H14T12695   6.035   1.034   8.874  0.5755 -2.8532 -3.0770
  120OSM   C15S12696   6.158   0.853   8.894 -0.1282  0.4512 -0.6831
  120OSM   H15S12697   6.081   0.774   8.896 -0.4394  0.7101 -1.8687
  120OSM   H15T12698   6.237   0.814   8.961 -0.8137 -0.0702 -0.1766
  120OSM   C16S12699   6.221   0.857   8.752 -0.2559  0.5282  0.1786
  120OSM   H16S12700   6.313   0.919   8.764  0.1782 -0.0070 -0.3568
  120OSM   H16T12701   6.143   0.908   8.691  1.1730 -1.4871 -3.5434
  120OSM   C17S12702   6.268   0.723   8.698  0.2916 -0.2031  1.0048
  120OSM   H17S12703   6.302   0.738   8.593 -1.7599 -0.5371  0.2665
  120OSM   H17T12704   6.173   0.666   8.684 -0.5364  1.2107  0.7080
  120OSM   C18S12705   6.370   0.655   8.791 -0.1515 -0.3684  0.3094
  120OSM   H18S12706   6.328   0.650   8.894  0.0049  0.2812  0.4074
  120OSM   H18T12707   6.461   0.719   8.793 -1.0695  0.9576  0.0895
  120OSM   H18U12708   6.399   0.550   8.767  1.1318  0.1550 -0.4403
  120OSM    C1F12709   5.824   1.499  10.328 -0.1539  0.4719 -0.8744
  120OSM     OF12710   5.909   1.481  10.411  0.3010  0.5520 -0.4944
  120OSM    C2F12711   5.782   1.646  10.293  0.0971 -0.3124  0.5969
  120OSM    H2F12712   5.780   1.699  10.390  0.6943  0.7569  0.0355
  120OSM    H2G12713   5.680   1.635  10.249  0.1618 -0.5311  0.5045
  120OSM    C3F12714   5.872   1.711  10.185  0.6494  1.3096  0.2070
  120OSM    H3F12715   5.975   1.723  10.226  0.8864 -0.1587  0.0891
  120OSM    H3G12716   5.831   1.813  10.170 -1.2781  0.7591  1.5578
  120OSM    C4F12717   5.872   1.624  10.059  0.1047 -0.0838 -0.1896
  120OSM    H4F12718   5.774   1.586  10.022  0.6353 -0.2697 -1.4255
  120OSM    H4G12719   5.928   1.530  10.078 -1.4417 -0.3992  3.1476
  120OSM    C5F12720   5.936   1.705   9.945 -0.5601  0.2293  0.3710
  120OSM    H5F12721   6.036   1.723   9.988 -1.9785 -0.9014  4.3167
  120OSM    H5G12722   5.900   1.807   9.919  0.3187  0.7809  1.2762
  120OSM    C6F12723   5.934   1.627   9.813  0.1701 -0.3191 -0.4173
  120OSM    H6F12724   5.829   1.595   9.792 -0.8331  0.6863  2.7532
  120OSM    H6G12725   5.975   1.525   9.829 -1.1549 -0.7328  0.4818
  120OSM    C7F12726   6.002   1.702   9.701 -0.2907  0.3055  0.2354
  120OSM    H7F12727   6.111   1.697   9.718 -0.6269 -1.5334  1.9887
  120OSM    H7G12728   5.978   1.811   9.706  0.9117  0.5485  0.8040
  120OSM    C8F12729   5.964   1.645   9.563  0.4648 -0.0961 -0.5854
  120OSM    H8F12730   5.996   1.722   9.489  1.8250  0.6550  0.7594
  120OSM    H8G12731   5.854   1.632   9.550  0.0598  0.5083  2.0778
  120OSM    C9F12732   6.036   1.521   9.547 -0.4425  0.0634 -0.5648
  120OSM    H9F12733   6.069   1.466   9.636  0.7845  1.5174 -0.1103
  120OSM   C10F12734   6.071   1.474   9.426  0.3044 -0.6426 -0.3157
  120OSM   H10F12735   6.134   1.384   9.427  0.4973 -0.5537 -2.5909
  120OSM   C11F12736   6.039   1.542   9.291  0.7512  0.4748 -0.2314
  120OSM   H11F12737   6.088   1.642   9.294  0.4058  0.6404 -0.1104
  120OSM   H11G12738   5.930   1.559   9.294  0.3730 -2.1665  1.8032
  120OSM   C12F12739   6.074   1.452   9.171 -0.2937 -0.0101  0.0635
  120OSM   H12F12740   6.022   1.488   9.080 -0.2464 -0.9628 -0.3422
  120OSM   H12G12741   6.042   1.351   9.203  0.0286 -0.0154  0.3738
  120OSM   C13F12742   6.226   1.453   9.142 -0.2777  0.8589  0.5547
  120OSM   H13F12743   6.282   1.414   9.229  0.9330  1.6609  0.1507
  120OSM   H13G12744   6.260   1.558   9.129  0.8920  0.4910  0.5732
  120OSM   C14F12745   6.256   1.397   9.001  0.4714  0.3598  0.4048
  120OSM   H14F12746   6.185   1.445   8.930  0.5713  1.5475  1.0996
  120OSM   H14G12747   6.242   1.287   8.988 -2.3323  0.7838 -0.5535
  120OSM   C15F12748   6.395   1.438   8.949 -0.4111 -0.2050  0.1461
  120OSM   H15F12749   6.464   1.372   9.006  0.2623  0.3058 -0.0707
  120OSM   H15G12750   6.425   1.541   8.978  0.8765 -0.1148 -1.4904
  120OSM   C16F12751   6.420   1.428   8.794  0.6626 -0.2693 -0.4107
  120OSM   H16F12752   6.527   1.457   8.784  0.1252  1.6208 -0.9639
  120OSM   H16G12753   6.353   1.504   8.747  1.7902  0.2354 -1.2454
  120OSM   C17F12754   6.383   1.297   8.725 -0.4322  0.5484 -0.2592
  120OSM   H17F12755   6.272   1.288   8.726 -0.3234 -0.9902  0.0280
  120OSM   H17G12756   6.425   1.213   8.785 -2.0563  0.5704  0.9503
  120OSM   C18F12757   6.424   1.284   8.581 -0.5413  0.5238 -0.1727
  120OSM   H18F12758   6.446   1.379   8.527 -2.8667  0.7372 -0.7901
  120OSM   H18G12759   6.337   1.239   8.528  0.6848  0.7649 -2.4722
  120OSM   H18H12760   6.514   1.218   8.574  0.1792  1.2601  1.8518
  121OSM      N12761   4.725   4.001  11.101 -0.4503 -0.2598 -0.6403
  121OSM    C1512762   4.671   3.901  11.004  0.0876  0.8398  0.1675
  121OSM   H15A12763   4.754   3.836  10.979 -0.4933  0.1444  0.0462
  121OSM   H15B12764   4.636   3.951  10.915  1.2435  0.5360 -0.4664
  121OSM   H15C12765   4.592   3.840  11.046  0.7076 -0.8431 -1.0388
  121OSM    C1412766   4.822   4.098  11.034 -0.0263 -0.1970  0.0945
  121OSM   H14A12767   4.795   4.118  10.931  1.8551 -1.7252 -0.7212
  121OSM   H14B12768   4.920   4.056  11.044 -1.1005 -2.2842  2.3923
  121OSM   H14C12769   4.846   4.188  11.088  0.4594  0.3423 -0.9973
  121OSM    C1312770   4.605   4.087  11.160  0.0429  0.0635  0.1112
  121OSM   H13A12771   4.652   4.162  11.222 -1.1716 -0.4914  1.7326
  121OSM   H13B12772   4.538   4.025  11.219 -1.3112 -1.3413 -2.7797
  121OSM   H13C12773   4.555   4.128  11.074  1.0186  0.3098 -0.3412
  121OSM    C1212774   4.788   3.942  11.223 -0.5905 -0.1370 -0.4064
  121OSM   H12A12775   4.707   3.911  11.287 -0.7343 -0.4714 -0.7475
  121OSM   H12B12776   4.844   4.009  11.286 -0.6730 -1.0081  0.6186
  121OSM    C1112777   4.892   3.826  11.207 -0.4504 -0.0665  0.1377
  121OSM   H11A12778   4.824   3.755  11.155 -1.8470 -0.1461  2.0115
  121OSM   H11B12779   4.923   3.788  11.307 -0.9320  1.3053  0.8339
  121OSM      P12780   5.121   3.942  11.211  0.1094  0.1270  0.2345
  121OSM    O1312781   5.057   4.023  11.321  0.0489 -0.1538  0.5240
  121OSM    O1412782   5.229   3.853  11.258  0.1280 -0.2017  0.2655
  121OSM    O1112783   5.179   4.048  11.108 -0.2125  0.1408 -0.2487
  121OSM    O1212784   5.007   3.862  11.129 -0.7377  0.4507  0.2294
  121OSM    C1S12785   5.224   4.007  10.979 -0.1842  0.2211  0.1357
  121OSM    H1S12786   5.173   3.922  10.930 -2.0031  0.7950  0.9754
  121OSM    H1T12787   5.328   3.969  10.994 -0.4766 -0.5987  0.1270
  121OSM     NF12788   5.272   4.060  10.745  0.3428 -0.3020 -0.1560
  121OSM    HNF12789   5.371   4.057  10.732  0.4751 -0.5071  0.8419
  121OSM    C2S12790   5.233   4.121  10.869 -0.1857 -0.4169 -0.2838
  121OSM    H2S12791   5.125   4.142  10.861 -0.5310 -1.1646  2.0985
  121OSM    C3S12792   5.321   4.244  10.920 -0.4719 -0.6508  0.4409
  121OSM    H3S12793   5.428   4.214  10.932 -0.5698 -1.1586  0.0931
  121OSM     O312794   5.287   4.296  11.047 -0.5782  0.1411 -0.0532
  121OSM    HO312795   5.236   4.224  11.086 -0.2263 -0.5320 -0.8282
  121OSM    C4S12796   5.316   4.354  10.814  0.2083  0.3769  0.3211
  121OSM    H4S12797   5.218   4.394  10.784  1.1884  0.3871 -3.1480
  121OSM    C5S12798   5.419   4.403  10.748 -0.1726 -0.5181  0.6758
  121OSM    H5S12799   5.516   4.356  10.772 -0.3957 -1.0563  0.5471
  121OSM    C6S12800   5.418   4.515  10.638 -0.8937  0.5270  0.2225
  121OSM    H6S12801   5.491   4.592  10.672  2.0439 -2.5767  1.1709
  121OSM    H6T12802   5.317   4.561  10.636 -0.4929  1.4330  0.3284
  121OSM    C7S12803   5.462   4.453  10.508  0.8238  0.4016  0.2436
  121OSM    H7S12804   5.380   4.395  10.459  1.1147  2.7622 -3.2704
  121OSM    H7T12805   5.554   4.392  10.519  1.2504  0.7182 -1.3781
  121OSM    C8S12806   5.487   4.562  10.398  0.4059  0.1796 -0.6852
  121OSM    H8S12807   5.575   4.619  10.435  0.7550 -1.5242  1.1698
  121OSM    H8T12808   5.394   4.623  10.389 -0.9916 -1.5835  1.4021
  121OSM    C9S12809   5.509   4.492  10.265 -0.0179 -0.2326 -0.1806
  121OSM    H9S12810   5.417   4.433  10.242 -0.3607 -1.4747  3.9386
  121OSM    H9T12811   5.593   4.419  10.271  2.2931  2.2485 -1.4294
  121OSM   C10S12812   5.526   4.590  10.146  0.8447  0.1076 -0.2238
  121OSM   H10S12813   5.615   4.657  10.153  2.2202 -1.0466 -4.5129
  121OSM   H10T12814   5.432   4.647  10.130  0.5321 -0.8768 -2.0235
  121OSM   C11S12815   5.537   4.506  10.020 -0.6571 -0.0543  0.7731
  121OSM   H11S12816   5.453   4.432  10.019 -2.0694  1.5372 -0.9906
  121OSM   H11T12817   5.629   4.449   9.996 -1.2682  0.3915 -2.7872
  121OSM   C12S12818   5.525   4.593   9.897 -0.1706 -0.5979 -0.1703
  121OSM   H12S12819   5.584   4.687   9.906  1.2045 -1.4355 -0.2396
  121OSM   H12T12820   5.420   4.624   9.881  0.7675  2.2341 -1.1442
  121OSM   C13S12821   5.575   4.505   9.784 -0.2402 -0.3369 -0.4973
  121OSM   H13S12822   5.553   4.396   9.788 -1.2189 -0.2029 -1.7480
  121OSM   H13T12823   5.686   4.512   9.780 -0.2883  2.0497  1.1606
  121OSM   C14S12824   5.509   4.554   9.657 -0.2325 -0.1274 -0.3291
  121OSM   H14S12825   5.543   4.659   9.640  1.5679 -0.4917  0.9144
  121OSM   H14T12826   5.398   4.560   9.667 -0.3065 -0.3912 -0.9408
  121OSM   C15S12827   5.568   4.471   9.539  0.2932 -0.1971 -0.3966
  121OSM   H15S12828   5.526   4.372   9.564 -1.0686  0.5677  0.4581
  121OSM   H15T12829   5.678   4.488   9.542  0.3482 -0.0017 -2.4683
  121OSM   C16S12830   5.525   4.529   9.398  0.1355 -0.4112  0.8558
  121OSM   H16S12831   5.549   4.637   9.391 -2.1145  0.1127  0.7829
  121OSM   H16T12832   5.415   4.518   9.391 -0.0975  2.3874 -0.8571
  121OSM   C17S12833   5.590   4.444   9.287  0.3651  0.0872  0.0145
  121OSM   H17S12834   5.578   4.338   9.316 -0.9127  0.2353  0.0882
  121OSM   H17T12835   5.699   4.462   9.287  0.3930 -0.0789 -0.0284
  121OSM   C18S12836   5.529   4.466   9.145  0.0547  0.0058  0.0067
  121OSM   H18S12837   5.554   4.564   9.099  1.6930 -0.4339 -0.0770
  121OSM   H18T12838   5.419   4.484   9.148  0.1129  0.5126 -0.8697
  121OSM   H18U12839   5.554   4.388   9.070  0.3953  1.6554 -1.6173
  121OSM    C1F12840   5.198   3.979  10.670 -0.4419  0.1271  0.2873
  121OSM     OF12841   5.074   3.980  10.690 -0.3768 -0.4120 -0.5401
  121OSM    C2F12842   5.269   3.889  10.581 -0.5793 -0.2724  1.0359
  121OSM    H2F12843   5.296   3.792  10.629  0.4839 -0.8753 -0.7521
  121OSM    H2G12844   5.357   3.937  10.533 -1.0242 -2.2862 -1.9070
  121OSM    C3F12845   5.180   3.868  10.450 -0.1407 -0.1339 -0.1930
  121OSM    H3F12846   5.139   3.966  10.419 -0.3738 -0.8235 -2.1590
  121OSM    H3G12847   5.093   3.802  10.470 -0.5937  0.7322  0.7481
  121OSM    C4F12848   5.254   3.802  10.325 -0.5177  0.5110 -0.0944
  121OSM    H4F12849   5.311   3.711  10.354 -2.7905 -1.1393 -0.7117
  121OSM    H4G12850   5.319   3.882  10.285 -0.4448  0.0992 -0.8052
  121OSM    C5F12851   5.160   3.765  10.212 -0.1547  0.5789  0.7913
  121OSM    H5F12852   5.084   3.846  10.205 -0.2754  0.2798 -1.9429
  121OSM    H5G12853   5.108   3.671  10.239  3.4981 -0.8947  3.0638
  121OSM    C6F12854   5.218   3.761  10.072  0.2264  0.1692 -0.0934
  121OSM    H6F12855   5.277   3.667  10.067 -1.1283 -0.8201  1.5931
  121OSM    H6G12856   5.289   3.843  10.049  0.9552  0.0860  1.8323
  121OSM    C7F12857   5.112   3.734   9.962  0.2545 -0.2264  0.9234
  121OSM    H7F12858   5.052   3.826   9.945  0.5140  0.0473  1.4617
  121OSM    H7G12859   5.063   3.643  10.002  1.2193 -1.2356 -0.1750
  121OSM    C8F12860   5.180   3.712   9.825  0.4249  0.4330 -0.1074
  121OSM    H8F12861   5.246   3.622   9.830 -0.4954 -0.2196  0.5023
  121OSM    H8G12862   5.247   3.796   9.800  1.4932 -0.2693  0.3598
  121OSM    C9F12863   5.087   3.696   9.713  0.1643  0.6170  0.3586
  121OSM    H9F12864   5.005   3.627   9.740  2.3602 -1.8479  0.9342
  121OSM   C10F12865   5.090   3.754   9.590  0.4300 -0.0495 -0.1431
  121OSM   H10F12866   5.012   3.723   9.519  0.7832 -1.1354 -0.0696
  121OSM   C11F12867   5.193   3.860   9.551  0.3733 -0.5749  0.6589
  121OSM   H11F12868   5.269   3.885   9.628  1.4348  0.2015 -0.6270
  121OSM   H11G12869   5.149   3.962   9.551  1.3331 -0.1506 -0.8531
  121OSM   C12F12870   5.261   3.839   9.415 -0.0466 -0.4655  0.0555
  121OSM   H12F12871   5.313   3.741   9.411 -1.6143 -1.3583  0.9672
  121OSM   H12G12872   5.342   3.914   9.408 -0.8858  0.3885 -0.7628
  121OSM   C13F12873   5.154   3.839   9.300  0.1906 -0.4567 -0.4706
  121OSM   H13F12874   5.120   3.945   9.302 -1.1999 -0.8624 -1.6694
  121OSM   H13G12875   5.072   3.774   9.336 -0.0422 -0.2916 -0.7040
  121OSM   C14F12876   5.197   3.799   9.155  0.8753  0.2246  0.2010
  121OSM   H14F12877   5.125   3.837   9.080  0.2982  1.4646  1.3644
  121OSM   H14G12878   5.195   3.688   9.159  1.7555  0.2104  0.4302
  121OSM   C15F12879   5.338   3.855   9.110  0.7216 -0.2894 -0.1394
  121OSM   H15F12880   5.416   3.809   9.175 -0.7384 -3.0544 -0.2311
  121OSM   H15G12881   5.356   3.963   9.121  0.9923 -0.2447 -0.9394
  121OSM   C16F12882   5.366   3.826   8.963 -0.7092  0.0650 -0.4769
  121OSM   H16F12883   5.295   3.878   8.895 -1.0689 -1.0006 -0.9253
  121OSM   H16G12884   5.349   3.718   8.945  0.7880 -0.3155  0.2744
  121OSM   C17F12885   5.503   3.854   8.910  0.1189 -0.2433  0.3865
  121OSM   H17F12886   5.536   3.959   8.921 -0.7381  0.1779 -0.9203
  121OSM   H17G12887   5.494   3.838   8.800 -0.2925 -1.5656  0.6001
  121OSM   C18F12888   5.607   3.754   8.964  0.3472 -0.4744  0.1194
  121OSM   H18F12889   5.623   3.766   9.073 -1.9541  0.8663  0.3219
  121OSM   H18G12890   5.712   3.760   8.926  0.2987 -2.5448 -0.4068
  121OSM   H18H12891   5.575   3.648   8.952  2.3365 -1.2481  1.3513
  122OSM      N12892   5.688   2.489  10.843 -0.4401 -0.0550 -0.7625
  122OSM    C1512893   5.613   2.617  10.827 -0.1002  0.1271 -0.2418
  122OSM   H15A12894   5.632   2.681  10.912 -0.3349 -0.2350  0.0862
  122OSM   H15B12895   5.508   2.593  10.831  0.0511 -0.2647  1.8578
  122OSM   H15C12896   5.635   2.652  10.728 -1.5992  1.4307 -0.1285
  122OSM    C1412897   5.668   2.408  10.721  0.5510  0.0066  0.2647
  122OSM   H14A12898   5.704   2.460  10.634 -0.6776 -0.7105 -0.6929
  122OSM   H14B12899   5.562   2.388  10.709  0.4083  0.7425  0.2592
  122OSM   H14C12900   5.714   2.314  10.745 -1.9830 -1.2388  0.4184
  122OSM    C1312901   5.838   2.521  10.853  0.0345 -0.1086  0.1678
  122OSM   H13A12902   5.884   2.559  10.763 -0.9284 -1.0477 -0.7271
  122OSM   H13B12903   5.892   2.431  10.882  0.6989  0.3750  0.4459
  122OSM   H13C12904   5.856   2.596  10.929 -0.7728 -0.4904  0.7485
  122OSM    C1212905   5.640   2.420  10.971  0.2328  0.3326  0.1354
  122OSM   H12A12906   5.535   2.402  10.957 -0.1818  2.4876  0.2592
  122OSM   H12B12907   5.637   2.494  11.050 -3.0533  0.9129 -0.4803
  122OSM    C1112908   5.708   2.288  11.009  0.4274  0.8154 -0.0211
  122OSM   H11A12909   5.652   2.250  11.098 -2.0401  0.4846 -1.6703
  122OSM   H11B12910   5.815   2.299  11.037  0.7925 -2.3203  0.0845
  122OSM      P12911   5.601   2.087  10.880 -0.2068 -0.0763 -0.1631
  122OSM    O1312912   5.633   1.972  10.967 -0.3406 -0.4963  0.1751
  122OSM    O1412913   5.465   2.148  10.889 -0.0657  0.3067  0.4213
  122OSM    O1112914   5.633   2.036  10.735  0.0976 -0.4043 -0.2510
  122OSM    O1212915   5.710   2.199  10.906  0.2365 -0.2583  0.0570
  122OSM    C1S12916   5.767   2.044  10.681 -0.0568  0.0869  0.2471
  122OSM    H1S12917   5.831   1.984  10.749  0.3212  0.1869 -0.0224
  122OSM    H1T12918   5.810   2.146  10.688 -1.3560  0.6229  0.5144
  122OSM     NF12919   5.899   1.991  10.490  0.1266  0.3784  0.1077
  122OSM    HNF12920   5.937   2.054  10.423 -1.1760 -0.3486 -1.3480
  122OSM    C2S12921   5.763   2.014  10.531 -0.2367 -0.3706  0.9064
  122OSM    H2S12922   5.711   1.916  10.515 -1.4685  0.7282 -2.2573
  122OSM    C3S12923   5.686   2.127  10.452 -0.1237  0.2316  0.4602
  122OSM    H3S12924   5.750   2.217  10.465 -0.5357  0.5737  0.1280
  122OSM     O312925   5.559   2.158  10.506  0.3381  0.4613  0.3621
  122OSM    HO312926   5.567   2.115  10.591 -1.5079 -1.6262 -0.4598
  122OSM    C4S12927   5.679   2.084  10.304  0.0989  1.2175 -1.1053
  122OSM    H4S12928   5.750   2.133  10.235  1.1736  0.9720 -0.1890
  122OSM    C5S12929   5.584   1.995  10.259  0.3307 -0.3780 -0.3455
  122OSM    H5S12930   5.513   1.958  10.334  1.3468 -0.8283  0.4085
  122OSM    C6S12931   5.566   1.948  10.115 -0.2154  0.0761 -0.1925
  122OSM    H6S12932   5.470   1.990  10.079  0.9888  0.1888 -3.4556
  122OSM    H6T12933   5.544   1.839  10.112 -2.4517  0.5266 -1.8727
  122OSM    C7S12934   5.672   1.988  10.011 -0.3130  0.2743  0.0255
  122OSM    H7S12935   5.776   1.961  10.039  0.3771 -0.1039 -2.6942
  122OSM    H7T12936   5.654   2.094   9.982 -1.2548  0.6897  2.0352
  122OSM    C8S12937   5.655   1.911   9.875  0.5839 -0.1672 -0.4311
  122OSM    H8S12938   5.546   1.900   9.860  0.4944 -0.3698  0.3662
  122OSM    H8T12939   5.694   1.806   9.870 -1.5246 -0.9776 -0.3136
  122OSM    C9S12940   5.715   1.993   9.762 -0.1610 -0.0413  0.6558
  122OSM    H9S12941   5.823   2.000   9.789  0.1884 -0.1727 -0.6584
  122OSM    H9T12942   5.665   2.092   9.762  1.2731  0.7040 -0.6975
  122OSM   C10S12943   5.700   1.931   9.622  0.0536 -0.5123  0.6425
  122OSM   H10S12944   5.594   1.923   9.592 -0.2042  1.3035  0.9753
  122OSM   H10T12945   5.751   1.833   9.618  2.0063  0.4750  0.3850
  122OSM   C11S12946   5.762   2.017   9.508  0.4298 -0.6114  0.4324
  122OSM   H11S12947   5.869   2.007   9.538  0.9761  0.5308 -1.0499
  122OSM   H11T12948   5.725   2.121   9.510  1.4828 -0.2005 -0.5659
  122OSM   C12S12949   5.741   1.962   9.365 -0.1355 -0.2808  0.7498
  122OSM   H12S12950   5.637   1.971   9.327  0.3463 -0.0252 -0.5218
  122OSM   H12T12951   5.755   1.852   9.365  2.0829 -0.0251  0.6007
  122OSM   C13S12952   5.851   2.015   9.263 -0.3102 -0.5897 -0.5528
  122OSM   H13S12953   5.950   1.970   9.287 -0.8881 -1.7887 -0.3438
  122OSM   H13T12954   5.847   2.125   9.278 -0.6058 -0.0269 -4.4489
  122OSM   C14S12955   5.810   1.977   9.121  0.1021  0.0917  0.3867
  122OSM   H14S12956   5.789   2.066   9.059 -0.6635 -0.6698 -0.4788
  122OSM   H14T12957   5.708   1.931   9.127  0.3006 -0.4687 -0.4613
  122OSM   C15S12958   5.901   1.874   9.044 -0.1131 -0.5409 -0.7871
  122OSM   H15S12959   5.899   1.770   9.082  1.3889 -0.1038  0.5776
  122OSM   H15T12960   6.004   1.915   9.056 -1.9659  4.8066 -1.6719
  122OSM   C16S12961   5.869   1.875   8.896  0.1743 -0.7997  0.3223
  122OSM   H16S12962   5.880   1.978   8.857  0.4445 -0.8943  0.1488
  122OSM   H16T12963   5.766   1.840   8.873 -0.5229  1.7980 -0.6136
  122OSM   C17S12964   5.975   1.787   8.813  0.1116 -0.3050  0.3436
  122OSM   H17S12965   5.977   1.690   8.868  1.7752 -0.8565 -0.6647
  122OSM   H17T12966   6.072   1.842   8.819  0.3457 -0.7255  0.4082
  122OSM   C18S12967   5.938   1.742   8.670  0.0622  0.5230  0.1252
  122OSM   H18S12968   5.930   1.834   8.608  0.2912 -0.3822 -1.2730
  122OSM   H18T12969   5.843   1.684   8.665 -0.3497  1.3256 -1.7398
  122OSM   H18U12970   6.017   1.677   8.627 -1.2618 -0.3785 -0.9908
  122OSM    C1F12971   5.980   1.889  10.527 -0.8516  0.4183 -0.0204
  122OSM     OF12972   5.952   1.814  10.618  0.2220 -0.0929  0.2834
  122OSM    C2F12973   6.111   1.885  10.459  0.6735  0.4844  0.2810
  122OSM    H2F12974   6.178   1.943  10.525  1.4624  1.4309 -1.3190
  122OSM    H2G12975   6.111   1.921  10.354 -0.5993 -1.7059 -0.5088
  122OSM    C3F12976   6.159   1.735  10.452 -1.1152 -0.8129 -0.4907
  122OSM    H3F12977   6.078   1.661  10.432 -0.4107 -1.4249 -1.1174
  122OSM    H3G12978   6.193   1.709  10.555 -2.1464  0.6557  0.2399
  122OSM    C4F12979   6.293   1.715  10.374  0.3662  0.5074  0.6852
  122OSM    H4F12980   6.320   1.608  10.380  1.6707  0.6741 -1.3704
  122OSM    H4G12981   6.366   1.775  10.432  0.5668 -2.0905  3.2242
  122OSM    C5F12982   6.284   1.734  10.222 -0.2398  0.3340  0.4498
  122OSM    H5F12983   6.285   1.845  10.216 -0.0409  0.3374  0.5708
  122OSM    H5G12984   6.186   1.689  10.191 -0.2527  0.6274  0.0542
  122OSM    C6F12985   6.390   1.681  10.131 -0.4015 -0.6921 -0.4459
  122OSM    H6F12986   6.354   1.682  10.026 -2.0180  0.1076  0.0940
  122OSM    H6G12987   6.416   1.574  10.146 -0.3493 -0.9146 -2.0376
  122OSM    C7F12988   6.519   1.754  10.135 -0.2932 -0.4280 -0.3644
  122OSM    H7F12989   6.593   1.692  10.081  0.1003 -0.6812  0.4525
  122OSM    H7G12990   6.553   1.770  10.240 -1.8390  1.4043 -0.1181
  122OSM    C8F12991   6.499   1.896  10.063  0.9734 -0.6218 -0.6669
  122OSM    H8F12992   6.422   1.955  10.118  1.1377 -0.1180 -0.9727
  122OSM    H8G12993   6.465   1.860   9.964 -1.4781 -1.1749  0.3518
  122OSM    C9F12994   6.617   1.980  10.049 -0.1179 -0.8189 -0.0742
  122OSM    H9F12995   6.662   2.013  10.144  0.1366  1.3304 -0.9181
  122OSM   C10F12996   6.684   2.020   9.935  0.2879  0.5065 -0.9078
  122OSM   H10F12997   6.754   2.105   9.938 -0.2398  0.9794 -1.8860
  122OSM   C11F12998   6.665   1.987   9.794  0.5792  0.1603  0.0934
  122OSM   H11F12999   6.613   2.065   9.734 -1.0466 -1.9491 -1.3185
  122OSM   H11G13000   6.593   1.902   9.794  0.8005 -0.0278  0.2418
  122OSM   C12F13001   6.788   1.950   9.715 -0.9248  0.1378 -0.4790
  122OSM   H12F13002   6.753   1.882   9.635 -2.3768 -0.0768  0.3269
  122OSM   H12G13003   6.850   1.880   9.776 -2.7229 -1.0443  0.0418
  122OSM   C13F13004   6.851   2.078   9.668  0.1314 -0.4326  0.0149
  122OSM   H13F13005   6.851   2.150   9.753  0.4451  0.1087 -0.4429
  122OSM   H13G13006   6.787   2.114   9.585  2.2594  1.4864 -0.8637
  122OSM   C14F13007   6.995   2.062   9.619  0.7924  0.3286  0.4521
  122OSM   H14F13008   7.003   1.977   9.548  1.9632  0.2791  0.6377
  122OSM   H14G13009   7.058   2.035   9.706 -0.4879 -0.7957  1.0486
  122OSM   C15F13010   7.043   2.192   9.548 -0.1941  0.3756 -0.2047
  122OSM   H15F13011   6.994   2.193   9.448 -0.2690  0.6800 -0.1660
  122OSM   H15G13012   7.151   2.174   9.535 -1.0231 -4.2116 -1.6320
  122OSM   C16F13013   7.021   2.333   9.611  0.1822  0.3764  0.0681
  122OSM   H16F13014   7.086   2.337   9.700 -1.9359 -0.7760  1.7187
  122OSM   H16G13015   6.912   2.331   9.633  0.4319  0.7906  1.3540
  122OSM   C17F13016   7.060   2.443   9.506 -0.5140  0.2101  0.5875
  122OSM   H17F13017   7.015   2.409   9.410  0.0163  1.2837 -0.0513
  122OSM   H17G13018   7.170   2.442   9.489 -0.8889  0.7318 -2.1173
  122OSM   C18F13019   7.008   2.582   9.539 -0.0872  0.5565  0.3684
  122OSM   H18F13020   7.020   2.644   9.447 -0.5512  1.0774  0.6555
  122OSM   H18G13021   7.057   2.620   9.631 -1.1446  1.2032  0.6685
  122OSM   H18H13022   6.898   2.581   9.551 -0.1791  1.1722 -0.3430
  123OSM      N13023   3.361   6.644   6.138 -0.2961  0.3544  0.5622
  123OSM    C1513024   3.452   6.523   6.149  0.0518 -0.6542 -0.3782
  123OSM   H15A13025   3.548   6.546   6.106  0.7856  0.6089  1.8598
  123OSM   H15B13026   3.413   6.439   6.093 -1.8672 -0.5461  0.7521
  123OSM   H15C13027   3.467   6.493   6.251  1.8878  0.2945 -0.3618
  123OSM    C1413028   3.369   6.683   5.998  0.3506 -0.1023  0.0183
  123OSM   H14A13029   3.318   6.776   5.978 -1.6844 -0.9221  1.1832
  123OSM   H14B13030   3.337   6.608   5.927  0.9447 -0.3005 -0.0468
  123OSM   H14C13031   3.471   6.696   5.966 -0.2769 -0.0168 -2.0277
  123OSM    C1313032   3.218   6.613   6.169  0.1334  0.3519 -0.6133
  123OSM   H13A13033   3.210   6.572   6.269  0.9002 -2.9368 -1.8204
  123OSM   H13B13034   3.176   6.541   6.100  1.2904 -1.9695  1.0401
  123OSM   H13C13035   3.160   6.704   6.169 -0.4126  0.0303  2.2475
  123OSM    C1213036   3.413   6.746   6.241 -0.6057  0.2355 -0.3711
  123OSM   H12A13037   3.509   6.782   6.207 -0.6487  0.1892 -0.5425
  123OSM   H12B13038   3.432   6.697   6.335  1.8561  0.0200 -0.9436
  123OSM    C1113039   3.327   6.872   6.261  0.3426  0.6103  0.5296
  123OSM   H11A13040   3.372   6.924   6.349  2.2824 -2.0454  1.1583
  123OSM   H11B13041   3.226   6.843   6.298 -0.3295  1.7618 -0.3872
  123OSM      P13042   3.206   7.047   6.110 -0.0545 -0.0174  0.2295
  123OSM    O1313043   3.227   7.112   5.979  0.1143 -0.3627 -0.3395
  123OSM    O1413044   3.088   6.961   6.117 -0.6191  0.4145 -0.2276
  123OSM    O1113045   3.218   7.157   6.226  0.4703 -0.8816 -0.0969
  123OSM    O1213046   3.330   6.953   6.138  0.0197 -0.5708 -0.7803
  123OSM    C1S13047   3.094   7.198   6.282 -0.1609  0.4921  0.5039
  123OSM    H1S13048   3.004   7.135   6.264 -0.8145  1.8104 -0.9366
  123OSM    H1T13049   3.065   7.300   6.250 -0.9691  0.2696  0.5167
  123OSM     NF13050   3.001   7.263   6.495 -0.8080 -0.3896 -0.5078
  123OSM    HNF13051   3.008   7.358   6.525 -2.9195 -0.3388 -0.1392
  123OSM    C2S13052   3.110   7.194   6.439 -1.0780 -0.4772  0.4223
  123OSM    H2S13053   3.106   7.092   6.484  1.2744 -1.1373 -0.7673
  123OSM    C3S13054   3.246   7.259   6.478 -0.0468  0.2810  0.3262
  123OSM    H3S13055   3.246   7.351   6.415 -0.8652  0.3817  0.4763
  123OSM     O313056   3.364   7.188   6.430  0.0515 -0.0898 -0.1439
  123OSM    HO313057   3.346   7.173   6.337  0.0827  0.2662 -0.2043
  123OSM    C4S13058   3.250   7.280   6.631  0.2927 -0.1214 -0.5047
  123OSM    H4S13059   3.229   7.191   6.692 -0.5672  1.2301  1.2129
  123OSM    C5S13060   3.273   7.398   6.694  1.0505 -0.7236 -0.6079
  123OSM    H5S13061   3.268   7.489   6.632  0.7579 -0.4720 -0.2245
  123OSM    C6S13062   3.270   7.420   6.843  0.1181 -0.0740  0.6564
  123OSM    H6S13063   3.203   7.508   6.856  1.9345  1.6174 -0.9496
  123OSM    H6T13064   3.370   7.456   6.873 -0.6313  2.8476 -0.1759
  123OSM    C7S13065   3.193   7.312   6.938  0.5675 -0.2816  0.2822
  123OSM    H7S13066   3.221   7.207   6.915 -1.9838 -0.9673  0.2369
  123OSM    H7T13067   3.086   7.332   6.917  0.9325  1.6575  0.1040
  123OSM    C8S13068   3.217   7.366   7.078  0.3392  0.6420  0.5419
  123OSM    H8S13069   3.143   7.305   7.135  1.5585 -2.3861 -1.0039
  123OSM    H8T13070   3.172   7.467   7.087  0.8212  0.8438  0.7021
  123OSM    C9S13071   3.361   7.356   7.126 -0.7183 -0.2832 -0.3776
  123OSM    H9S13072   3.424   7.419   7.060  2.1483 -0.2724  2.2719
  123OSM    H9T13073   3.390   7.249   7.118 -0.4226 -0.1422 -1.2369
  123OSM   C10S13074   3.383   7.424   7.256 -0.7521  0.6333 -1.0519
  123OSM   H10S13075   3.296   7.397   7.320 -1.2808  0.0941 -1.9786
  123OSM   H10T13076   3.392   7.532   7.234 -0.2275  1.2970  2.1313
  123OSM   C11S13077   3.508   7.398   7.340 -0.5602 -0.3632  0.2257
  123OSM   H11S13078   3.592   7.406   7.268 -0.2353 -1.1528  0.5100
  123OSM   H11T13079   3.510   7.294   7.379 -1.4931  0.0840  1.5019
  123OSM   C12S13080   3.518   7.494   7.460 -0.3880  0.0421 -0.2065
  123OSM   H12S13081   3.425   7.482   7.519  1.5223  2.4000  3.4357
  123OSM   H12T13082   3.541   7.600   7.435  2.9439 -0.6041 -0.0507
  123OSM   C13S13083   3.624   7.456   7.569 -0.1675  0.3585  0.0311
  123OSM   H13S13084   3.723   7.438   7.522 -1.1311  0.1196 -1.9582
  123OSM   H13T13085   3.601   7.361   7.623  2.0936 -0.5744 -0.5860
  123OSM   C14S13086   3.649   7.565   7.669  0.4250  0.5242  0.2304
  123OSM   H14S13087   3.554   7.603   7.713  1.9041  4.1977  0.4378
  123OSM   H14T13088   3.703   7.652   7.626 -0.7281  0.9802 -0.3366
  123OSM   C15S13089   3.721   7.518   7.790 -0.6633 -0.0565  0.0862
  123OSM   H15S13090   3.814   7.471   7.751  0.1140  1.7402 -0.2980
  123OSM   H15T13091   3.666   7.441   7.849  2.9629 -2.1594  0.8918
  123OSM   C16S13092   3.748   7.628   7.890  0.7371 -0.4428 -0.9920
  123OSM   H16S13093   3.647   7.664   7.921  1.4722 -0.0171  0.9618
  123OSM   H16T13094   3.802   7.714   7.846 -3.3192  2.3142 -0.8875
  123OSM   C17S13095   3.807   7.560   8.014 -0.4890  0.3885 -0.3100
  123OSM   H17S13096   3.891   7.497   7.980  1.2001  0.3405  3.7196
  123OSM   H17T13097   3.736   7.482   8.050 -1.1660  2.3476  2.7661
  123OSM   C18S13098   3.850   7.662   8.108  0.2361  0.0169 -0.0193
  123OSM   H18S13099   3.767   7.714   8.160  0.3516  2.3603 -2.0941
  123OSM   H18T13100   3.910   7.749   8.074  1.0693 -0.4244  0.2800
  123OSM   H18U13101   3.903   7.620   8.197  0.5349 -0.0079 -0.2081
  123OSM    C1F13102   2.885   7.198   6.496  0.1228  0.7271  0.0747
  123OSM     OF13103   2.876   7.084   6.456 -0.2109 -0.3522 -0.3897
  123OSM    C2F13104   2.767   7.274   6.549  0.4713  0.7719  0.4856
  123OSM    H2F13105   2.679   7.269   6.481  0.2401  0.1962  0.8199
  123OSM    H2G13106   2.809   7.376   6.565  2.4074  0.2326 -0.9060
  123OSM    C3F13107   2.718   7.224   6.685  0.3836  0.0845  0.7052
  123OSM    H3F13108   2.663   7.130   6.662  0.8594 -0.5163  1.9440
  123OSM    H3G13109   2.643   7.293   6.729  1.6466  1.9095  0.0486
  123OSM    C4F13110   2.824   7.210   6.793  0.9298  0.5056 -0.4165
  123OSM    H4F13111   2.810   7.292   6.867 -1.9942 -0.5379  0.2460
  123OSM    H4G13112   2.928   7.232   6.759  1.1559  0.1387  0.0376
  123OSM    C5F13113   2.817   7.074   6.865  0.1862 -0.6787  0.4921
  123OSM    H5F13114   2.860   6.992   6.805  0.7756 -1.4389  1.9259
  123OSM    H5G13115   2.712   7.056   6.895 -0.8177  0.1247 -2.3553
  123OSM    C6F13116   2.889   7.088   7.004 -0.4360 -0.0560 -0.3666
  123OSM    H6F13117   2.845   7.169   7.066  1.5166 -1.4459  2.9485
  123OSM    H6G13118   2.997   7.107   6.986 -0.2039 -0.9222  0.1073
  123OSM    C7F13119   2.886   6.961   7.085 -0.1169 -0.1187  0.8026
  123OSM    H7F13120   2.970   6.897   7.051  0.3808  1.3046 -0.7062
  123OSM    H7G13121   2.791   6.904   7.071  0.4396 -0.6985 -0.6868
  123OSM    C8F13122   2.920   6.977   7.233 -0.3878  0.7234  1.2092
  123OSM    H8F13123   3.024   7.011   7.253 -0.6260  2.0658  0.2382
  123OSM    H8G13124   2.913   6.874   7.275  0.5289 -0.5166 -1.5018
  123OSM    C9F13125   2.834   7.064   7.314  0.0917  0.2955 -0.4259
  123OSM    H9F13126   2.852   7.172   7.304  1.8092 -0.0103 -0.7050
  123OSM   C10F13127   2.731   7.030   7.399 -0.7148  0.2494 -0.2240
  123OSM   H10F13128   2.695   7.111   7.465  2.2291  0.5195  1.1115
  123OSM   C11F13129   2.675   6.896   7.443  0.1114  0.1905 -0.5458
  123OSM   H11F13130   2.737   6.820   7.390 -0.5862 -0.7677 -0.0208
  123OSM   H11G13131   2.576   6.892   7.393 -0.4713 -0.5110  0.6234
  123OSM   C12F13132   2.658   6.872   7.595 -1.0220  0.1097 -0.4686
  123OSM   H12F13133   2.587   6.951   7.629 -1.6873 -0.0681 -1.4109
  123OSM   H12G13134   2.760   6.879   7.637 -1.6837  0.6537  1.0953
  123OSM   C13F13135   2.593   6.739   7.632 -0.0458  0.5974 -1.0578
  123OSM   H13F13136   2.659   6.653   7.605 -1.9770 -1.1148 -0.4781
  123OSM   H13G13137   2.495   6.735   7.580 -1.5286 -0.4700  1.7248
  123OSM   C14F13138   2.568   6.723   7.780 -0.0491 -0.2559  0.3786
  123OSM   H14F13139   2.662   6.711   7.837 -0.9936  1.5308  2.3571
  123OSM   H14G13140   2.520   6.626   7.803 -0.2539  0.1084  1.4997
  123OSM   C15F13141   2.479   6.836   7.830 -0.1631 -0.0153  0.1563
  123OSM   H15F13142   2.378   6.844   7.785  0.4916 -2.1995 -1.7846
  123OSM   H15G13143   2.530   6.933   7.814  0.4148 -0.4992 -0.9797
  123OSM   C16F13144   2.455   6.814   7.980 -0.1542  0.1096 -0.2618
  123OSM   H16F13145   2.548   6.793   8.036 -1.3210 -1.6932  1.0532
  123OSM   H16G13146   2.391   6.724   7.996 -1.1382  0.7820 -0.3551
  123OSM   C17F13147   2.388   6.937   8.053  0.9690 -0.0547 -0.5963
  123OSM   H17F13148   2.449   7.024   8.021 -0.3936  1.1042 -0.0965
  123OSM   H17G13149   2.397   6.936   8.164 -0.8719  3.0063 -0.3646
  123OSM   C18F13150   2.242   6.959   8.018 -0.6217 -0.2856  0.1161
  123OSM   H18F13151   2.178   6.886   8.072 -0.3340 -0.2289  0.5338
  123OSM   H18G13152   2.217   6.957   7.909 -2.4712 -2.2639  0.5327
  123OSM   H18H13153   2.201   7.054   8.058  1.2380  0.2058  0.8745
  124OSM      N13154   5.911   4.426   6.174 -0.5079  0.5429 -0.1392
  124OSM    C1513155   5.765   4.414   6.181 -0.0310 -0.2197  0.1369
  124OSM   H15A13156   5.721   4.462   6.268  0.3426 -0.2919  0.3637
  124OSM   H15B13157   5.736   4.311   6.190  1.0324 -0.5348 -0.0283
  124OSM   H15C13158   5.722   4.450   6.088  0.4074  0.9674  0.3737
  124OSM    C1413159   5.971   4.307   6.247 -0.6607  0.6723 -0.8433
  124OSM   H14A13160   6.079   4.312   6.248 -0.6429  0.2143 -0.1176
  124OSM   H14B13161   5.940   4.216   6.199 -0.2611 -1.2357  2.3404
  124OSM   H14C13162   5.931   4.300   6.347  1.5583  1.8174  0.1800
  124OSM    C1313163   5.941   4.408   6.030 -0.3364  0.0108 -0.1029
  124OSM   H13A13164   5.898   4.484   5.968 -0.6613  0.8085  1.0836
  124OSM   H13B13165   5.919   4.307   5.997  0.7199  0.0484 -0.9596
  124OSM   H13C13166   6.049   4.416   6.024 -0.1603 -2.4950 -0.7281
  124OSM    C1213167   5.974   4.554   6.216 -0.5498  0.0643 -0.3692
  124OSM   H12A13168   5.939   4.626   6.143  1.0421  1.2243 -0.0019
  124OSM   H12B13169   6.082   4.553   6.219 -0.5369 -2.3584 -0.6706
  124OSM    C1113170   5.935   4.599   6.359  0.1103 -0.0908 -0.4971
  124OSM   H11A13171   5.988   4.694   6.377 -0.2340  0.3228 -1.6187
  124OSM   H11B13172   5.982   4.535   6.438 -0.7006 -0.9351 -0.6876
  124OSM      P13173   5.742   4.773   6.354  0.1911  0.1243  0.1048
  124OSM    O1313174   5.830   4.826   6.249 -0.0449 -0.7050 -0.2299
  124OSM    O1413175   5.600   4.762   6.311 -0.7989 -0.8494 -0.5094
  124OSM    O1113176   5.732   4.862   6.487 -0.2020  0.3608 -0.2104
  124OSM    O1213177   5.798   4.628   6.393 -0.0652  0.4662  0.0114
  124OSM    C1S13178   5.749   4.792   6.613  0.2878 -0.5121  0.2105
  124OSM    H1S13179   5.855   4.773   6.643  1.1621  1.2111 -1.6092
  124OSM    H1T13180   5.693   4.697   6.625  0.8558 -0.7953  0.6482
  124OSM     NF13181   5.766   4.858   6.848  0.8512 -0.5116 -0.4128
  124OSM    HNF13182   5.726   4.803   6.921  1.8845  1.3579  1.5904
  124OSM    C2S13183   5.688   4.879   6.725  0.1212 -0.6037  0.7824
  124OSM    H2S13184   5.697   4.988   6.705  1.0834 -0.4724  1.8292
  124OSM    C3S13185   5.534   4.849   6.738  0.8624  0.2831 -0.5521
  124OSM    H3S13186   5.514   4.751   6.786 -1.3540  0.9291 -0.0686
  124OSM     O313187   5.468   4.847   6.620 -0.2860 -1.1577 -0.0230
  124OSM    HO313188   5.527   4.883   6.554 -1.5534 -0.6665 -0.9224
  124OSM    C4S13189   5.476   4.941   6.843  0.1728  0.4983  0.4334
  124OSM    H4S13190   5.464   4.883   6.935 -0.8218  1.1645  0.7306
  124OSM    C5S13191   5.432   5.067   6.835  0.2849 -0.0669 -0.0301
  124OSM    H5S13192   5.435   5.127   6.743 -4.0820 -0.8586 -0.8145
  124OSM    C6S13193   5.368   5.133   6.952 -0.0622  0.5121 -0.4167
  124OSM    H6S13194   5.280   5.194   6.921 -2.5309 -2.2079  1.0887
  124OSM    H6T13195   5.436   5.205   7.004 -1.5623  0.9628  0.9578
  124OSM    C7S13196   5.314   5.044   7.065  0.1399  0.0001  0.2241
  124OSM    H7S13197   5.397   4.996   7.121  0.2036 -0.4838 -0.2790
  124OSM    H7T13198   5.258   4.965   7.010  0.5189  1.9910 -3.1692
  124OSM    C8S13199   5.226   5.117   7.159  0.3074  0.0019 -0.4215
  124OSM    H8S13200   5.143   5.166   7.103 -0.0969  0.8897  0.9221
  124OSM    H8T13201   5.286   5.201   7.201 -0.2196  0.9522 -1.5378
  124OSM    C9S13202   5.167   5.030   7.274 -0.1980 -0.3030  0.4860
  124OSM    H9S13203   5.165   4.926   7.236  1.4113 -0.9514  2.1017
  124OSM    H9T13204   5.063   5.061   7.299 -0.4186  0.4771 -1.3531
  124OSM   C10S13205   5.262   5.028   7.398 -0.0763 -0.0826 -0.3552
  124OSM   H10S13206   5.295   5.126   7.438  2.5685 -1.2828  0.5317
  124OSM   H10T13207   5.359   4.986   7.364 -0.1065 -0.1888 -0.3090
  124OSM   C11S13208   5.199   4.954   7.518  0.8079 -0.5508  0.5497
  124OSM   H11S13209   5.149   4.859   7.490  0.6382  0.2704 -2.0644
  124OSM   H11T13210   5.116   5.016   7.557  0.2833 -1.8383  1.5143
  124OSM   C12S13211   5.284   4.950   7.643 -0.6901  0.0615  0.1885
  124OSM   H12S13212   5.334   5.049   7.642 -2.3597  0.9275 -0.7167
  124OSM   H12T13213   5.357   4.868   7.628  0.1064  0.2441  2.8232
  124OSM   C13S13214   5.212   4.916   7.777  0.4503 -0.2477  0.3175
  124OSM   H13S13215   5.159   4.819   7.765 -0.2356 -0.2947  3.2992
  124OSM   H13T13216   5.140   4.998   7.801  1.3824  0.9580 -0.9289
  124OSM   C14S13217   5.304   4.906   7.894  0.0688 -0.2656  0.8779
  124OSM   H14S13218   5.368   4.824   7.856  0.8302  0.6543  0.1906
  124OSM   H14T13219   5.248   4.878   7.986  0.0198 -0.6139  0.7447
  124OSM   C15S13220   5.397   5.029   7.923  0.7801 -0.3362  0.6800
  124OSM   H15S13221   5.332   5.116   7.948  0.8214 -0.4140  1.0627
  124OSM   H15T13222   5.462   5.057   7.838  0.4836  0.2782  0.6509
  124OSM   C16S13223   5.495   5.005   8.040  0.2621  0.1174  0.4202
  124OSM   H16S13224   5.589   5.062   8.029  0.7075 -0.7694 -0.3969
  124OSM   H16T13225   5.521   4.897   8.042 -1.7689 -0.4008 -0.0466
  124OSM   C17S13226   5.433   5.031   8.180 -0.0085  0.0016  0.0525
  124OSM   H17S13227   5.362   4.949   8.204  2.5385 -1.8661  1.5101
  124OSM   H17T13228   5.382   5.130   8.182  2.6221  1.3926  0.3824
  124OSM   C18S13229   5.542   5.033   8.288  0.6050 -0.5213 -0.4401
  124OSM   H18S13230   5.485   5.040   8.383 -2.3716 -2.0261 -2.0308
  124OSM   H18T13231   5.609   5.118   8.265 -1.2025  0.4371 -2.3910
  124OSM   H18U13232   5.608   4.944   8.287  1.8715  0.3618  1.5588
  124OSM    C1F13233   5.892   4.911   6.873  0.3650 -0.2706 -0.2774
  124OSM     OF13234   5.957   4.950   6.783 -0.1367  0.0917 -0.6718
  124OSM    C2F13235   5.937   4.910   7.014 -0.0044 -0.2365  0.2733
  124OSM    H2F13236   5.931   4.809   7.060 -1.3460  0.5126  1.8070
  124OSM    H2G13237   5.871   4.974   7.077 -0.6579 -0.4605 -0.1788
  124OSM    C3F13238   6.086   4.953   7.022  0.7431  0.1478  0.0065
  124OSM    H3F13239   6.094   5.053   6.974  0.2622 -0.8048 -2.0945
  124OSM    H3G13240   6.163   4.884   6.981 -1.7980 -2.2742 -0.8066
  124OSM    C4F13241   6.136   4.983   7.168 -0.6230  0.0683  0.5786
  124OSM    H4F13242   6.237   5.023   7.146 -1.4318  1.0178 -1.5278
  124OSM    H4G13243   6.145   4.887   7.223  1.9078 -0.7494 -1.1556
  124OSM    C5F13244   6.056   5.084   7.238  0.3418 -0.3390  0.4501
  124OSM    H5F13245   5.961   5.046   7.282  1.1190 -1.9859  0.7387
  124OSM    H5G13246   6.026   5.145   7.151  0.7004  0.6723  1.0328
  124OSM    C6F13247   6.133   5.169   7.344  0.0580  0.6204 -0.0242
  124OSM    H6F13248   6.080   5.260   7.379 -0.7581 -0.2281  0.9830
  124OSM    H6G13249   6.224   5.192   7.284 -0.2518  0.0041 -0.7418
  124OSM    C7F13250   6.169   5.083   7.463 -0.1316  0.6963 -0.0946
  124OSM    H7F13251   6.279   5.092   7.481 -0.2392 -0.0063  1.0188
  124OSM    H7G13252   6.154   4.975   7.439 -0.7555  0.9222 -0.7141
  124OSM    C8F13253   6.090   5.107   7.594  0.3309 -0.6084  0.2981
  124OSM    H8F13254   6.135   5.050   7.678  2.4540  0.0466 -0.3689
  124OSM    H8G13255   5.984   5.073   7.588  1.2842 -3.3844 -1.5351
  124OSM    C9F13256   6.098   5.256   7.643 -0.2052 -0.0579  0.2246
  124OSM    H9F13257   6.173   5.313   7.586 -1.0420  0.7588 -0.0541
  124OSM   C10F13258   6.019   5.314   7.734  0.2517 -0.1511  0.0935
  124OSM   H10F13259   6.029   5.418   7.768  0.3173 -0.4492  1.0122
  124OSM   C11F13260   5.901   5.263   7.816 -0.4341  0.3882 -0.0665
  124OSM   H11F13261   5.840   5.196   7.752 -0.0528  0.0067 -0.0386
  124OSM   H11G13262   5.842   5.355   7.834  0.3204  0.7710  0.4508
  124OSM   C12F13263   5.953   5.199   7.944  0.5719 -0.0587 -0.1573
  124OSM   H12F13264   6.036   5.127   7.928  0.6619 -0.8357  3.4119
  124OSM   H12G13265   5.867   5.149   7.994  1.1278 -0.4250  0.4308
  124OSM   C13F13266   5.999   5.310   8.042 -0.8246  0.0669  0.0869
  124OSM   H13F13267   5.928   5.393   8.062 -2.7277 -1.4418 -0.2196
  124OSM   H13G13268   6.087   5.363   8.000 -0.5490 -0.5664 -0.1322
  124OSM   C14F13269   6.042   5.267   8.184 -0.0823 -0.0925 -0.6670
  124OSM   H14F13270   6.089   5.349   8.241  2.0505 -0.6830 -1.5446
  124OSM   H14G13271   6.111   5.183   8.163  1.6149  0.6756  1.7113
  124OSM   C15F13272   5.924   5.203   8.260  1.2005  0.3350  0.2090
  124OSM   H15F13273   5.899   5.112   8.203 -1.9019  2.1895 -1.5250
  124OSM   H15G13274   5.835   5.264   8.233  1.9376  1.5191  0.3686
  124OSM   C16F13275   5.950   5.185   8.411 -0.7191  0.2539  0.5427
  124OSM   H16F13276   5.994   5.284   8.438 -1.5651  0.9525 -0.5752
  124OSM   H16G13277   6.020   5.100   8.426  2.3256  2.4920 -0.4811
  124OSM   C17F13278   5.822   5.183   8.499  0.2306  0.3995 -0.5831
  124OSM   H17F13279   5.862   5.170   8.602  0.0776  1.5216 -0.3768
  124OSM   H17G13280   5.759   5.097   8.468 -1.1739  1.2726 -0.1657
  124OSM   C18F13281   5.727   5.312   8.492 -0.7173 -0.6383 -0.1647
  124OSM   H18F13282   5.693   5.338   8.389  1.6656  3.3537 -0.0384
  124OSM   H18G13283   5.777   5.398   8.540 -0.9717  0.8099 -2.3815
  124OSM   H18H13284   5.635   5.289   8.550 -1.3730 -0.7424 -1.2157
  125OSM      N13285   5.425   0.456   6.265  0.9022 -0.1782 -0.7866
  125OSM    C1513286   5.440   0.563   6.371 -0.1150  0.9544 -0.3116
  125OSM   H15A13287   5.544   0.575   6.397 -0.1563  0.1848  0.1969
  125OSM   H15B13288   5.389   0.534   6.461 -1.0839  0.0018 -1.1471
  125OSM   H15C13289   5.396   0.659   6.345  0.4239  2.0396  2.6026
  125OSM    C1413290   5.281   0.447   6.230 -0.6461 -0.1178 -0.9817
  125OSM   H14A13291   5.216   0.417   6.311  0.5973  1.5418  0.6566
  125OSM   H14B13292   5.267   0.378   6.148  2.7192 -2.0028 -0.0601
  125OSM   H14C13293   5.254   0.543   6.190  1.1983 -0.0405 -2.0794
  125OSM    C1313294   5.497   0.502   6.142  0.3989  1.1636 -0.6169
  125OSM   H13A13295   5.478   0.426   6.067 -0.6870  1.9201 -1.1189
  125OSM   H13B13296   5.604   0.501   6.158  0.1561  1.2772  1.0663
  125OSM   H13C13297   5.452   0.591   6.101 -2.4580 -1.0238 -2.4582
  125OSM    C1213298   5.488   0.323   6.305 -0.0062 -0.4538  0.4783
  125OSM   H12A13299   5.452   0.299   6.404 -1.3868 -1.1503 -0.1701
  125OSM   H12B13300   5.590   0.340   6.336 -0.5136 -0.6777  2.3073
  125OSM    C1113301   5.477   0.206   6.209 -0.6373  0.1813  0.4741
  125OSM   H11A13302   5.531   0.222   6.114  0.8197 -2.1044  0.8594
  125OSM   H11B13303   5.372   0.186   6.176  0.0694 -0.0292 -1.7213
  125OSM      P13304   5.466  -0.040   6.314 -0.0102  0.1691  0.1506
  125OSM    O1313305   5.338   0.003   6.370 -0.8703  0.5246 -0.6192
  125OSM    O1413306   5.461  -0.143   6.206  0.0276  0.9505 -0.1135
  125OSM    O1113307   5.558  -0.099   6.426 -0.2473  0.4339 -0.2492
  125OSM    O1213308   5.532   0.089   6.262 -0.5990 -0.0052  0.3659
  125OSM    C1S13309   5.689  -0.052   6.461  0.9394  0.3499  0.0126
  125OSM    H1S13310   5.687   0.057   6.480  0.8286  0.6063 -1.4236
  125OSM    H1T13311   5.759  -0.071   6.377 -1.8632 -1.7275 -1.9460
  125OSM     NF13312   5.860  -0.040   6.639  0.1611 -0.2640 -0.3494
  125OSM    HNF13313   5.951  -0.077   6.621 -0.2386 -0.6347 -1.6880
  125OSM    C2S13314   5.750  -0.113   6.588  0.3969  0.3099  0.0140
  125OSM    H2S13315   5.676  -0.111   6.670  1.4131  2.2332  0.9147
  125OSM    C3S13316   5.783  -0.263   6.568 -0.2880 -0.2724 -0.0411
  125OSM    H3S13317   5.839  -0.261   6.472  0.9455  1.2694  0.7034
  125OSM     O313318   5.670  -0.333   6.525 -0.0959 -0.0850 -0.3810
  125OSM    HO313319   5.601  -0.267   6.512 -2.2384 -2.0800  0.4636
  125OSM    C4S13320   5.854  -0.321   6.689  0.5771 -0.1833 -1.1083
  125OSM    H4S13321   5.964  -0.320   6.690  0.5998 -1.4872 -1.1756
  125OSM    C5S13322   5.784  -0.363   6.793 -0.4570  0.2143 -0.0717
  125OSM    H5S13323   5.675  -0.357   6.806 -0.3158 -1.1724  1.9582
  125OSM    C6S13324   5.840  -0.431   6.914 -0.5524 -0.2955 -0.2973
  125OSM    H6S13325   5.950  -0.440   6.912 -0.5840 -0.5985 -2.4017
  125OSM    H6T13326   5.801  -0.535   6.914  1.3658 -1.0437  1.6714
  125OSM    C7S13327   5.787  -0.376   7.050  0.3179  0.3446  1.0845
  125OSM    H7S13328   5.682  -0.347   7.030 -0.3892 -0.5157  3.4088
  125OSM    H7T13329   5.846  -0.287   7.081  1.2272  0.1564 -0.0647
  125OSM    C8S13330   5.798  -0.486   7.161 -0.0463  0.4200 -0.2066
  125OSM    H8S13331   5.907  -0.498   7.180 -0.2273  1.6073  1.6926
  125OSM    H8T13332   5.756  -0.579   7.116  5.3694 -1.4738 -1.7016
  125OSM    C9S13333   5.717  -0.444   7.287  0.3362  0.1162  0.3644
  125OSM    H9S13334   5.618  -0.409   7.249 -0.1322 -0.9856  0.5512
  125OSM    H9T13335   5.776  -0.366   7.339  1.1840 -1.1645  1.3605
  125OSM   C10S13336   5.686  -0.559   7.391 -0.7992  0.5833  0.1161
  125OSM   H10S13337   5.770  -0.559   7.463 -1.5371  0.0192  0.9789
  125OSM   H10T13338   5.697  -0.658   7.342 -0.6427 -0.2180  1.7533
  125OSM   C11S13339   5.575  -0.524   7.477  1.0199 -0.7930 -0.3087
  125OSM   H11S13340   5.479  -0.530   7.421  0.9786 -1.5977 -0.1591
  125OSM   H11T13341   5.599  -0.420   7.505  3.0954 -1.0263 -1.1179
  125OSM   C12S13342   5.548  -0.611   7.600 -0.0252 -0.6257  0.0043
  125OSM   H12S13343   5.558  -0.720   7.581  1.7914 -0.6473  0.9941
  125OSM   H12T13344   5.443  -0.594   7.633  0.1127  1.5044 -0.5775
  125OSM   C13S13345   5.654  -0.580   7.706 -0.7159 -0.4488  0.3517
  125OSM   H13S13346   5.651  -0.470   7.716  1.8276 -0.3456  0.2322
  125OSM   H13T13347   5.757  -0.607   7.677 -0.9981 -2.7343  1.3507
  125OSM   C14S13348   5.620  -0.656   7.843 -0.4925  0.2679 -0.0054
  125OSM   H14S13349   5.646  -0.761   7.817 -0.4746  0.9434 -2.9375
  125OSM   H14T13350   5.514  -0.651   7.874 -0.9308  1.5438 -1.6308
  125OSM   C15S13351   5.707  -0.603   7.958  0.2180 -0.2431 -0.6849
  125OSM   H15S13352   5.662  -0.512   8.001 -1.5421 -1.6167  0.4371
  125OSM   H15T13353   5.807  -0.561   7.931  1.0957 -2.2275 -0.6632
  125OSM   C16S13354   5.720  -0.688   8.085  0.4362  0.1178 -0.0604
  125OSM   H16S13355   5.779  -0.636   8.164 -0.0919 -1.9419  1.7201
  125OSM   H16T13356   5.772  -0.784   8.068 -0.1278 -0.0058 -1.1313
  125OSM   C17S13357   5.584  -0.726   8.156  0.4164  0.6102  0.1186
  125OSM   H17S13358   5.607  -0.776   8.252 -1.3334 -1.3823 -0.4539
  125OSM   H17T13359   5.541  -0.799   8.083  0.5860  0.4715  0.1570
  125OSM   C18S13360   5.492  -0.614   8.188  0.3720 -0.6028  0.0242
  125OSM   H18S13361   5.533  -0.565   8.278  0.5814 -0.6323 -0.0534
  125OSM   H18T13362   5.394  -0.656   8.218 -0.1714 -0.1716 -1.1281
  125OSM   H18U13363   5.480  -0.535   8.111  1.5213  0.4118  0.8701
  125OSM    C1F13364   5.838   0.081   6.692  1.1094 -0.2594 -0.0657
  125OSM     OF13365   5.725   0.124   6.729 -0.1145  0.5925 -0.4162
  125OSM    C2F13366   5.951   0.180   6.712 -0.1196  0.0825  0.7087
  125OSM    H2F13367   5.969   0.235   6.617  1.9080  1.8371  2.0446
  125OSM    H2G13368   6.042   0.122   6.739 -0.1704 -0.3153  0.0304
  125OSM    C3F13369   5.943   0.280   6.824 -0.2025 -0.5729  0.1386
  125OSM    H3F13370   5.838   0.317   6.826  0.2917  0.7913  1.7293
  125OSM    H3G13371   6.018   0.354   6.788 -2.0425  0.6129 -1.3558
  125OSM    C4F13372   5.977   0.240   6.972  0.0514  0.1346 -0.6512
  125OSM    H4F13373   6.054   0.160   6.980  0.0137 -0.1612 -2.8738
  125OSM    H4G13374   5.892   0.187   7.018  1.1624 -0.1917  1.0841
  125OSM    C5F13375   6.043   0.355   7.057 -0.4277  0.3057 -0.1544
  125OSM    H5F13376   5.967   0.435   7.050 -0.6670  0.3002  2.1778
  125OSM    H5G13377   6.132   0.387   6.999 -1.2345 -1.3695 -2.4104
  125OSM    C6F13378   6.076   0.306   7.196 -0.6964  0.3572  0.4908
  125OSM    H6F13379   6.158   0.231   7.197 -0.8856  0.1585  1.4302
  125OSM    H6G13380   5.988   0.246   7.227  0.3678 -1.3409  0.2692
  125OSM    C7F13381   6.099   0.417   7.296 -0.6330 -0.1053 -0.2210
  125OSM    H7F13382   6.004   0.473   7.312  0.0925  0.8958  0.5943
  125OSM    H7G13383   6.170   0.499   7.273 -2.7224  1.5216 -1.1088
  125OSM    C8F13384   6.137   0.357   7.433 -0.2496 -0.0294  0.1880
  125OSM    H8F13385   6.062   0.279   7.457 -0.7440  0.4293  0.1127
  125OSM    H8G13386   6.125   0.431   7.515 -1.9751 -0.5775  0.4505
  125OSM    C9F13387   6.277   0.302   7.428 -0.9550  0.3987 -0.1601
  125OSM    H9F13388   6.321   0.280   7.330  2.5324  0.9454  1.1828
  125OSM   C10F13389   6.362   0.284   7.533  0.1267  0.0058  0.7194
  125OSM   H10F13390   6.457   0.238   7.502 -0.0531  0.8684 -1.1893
  125OSM   C11F13391   6.318   0.318   7.673 -0.1259  0.2142 -0.3807
  125OSM   H11F13392   6.221   0.272   7.701 -1.0902  1.2791 -1.9027
  125OSM   H11G13393   6.317   0.429   7.682 -0.8454  0.1301  0.6256
  125OSM   C12F13394   6.440   0.278   7.753 -0.2346 -0.2323 -0.1059
  125OSM   H12F13395   6.529   0.334   7.719  0.5206 -0.8019  0.9194
  125OSM   H12G13396   6.446   0.167   7.749  1.4884 -0.1461 -0.2865
  125OSM   C13F13397   6.433   0.310   7.906  0.1707  0.2126 -0.4251
  125OSM   H13F13398   6.330   0.274   7.926  0.4687 -0.7442 -0.6098
  125OSM   H13G13399   6.434   0.421   7.909 -2.4875  0.2627 -0.1206
  125OSM   C14F13400   6.536   0.251   7.993 -0.2323 -0.0024  0.5394
  125OSM   H14F13401   6.634   0.289   7.956 -0.1202  1.6259  2.4400
  125OSM   H14G13402   6.535   0.141   7.981  3.4782  0.0947 -1.5104
  125OSM   C15F13403   6.532   0.293   8.137 -0.1474  0.2798  0.1878
  125OSM   H15F13404   6.629   0.270   8.188 -1.5697  0.9989  3.3578
  125OSM   H15G13405   6.452   0.230   8.180 -0.1188  0.5071  0.5806
  125OSM   C16F13406   6.501   0.442   8.161  0.4897  0.1203 -0.0654
  125OSM   H16F13407   6.399   0.466   8.123 -0.6262 -0.2363  2.6111
  125OSM   H16G13408   6.572   0.498   8.097  0.1271 -0.9924 -1.4722
  125OSM   C17F13409   6.499   0.477   8.307  0.2806  0.6318  0.3797
  125OSM   H17F13410   6.584   0.443   8.370  1.0148 -0.5506 -1.2113
  125OSM   H17G13411   6.418   0.415   8.352 -1.7554  3.5088  0.8551
  125OSM   C18F13412   6.453   0.618   8.339 -0.0297  0.0835 -0.1694
  125OSM   H18F13413   6.533   0.695   8.331 -0.6739  0.6228 -1.6100
  125OSM   H18G13414   6.404   0.624   8.438 -1.7808  0.6299 -1.0447
  125OSM   H18H13415   6.385   0.645   8.256  0.9754 -0.4967 -1.1970
  126OSM      N13416   3.197   5.232   6.487 -0.2530  0.7576 -0.2897
  126OSM    C1513417   3.082   5.321   6.456 -0.0069 -0.3066 -0.1485
  126OSM   H15A13418   3.112   5.422   6.479  0.6103 -0.7517  1.0238
  126OSM   H15B13419   2.992   5.292   6.506  1.9556 -2.9701  1.9667
  126OSM   H15C13420   3.064   5.310   6.350  1.4131  0.6831 -0.5155
  126OSM    C1413421   3.148   5.091   6.492  0.3384  0.0554 -0.8276
  126OSM   H14A13422   3.060   5.089   6.555  0.9267 -0.4469 -0.0171
  126OSM   H14B13423   3.225   5.026   6.531 -1.5382 -1.8318 -0.1207
  126OSM   H14C13424   3.129   5.064   6.390 -1.4127 -0.9518 -0.2578
  126OSM    C1313425   3.307   5.247   6.392  0.4170 -0.1884 -0.5084
  126OSM   H13A13426   3.355   5.343   6.393 -2.3651  1.2330 -0.6373
  126OSM   H13B13427   3.271   5.225   6.293 -3.8528 -0.4431  1.0034
  126OSM   H13C13428   3.391   5.182   6.414 -0.7835 -1.5662  0.0688
  126OSM    C1213429   3.242   5.262   6.633  0.4146 -0.1240 -0.4475
  126OSM   H12A13430   3.341   5.226   6.659 -0.5053 -0.2124  3.2386
  126OSM   H12B13431   3.180   5.200   6.696 -0.4853  0.0334 -1.1723
  126OSM    C1113432   3.240   5.408   6.685  0.4188 -1.0115 -0.3961
  126OSM   H11A13433   3.296   5.410   6.781 -4.4841  1.5746  2.6148
  126OSM   H11B13434   3.136   5.433   6.716  1.4809  0.3406  2.3138
  126OSM      P13435   3.241   5.655   6.609 -0.1317 -0.1744 -0.0130
  126OSM    O1313436   3.355   5.739   6.564  0.4486 -0.5168 -0.3090
  126OSM    O1413437   3.108   5.666   6.554 -0.1865  0.6370  0.5272
  126OSM    O1113438   3.236   5.668   6.769 -0.1085 -0.6751  0.0735
  126OSM    O1213439   3.288   5.507   6.594  0.5019 -0.3684 -0.0690
  126OSM    C1S13440   3.231   5.795   6.823 -0.1100 -0.5122 -0.5061
  126OSM    H1S13441   3.139   5.850   6.796  0.5486  0.3168 -1.0736
  126OSM    H1T13442   3.317   5.861   6.801 -0.5673  0.9697  1.9778
  126OSM     NF13443   3.216   5.912   7.036  0.2051 -0.0849  0.5407
  126OSM    HNF13444   3.293   5.963   7.073  0.7751 -0.1064 -0.5893
  126OSM    C2S13445   3.257   5.785   6.977  0.3471  0.6273  0.0107
  126OSM    H2S13446   3.189   5.707   7.017  0.4687  0.5539  0.0732
  126OSM    C3S13447   3.405   5.742   7.012 -0.4985 -0.3955 -0.9613
  126OSM    H3S13448   3.468   5.832   6.993 -0.7600  1.2272  4.9754
  126OSM     O313449   3.443   5.630   6.933  0.4499 -0.0425  0.0971
  126OSM    HO313450   3.370   5.624   6.871 -1.7120  0.6602  2.4881
  126OSM    C4S13451   3.414   5.702   7.157  0.5541 -0.1190 -0.3828
  126OSM    H4S13452   3.475   5.777   7.210  3.2184 -3.8797  2.1123
  126OSM    C5S13453   3.386   5.586   7.214 -0.2688  0.5153 -0.2787
  126OSM    H5S13454   3.346   5.509   7.146  0.9153 -0.0653 -0.3357
  126OSM    C6S13455   3.404   5.531   7.353 -0.6378  0.0852  0.1480
  126OSM    H6S13456   3.461   5.437   7.342  1.8100  1.6692 -1.3369
  126OSM    H6T13457   3.303   5.504   7.390  0.4723 -3.3018  0.8340
  126OSM    C7S13458   3.483   5.622   7.459 -0.1986 -0.7620 -0.3719
  126OSM    H7S13459   3.429   5.718   7.471 -0.6266 -0.7682 -2.1084
  126OSM    H7T13460   3.585   5.652   7.427  0.3614 -2.0323  0.1732
  126OSM    C8S13461   3.499   5.544   7.589 -0.3912  0.0819 -1.2901
  126OSM    H8S13462   3.526   5.438   7.568  1.5575  0.5111 -1.0185
  126OSM    H8T13463   3.399   5.532   7.638 -0.2326 -0.6444 -1.1324
  126OSM    C9S13464   3.604   5.613   7.691 -0.3182  0.3305 -0.3066
  126OSM    H9S13465   3.569   5.717   7.705  2.4787  1.1332  1.0114
  126OSM    H9T13466   3.708   5.616   7.652  0.9363 -0.2168  2.8425
  126OSM   C10S13467   3.595   5.537   7.820 -0.0769 -0.0129  0.4721
  126OSM   H10S13468   3.628   5.430   7.827 -0.0761 -0.0077  0.5465
  126OSM   H10T13469   3.491   5.542   7.857 -0.4263  0.7517 -0.6228
  126OSM   C11S13470   3.684   5.606   7.925  0.1221  0.8714  0.9580
  126OSM   H11S13471   3.669   5.715   7.940 -0.3910  1.2245 -1.8073
  126OSM   H11T13472   3.791   5.594   7.896  0.0416  1.5097  0.3759
  126OSM   C12S13473   3.662   5.539   8.062 -0.2300 -0.2211 -0.1688
  126OSM   H12S13474   3.696   5.433   8.055  3.0080  0.7405  0.2415
  126OSM   H12T13475   3.553   5.544   8.080 -0.5394 -0.4852 -1.8964
  126OSM   C13S13476   3.708   5.616   8.185 -0.4213 -0.2479  0.3596
  126OSM   H13S13477   3.661   5.716   8.184 -0.5778 -0.3208  0.4496
  126OSM   H13T13478   3.818   5.628   8.173 -0.2929 -0.9233  0.7960
  126OSM   C14S13479   3.666   5.550   8.316 -0.4106  0.4422 -1.0771
  126OSM   H14S13480   3.693   5.442   8.316  0.1084  0.5688 -1.4610
  126OSM   H14T13481   3.558   5.570   8.330 -1.0217 -3.4050  0.2614
  126OSM   C15S13482   3.750   5.619   8.426 -0.0503  0.1413  0.6797
  126OSM   H15S13483   3.766   5.723   8.392  1.4694 -0.5072 -0.6098
  126OSM   H15T13484   3.848   5.566   8.425 -0.5627 -0.8097 -0.7446
  126OSM   C16S13485   3.693   5.616   8.571 -0.0013  0.1940 -0.6943
  126OSM   H16S13486   3.772   5.647   8.642  1.0356 -2.6034 -0.5635
  126OSM   H16T13487   3.678   5.509   8.598 -1.2618  0.7268  0.7942
  126OSM   C17S13488   3.567   5.697   8.595  0.3590  0.0640  0.7095
  126OSM   H17S13489   3.495   5.673   8.514 -0.7722 -0.5153  1.8868
  126OSM   H17T13490   3.590   5.805   8.580 -0.0640 -0.1640 -1.8071
  126OSM   C18S13491   3.495   5.691   8.732 -0.8911  0.3041  0.4811
  126OSM   H18S13492   3.501   5.594   8.786  1.2153 -0.5391 -1.2171
  126OSM   H18T13493   3.389   5.723   8.717  0.0173  3.5223  0.5092
  126OSM   H18U13494   3.561   5.762   8.787  1.7986 -1.5619 -0.2415
  126OSM    C1F13495   3.095   5.963   7.037 -0.4450  0.2490 -0.1172
  126OSM     OF13496   2.997   5.892   7.012 -0.8576  0.1226  0.4238
  126OSM    C2F13497   3.078   6.105   7.063 -0.4397 -0.4376 -0.3216
  126OSM    H2F13498   3.084   6.155   6.964 -1.0682 -0.2310 -0.2543
  126OSM    H2G13499   3.161   6.140   7.127 -2.3152 -0.2905  2.0782
  126OSM    C3F13500   2.943   6.140   7.129  0.1532  0.5139  0.5675
  126OSM    H3F13501   2.861   6.111   7.059 -0.3511  1.2999  0.8220
  126OSM    H3G13502   2.924   6.248   7.146  0.1947  0.2139  2.6538
  126OSM    C4F13503   2.914   6.067   7.262  0.0258  0.0920 -0.0482
  126OSM    H4F13504   2.923   5.957   7.267 -2.3349 -0.1838 -1.2100
  126OSM    H4G13505   2.805   6.081   7.279 -0.0356 -0.5673  0.0981
  126OSM    C5F13506   2.975   6.142   7.377 -0.2075  0.0076  0.1558
  126OSM    H5F13507   2.912   6.231   7.397  0.0663  0.4876 -1.1004
  126OSM    H5G13508   3.078   6.166   7.340  0.3347 -1.1425  0.8855
  126OSM    C6F13509   2.978   6.060   7.508 -0.0924  0.6413  0.2454
  126OSM    H6F13510   3.060   5.985   7.504 -2.7710 -2.3030 -1.5065
  126OSM    H6G13511   2.887   5.999   7.524  0.3200 -0.9080 -2.8726
  126OSM    C7F13512   3.006   6.152   7.627 -0.2013  0.6333  0.5439
  126OSM    H7F13513   2.941   6.242   7.617  0.8337  1.5866  2.1540
  126OSM    H7G13514   3.112   6.183   7.618 -0.0706  0.2147  0.6408
  126OSM    C8F13515   2.987   6.100   7.775  0.1831  0.5748  0.7363
  126OSM    H8F13516   3.041   6.002   7.783 -1.8839 -0.5869  0.7203
  126OSM    H8G13517   2.880   6.076   7.792  0.3372 -0.9845 -0.2949
  126OSM    C9F13518   3.036   6.198   7.885 -0.6111 -0.6445  0.9875
  126OSM    H9F13519   2.987   6.296   7.878  2.0561  0.9814  4.1050
  126OSM   C10F13520   3.121   6.180   7.990  0.7319 -0.0169  0.1639
  126OSM   H10F13521   3.132   6.267   8.056 -2.6538  0.8866 -0.3322
  126OSM   C11F13522   3.186   6.056   8.032  1.1756  0.0695  0.1422
  126OSM   H11F13523   3.291   6.078   8.063  0.6608 -1.4195  3.0959
  126OSM   H11G13524   3.197   5.991   7.943  1.3212  0.0094  0.2038
  126OSM   C12F13525   3.109   5.976   8.141 -0.2973  0.4648 -0.3854
  126OSM   H12F13526   3.166   5.884   8.169 -1.0787  0.7928  2.4677
  126OSM   H12G13527   3.016   5.931   8.099  1.1214 -1.4674 -1.5691
  126OSM   C13F13528   3.090   6.044   8.271 -0.7041  0.1304  0.2306
  126OSM   H13F13529   3.052   5.970   8.345 -0.8949 -1.0371 -1.0150
  126OSM   H13G13530   3.021   6.131   8.267 -0.6118  0.1843 -0.2240
  126OSM   C14F13531   3.223   6.099   8.329 -0.7060 -0.2424  0.3356
  126OSM   H14F13532   3.281   6.160   8.256 -0.6444  0.3544  0.8802
  126OSM   H14G13533   3.296   6.019   8.355 -0.0355  0.1050 -0.4564
  126OSM   C15F13534   3.214   6.189   8.453  0.0276  0.2442 -0.0263
  126OSM   H15F13535   3.148   6.269   8.413 -2.7004 -2.8917 -2.0735
  126OSM   H15G13536   3.312   6.238   8.473 -0.4714  1.9338 -1.5522
  126OSM   C16F13537   3.158   6.136   8.581 -0.0945 -0.0807  0.0328
  126OSM   H16F13538   3.225   6.057   8.622 -0.2156  0.4514  1.2677
  126OSM   H16G13539   3.062   6.083   8.563 -0.7652  1.1429 -0.0396
  126OSM   C17F13540   3.144   6.242   8.689 -0.2704 -0.8200  0.0589
  126OSM   H17F13541   3.069   6.207   8.764 -2.0749  1.0054 -0.8622
  126OSM   H17G13542   3.109   6.338   8.647  1.3200 -0.9775 -1.7173
  126OSM   C18F13543   3.282   6.266   8.751 -0.3905 -0.9156  0.5179
  126OSM   H18F13544   3.264   6.296   8.857 -0.3784 -1.4732  0.6761
  126OSM   H18G13545   3.344   6.341   8.696 -0.1285 -2.3185 -1.1463
  126OSM   H18H13546   3.335   6.169   8.761  0.2269 -0.6880 -0.4900
  127OSM      N13547   4.278   4.013   5.918  0.1881  0.1490  0.1074
  127OSM    C1513548   4.201   3.965   5.793 -0.6513 -0.6588 -0.1319
  127OSM   H15A13549   4.099   3.971   5.826 -0.5650  0.3414 -0.0107
  127OSM   H15B13550   4.232   3.866   5.764  0.3986  0.6046 -3.5706
  127OSM   H15C13551   4.213   4.029   5.706 -0.0757  0.2750  0.6260
  127OSM    C1413552   4.420   4.061   5.876  0.0947  0.3573  0.1932
  127OSM   H14A13553   4.470   4.105   5.961 -0.2576 -1.8912  1.6258
  127OSM   H14B13554   4.416   4.133   5.796 -0.1566  1.5762  1.2879
  127OSM   H14C13555   4.481   3.979   5.844 -1.9290 -2.1769  2.5199
  127OSM    C1313556   4.206   4.132   5.967 -0.4112 -0.3539  0.0751
  127OSM   H13A13557   4.159   4.192   5.890 -0.3113 -0.1189  0.1973
  127OSM   H13B13558   4.266   4.192   6.033  0.2668 -2.0531  1.0424
  127OSM   H13C13559   4.128   4.104   6.037 -0.5833  0.8098  0.3623
  127OSM    C1213560   4.283   3.901   6.019 -0.1537  0.0450  0.4340
  127OSM   H12A13561   4.346   3.824   5.975  0.2551  1.1249 -0.9042
  127OSM   H12B13562   4.185   3.874   6.055 -1.0099  1.9019 -0.4684
  127OSM    C1113563   4.353   3.941   6.155  0.3395 -0.4246  0.1040
  127OSM   H11A13564   4.326   3.863   6.230 -1.8527  0.5252  0.3310
  127OSM   H11B13565   4.305   4.024   6.211  1.6691 -1.5102  2.9627
  127OSM      P13566   4.578   4.033   6.248  0.0992 -0.5731 -0.5016
  127OSM    O1313567   4.717   4.026   6.207 -0.3459 -0.1151  0.2410
  127OSM    O1413568   4.515   4.171   6.252 -0.3950  0.1755 -0.3845
  127OSM    O1113569   4.555   3.957   6.384  0.0949  0.6130 -0.8018
  127OSM    O1213570   4.494   3.944   6.147 -0.3352 -0.6101 -0.1505
  127OSM    C1S13571   4.596   4.013   6.507  0.2625  0.4194 -0.1470
  127OSM    H1S13572   4.531   4.102   6.522 -0.5742 -0.3188  0.6485
  127OSM    H1T13573   4.701   4.047   6.515  0.1774  1.1879 -2.0776
  127OSM     NF13574   4.609   3.965   6.751 -0.4306  0.1497  0.2667
  127OSM    HNF13575   4.705   3.965   6.779 -0.0039 -0.1149 -1.1492
  127OSM    C2S13576   4.580   3.906   6.624 -0.3038 -0.1118  0.2912
  127OSM    H2S13577   4.473   3.879   6.628  0.0519 -1.2741  2.9143
  127OSM    C3S13578   4.671   3.776   6.600 -0.4620  0.2986  0.3277
  127OSM    H3S13579   4.777   3.807   6.586  0.2754 -1.6576  1.4007
  127OSM     O313580   4.641   3.724   6.471 -0.0719 -0.6879  0.0852
  127OSM    HO313581   4.581   3.792   6.438 -0.2356 -1.3799 -1.0830
  127OSM    C4S13582   4.639   3.679   6.712 -0.2022 -0.3326 -0.0873
  127OSM    H4S13583   4.696   3.707   6.802 -0.8722 -0.7889  0.4793
  127OSM    C5S13584   4.536   3.595   6.713 -0.6754  0.1236 -0.4509
  127OSM    H5S13585   4.461   3.592   6.632 -1.9679  0.9569  0.6929
  127OSM    C6S13586   4.497   3.513   6.831 -0.0113  0.3288 -0.7021
  127OSM    H6S13587   4.502   3.403   6.814  1.3289 -0.1895  2.7410
  127OSM    H6T13588   4.387   3.529   6.840  0.2269  0.2881  2.9557
  127OSM    C7S13589   4.546   3.560   6.964  0.6390  0.0274  0.4337
  127OSM    H7S13590   4.526   3.668   6.979  0.0617 -0.3591  2.6333
  127OSM    H7T13591   4.656   3.553   6.976  0.9203  3.1715  0.0755
  127OSM    C8S13592   4.477   3.487   7.077  0.7477  0.8040  0.5960
  127OSM    H8S13593   4.498   3.379   7.065 -1.1693  0.0747  3.2997
  127OSM    H8T13594   4.369   3.512   7.071  0.5430 -0.1755  0.0096
  127OSM    C9S13595   4.518   3.513   7.223 -0.5697  0.4554 -0.0992
  127OSM    H9S13596   4.505   3.622   7.237 -2.9143  0.2021 -0.2366
  127OSM    H9T13597   4.626   3.485   7.224 -0.9927 -1.3011 -0.8088
  127OSM   C10S13598   4.443   3.427   7.327  0.0961  0.3541 -0.1176
  127OSM   H10S13599   4.444   3.320   7.297  0.4780 -0.4273  2.5359
  127OSM   H10T13600   4.335   3.453   7.316 -0.3189 -2.1922 -2.5836
  127OSM   C11S13601   4.493   3.460   7.475  0.9563 -0.3993  0.7787
  127OSM   H11S13602   4.465   3.567   7.488  0.5704 -0.4681  0.5335
  127OSM   H11T13603   4.604   3.457   7.475  0.9818  0.3072  1.7359
  127OSM   C12S13604   4.450   3.362   7.586  0.3945  0.7041 -0.0653
  127OSM   H12S13605   4.526   3.372   7.666  0.8709 -0.9215 -0.2924
  127OSM   H12T13606   4.449   3.264   7.533  1.5825  0.7735 -0.2218
  127OSM   C13S13607   4.316   3.393   7.651  0.5517 -0.7911 -0.2155
  127OSM   H13S13608   4.238   3.371   7.576  0.4886 -3.4464  0.6110
  127OSM   H13T13609   4.322   3.503   7.670  0.0859 -1.2830  2.9554
  127OSM   C14S13610   4.307   3.325   7.794 -0.2120 -0.7270 -0.8052
  127OSM   H14S13611   4.216   3.363   7.846 -0.2816 -2.9726  0.7905
  127OSM   H14T13612   4.395   3.353   7.855  0.5311 -0.7725 -1.8372
  127OSM   C15S13613   4.320   3.170   7.790  0.1634 -0.5827 -0.4219
  127OSM   H15S13614   4.412   3.128   7.746  0.5497 -0.8393  0.6013
  127OSM   H15T13615   4.233   3.136   7.730 -1.6627 -0.1353  1.8430
  127OSM   C16S13616   4.310   3.114   7.930  0.0194  0.1771 -1.3175
  127OSM   H16S13617   4.275   3.009   7.920  3.0883 -1.0630  0.1030
  127OSM   H16T13618   4.237   3.171   7.992 -0.2348 -0.7960 -0.7103
  127OSM   C17S13619   4.450   3.116   8.005 -0.0830  0.7153  0.1480
  127OSM   H17S13620   4.490   3.218   7.989 -0.0110  0.0709 -4.2757
  127OSM   H17T13621   4.526   3.057   7.950  1.6246  2.5188  0.5123
  127OSM   C18S13622   4.449   3.083   8.157 -0.1152  0.3741  0.2750
  127OSM   H18S13623   4.549   3.121   8.185 -0.1025  0.8305 -0.3678
  127OSM   H18T13624   4.435   2.975   8.178 -2.4556  1.0171  2.2756
  127OSM   H18U13625   4.373   3.148   8.206  1.6979  0.9731  2.3229
  127OSM    C1F13626   4.510   4.036   6.812 -0.0006 -0.1804  0.3842
  127OSM     OF13627   4.399   4.039   6.762  0.3993 -0.2194  0.2409
  127OSM    C2F13628   4.541   4.121   6.934  0.2522  0.0100 -0.0822
  127OSM    H2F13629   4.539   4.227   6.902 -1.1364  0.2551  0.8230
  127OSM    H2G13630   4.646   4.103   6.967  0.2916  1.9012  0.8608
  127OSM    C3F13631   4.452   4.102   7.054 -0.1092  0.5772 -0.8034
  127OSM    H3F13632   4.462   3.995   7.084 -1.5681 -0.0123 -2.2933
  127OSM    H3G13633   4.347   4.139   7.044  0.9147  4.3359  1.2750
  127OSM    C4F13634   4.509   4.179   7.177 -0.5291 -0.1070  0.7245
  127OSM    H4F13635   4.607   4.135   7.204 -0.2885 -0.9857 -1.5095
  127OSM    H4G13636   4.437   4.166   7.260 -2.3193  2.4080 -0.3562
  127OSM    C5F13637   4.519   4.328   7.153 -0.3942 -0.8959 -0.4496
  127OSM    H5F13638   4.424   4.386   7.153  0.8220  1.1855  1.1737
  127OSM    H5G13639   4.575   4.353   7.060 -2.8338 -0.9715 -1.9920
  127OSM    C6F13640   4.588   4.396   7.273 -0.4000  0.3710  0.2634
  127OSM    H6F13641   4.593   4.506   7.256  0.9606  0.0821 -1.2654
  127OSM    H6G13642   4.685   4.342   7.281 -1.6445 -2.4101 -2.5179
  127OSM    C7F13643   4.502   4.379   7.407 -0.3105  0.1551  0.3901
  127OSM    H7F13644   4.478   4.277   7.444 -0.6104  0.5398  1.2677
  127OSM    H7G13645   4.408   4.427   7.371 -0.5929 -0.8673 -0.2685
  127OSM    C8F13646   4.556   4.472   7.519  1.0135 -0.3436  0.1056
  127OSM    H8F13647   4.481   4.468   7.601 -1.0877 -1.8238 -1.8131
  127OSM    H8G13648   4.571   4.578   7.489 -1.7174  0.4131  1.2423
  127OSM    C9F13649   4.690   4.426   7.578  0.0115 -0.3222  0.7212
  127OSM    H9F13650   4.770   4.438   7.503 -1.4313  1.8638 -0.5197
  127OSM   C10F13651   4.717   4.383   7.696 -0.2130  0.0223 -0.7609
  127OSM   H10F13652   4.818   4.348   7.721  0.3003  1.8504 -0.1776
  127OSM   C11F13653   4.628   4.359   7.812 -0.1286 -0.9186  0.3725
  127OSM   H11F13654   4.602   4.251   7.813 -0.1814 -0.9105  2.8049
  127OSM   H11G13655   4.529   4.400   7.782 -1.0653 -2.8432  0.8122
  127OSM   C12F13656   4.690   4.418   7.940  0.8844  0.6675  0.0059
  127OSM   H12F13657   4.703   4.528   7.943  1.5475  0.5662  2.1974
  127OSM   H12G13658   4.789   4.375   7.965  0.2761 -1.8053 -1.6137
  127OSM   C13F13659   4.589   4.389   8.053  0.6958 -0.6808 -0.1517
  127OSM   H13F13660   4.589   4.278   8.049  2.6939 -0.7414  0.8247
  127OSM   H13G13661   4.487   4.425   8.028  0.4954 -0.1036  1.4737
  127OSM   C14F13662   4.617   4.439   8.193 -0.6834 -0.0964 -0.1989
  127OSM   H14F13663   4.631   4.549   8.186 -0.9003 -0.0371  0.3039
  127OSM   H14G13664   4.714   4.399   8.229  0.7969  2.0343 -1.7514
  127OSM   C15F13665   4.518   4.389   8.301 -0.0933  0.1318  0.2278
  127OSM   H15F13666   4.418   4.416   8.263  0.4196  0.8857 -0.5865
  127OSM   H15G13667   4.544   4.444   8.394  1.1318 -1.4407  0.8458
  127OSM   C16F13668   4.527   4.236   8.328  0.0783  0.2923  1.3850
  127OSM   H16F13669   4.533   4.194   8.226 -2.6199 -0.3935  1.4896
  127OSM   H16G13670   4.442   4.198   8.388 -0.5146  0.0708  0.4089
  127OSM   C17F13671   4.652   4.201   8.414  0.2850 -0.0515 -0.1493
  127OSM   H17F13672   4.744   4.216   8.354  0.4969  0.0405  0.1914
  127OSM   H17G13673   4.647   4.093   8.441  5.2816 -0.2808  0.3482
  127OSM   C18F13674   4.680   4.282   8.537  0.2460 -0.9504 -0.2899
  127OSM   H18F13675   4.599   4.288   8.613  0.9653  0.0304  0.4143
  127OSM   H18G13676   4.696   4.392   8.523 -0.8386 -0.3195  3.0397
  127OSM   H18H13677   4.770   4.241   8.587  0.3475  1.5348  1.6843
  128OSM      N13678   0.202   1.031   5.945 -0.0843 -0.9575  0.2066
  128OSM    C1513679   0.155   0.916   5.870 -0.0567 -0.2653  0.1260
  128OSM   H15A13680   0.125   0.945   5.770 -0.1576  0.1567  0.2797
  128OSM   H15B13681   0.084   0.853   5.922  0.0966 -1.6901 -1.3325
  128OSM   H15C13682   0.226   0.836   5.858 -0.7168 -0.9892  0.9321
  128OSM    C1413683   0.315   1.088   5.867 -0.9945 -1.1108  0.2772
  128OSM   H14A13684   0.301   1.071   5.762  0.5426  0.8843 -0.2627
  128OSM   H14B13685   0.405   1.030   5.876 -0.7101 -1.1133 -2.3194
  128OSM   H14C13686   0.344   1.190   5.886  0.1220 -1.5917  1.1819
  128OSM    C1313687   0.089   1.137   5.950  0.4875  0.4587  0.5376
  128OSM   H13A13688   0.001   1.094   5.995  0.6206 -1.2243 -0.7557
  128OSM   H13B13689   0.066   1.172   5.850 -1.2959 -0.0660  0.7395
  128OSM   H13C13690   0.115   1.226   6.005  3.1543 -0.7799  1.3498
  128OSM    C1213691   0.241   0.993   6.086 -0.7853  0.2598 -0.0583
  128OSM   H12A13692   0.272   1.084   6.134  1.1151  0.1528 -1.0261
  128OSM   H12B13693   0.334   0.938   6.086 -0.3637  0.8898 -2.7770
  128OSM    C1113694   0.143   0.921   6.180  0.0959  0.3695 -0.4187
  128OSM   H11A13695   0.042   0.967   6.177 -0.8432 -1.7048 -2.5910
  128OSM   H11B13696   0.183   0.929   6.283 -0.4265 -0.1151 -0.1739
  128OSM      P13697   0.253   0.688   6.170 -0.1751  0.2064 -0.0761
  128OSM    O1313698   0.205   0.552   6.145  0.2827  0.4445  0.5244
  128OSM    O1413699   0.374   0.726   6.096 -0.3829  0.6575 -0.3381
  128OSM    O1113700   0.288   0.707   6.326 -0.2722  0.1729 -0.7147
  128OSM    O1213701   0.135   0.786   6.135 -0.3360  0.2073 -0.0748
  128OSM    C1S13702   0.193   0.657   6.415  0.8052 -0.5785 -0.0647
  128OSM    H1S13703   0.188   0.546   6.404 -1.0713 -0.7473  1.9955
  128OSM    H1T13704   0.087   0.684   6.392  1.4221 -0.9150 -3.5038
  128OSM     NF13705   0.181   0.604   6.651  0.0392  0.0701 -0.2525
  128OSM    HNF13706   0.123   0.663   6.706 -1.2394 -0.3160 -1.1730
  128OSM    C2S13707   0.249   0.686   6.558  0.5923  0.1320 -0.0025
  128OSM    H2S13708   0.356   0.657   6.556  0.3590 -0.8615  1.2353
  128OSM    C3S13709   0.246   0.842   6.587 -0.6036  0.4003  0.0653
  128OSM    H3S13710   0.141   0.877   6.591 -1.0082 -0.8116  0.2535
  128OSM     O313711   0.306   0.922   6.484  0.2358 -0.4342  0.2424
  128OSM    HO313712   0.319   0.870   6.404  0.6650  0.8230 -0.5289
  128OSM    C4S13713   0.319   0.885   6.707  0.3279 -0.1209  0.5787
  128OSM    H4S13714   0.421   0.847   6.722  0.7598  0.6303 -0.3628
  128OSM    C5S13715   0.274   0.959   6.811 -0.0676  0.0859 -0.7061
  128OSM    H5S13716   0.166   0.977   6.813 -0.4838 -2.3262  1.9253
  128OSM    C6S13717   0.330   1.005   6.942 -0.0634  0.2363  0.0721
  128OSM    H6S13718   0.295   1.109   6.962 -2.4744 -1.0908  3.0527
  128OSM    H6T13719   0.441   1.014   6.944  0.1198 -1.9485  0.2016
  128OSM    C7S13720   0.282   0.924   7.061  0.3240  0.1033 -0.2897
  128OSM    H7S13721   0.321   0.821   7.045  0.5190 -0.1631  1.7249
  128OSM    H7T13722   0.172   0.934   7.061  0.3020 -0.1064 -0.5726
  128OSM    C8S13723   0.331   0.975   7.197 -0.0284  0.1159 -0.2841
  128OSM    H8S13724   0.347   1.084   7.190 -0.5615  0.2709  0.8095
  128OSM    H8T13725   0.428   0.926   7.221 -1.2775 -2.9409 -1.2457
  128OSM    C9S13726   0.244   0.926   7.310  0.9075 -0.1609 -0.0265
  128OSM    H9S13727   0.233   0.816   7.309  0.5710 -0.1395 -2.7914
  128OSM    H9T13728   0.140   0.963   7.297  1.1098  1.2696  2.0687
  128OSM   C10S13729   0.290   0.965   7.452 -0.4081  0.4343  0.7677
  128OSM   H10S13730   0.301   1.075   7.463  1.6204  0.2894  0.3005
  128OSM   H10T13731   0.382   0.906   7.471 -2.2255 -2.9907 -0.7374
  128OSM   C11S13732   0.194   0.932   7.563 -0.3803  0.3108  0.3718
  128OSM   H11S13733   0.166   0.826   7.545 -1.2488  0.5428  0.3125
  128OSM   H11T13734   0.098   0.983   7.541  1.0884  1.9332 -2.5310
  128OSM   C12S13735   0.242   0.975   7.700 -0.2966  0.4499 -0.3727
  128OSM   H12S13736   0.273   1.081   7.688 -0.4691  0.5783  0.2773
  128OSM   H12T13737   0.325   0.911   7.737  0.1577  1.5953  0.6392
  128OSM   C13S13738   0.131   0.957   7.805  0.3852  0.2317  0.1339
  128OSM   H13S13739   0.090   0.854   7.802 -1.2320  0.8792 -0.4105
  128OSM   H13T13740   0.050   1.024   7.770 -1.2707 -0.5875  2.3345
  128OSM   C14S13741   0.170   0.983   7.949  0.0549  0.5115 -0.3321
  128OSM   H14S13742   0.216   1.084   7.959  0.9409  0.1902 -1.1450
  128OSM   H14T13743   0.250   0.915   7.985 -0.0558 -1.0130 -2.8876
  128OSM   C15S13744   0.048   0.959   8.037  0.5112  0.0583 -0.5481
  128OSM   H15S13745   0.024   0.853   8.015 -0.9467  0.0704  0.8958
  128OSM   H15T13746  -0.034   1.024   8.002 -0.5803 -1.6311 -1.1915
  128OSM   C16S13747   0.069   0.978   8.184  0.2607  0.0755  0.9005
  128OSM   H16S13748   0.112   1.078   8.204  0.1982  1.0056 -3.2321
  128OSM   H16T13749   0.148   0.905   8.215  1.4505  0.6585 -0.7362
  128OSM   C17S13750  -0.059   0.952   8.265  0.0288 -0.6993  0.8765
  128OSM   H17S13751  -0.076   0.843   8.249  1.0322 -0.5015 -1.8931
  128OSM   H17T13752  -0.143   0.992   8.205 -0.7646 -0.3503  2.1954
  128OSM   C18S13753  -0.050   0.993   8.411 -0.2609 -0.3025 -0.4395
  128OSM   H18S13754  -0.145   0.974   8.465 -0.0711 -0.4162 -0.1426
  128OSM   H18T13755  -0.023   1.097   8.439 -2.2477  0.9710 -3.0072
  128OSM   H18U13756   0.034   0.942   8.463  0.7443 -0.0799 -1.8310
  128OSM    C1F13757   0.186   0.468   6.647 -0.6503 -0.2165 -0.1864
  128OSM     OF13758   0.288   0.414   6.601  0.5837  0.5185  0.4622
  128OSM    C2F13759   0.074   0.401   6.711  0.4993  0.1446  0.0296
  128OSM    H2F13760  -0.018   0.458   6.687  0.9696  1.1786  0.6249
  128OSM    H2G13761   0.080   0.402   6.822 -0.1500 -1.1167  0.0827
  128OSM    C3F13762   0.049   0.258   6.668  0.2067 -0.3666 -0.6783
  128OSM    H3F13763   0.133   0.194   6.703 -0.7306 -0.2536  1.9322
  128OSM    H3G13764   0.039   0.254   6.558  0.8398  1.1036 -0.7927
  128OSM    C4F13765  -0.068   0.196   6.751  0.0877 -0.2886  0.1834
  128OSM    H4F13766  -0.163   0.250   6.731 -0.0666 -0.5764  0.1356
  128OSM    H4G13767  -0.049   0.199   6.860  2.2996  1.2855 -0.2341
  128OSM    C5F13768  -0.094   0.053   6.704  0.0972 -0.4345 -0.6349
  128OSM    H5F13769  -0.106   0.059   6.593 -3.2529 -1.4993 -0.3863
  128OSM    H5G13770  -0.198   0.032   6.739  0.3891  1.5628  1.5004
  128OSM    C6F13771   0.003  -0.059   6.745 -0.1349  0.4129 -0.6366
  128OSM    H6F13772   0.103  -0.042   6.700 -0.0963 -1.0613 -1.1313
  128OSM    H6G13773  -0.037  -0.156   6.710  0.8193 -0.4587  0.6782
  128OSM    C7F13774   0.026  -0.062   6.893 -0.7546 -0.0827 -0.1160
  128OSM    H7F13775  -0.073  -0.078   6.940  0.1457 -1.0779  1.4864
  128OSM    H7G13776   0.059   0.036   6.933  3.2406 -1.4493  0.1908
  128OSM    C8F13777   0.119  -0.179   6.952  0.6340  0.1599  0.3091
  128OSM    H8F13778   0.089  -0.274   6.905 -0.2551 -0.2755  1.7246
  128OSM    H8G13779   0.091  -0.192   7.059 -1.8872  0.4996 -0.2617
  128OSM    C9F13780   0.265  -0.155   6.922  0.3868  0.0321  0.0562
  128OSM    H9F13781   0.290  -0.137   6.817 -2.3211 -1.1264 -0.8263
  128OSM   C10F13782   0.362  -0.143   7.016  1.0301 -0.2690  0.2038
  128OSM   H10F13783   0.462  -0.120   6.976  1.7648 -3.4937  0.0421
  128OSM   C11F13784   0.357  -0.152   7.167 -0.7885 -0.8161  0.0389
  128OSM   H11F13785   0.289  -0.070   7.198 -0.4513 -0.6591  0.3631
  128OSM   H11G13786   0.454  -0.108   7.199 -1.1995  1.3278 -1.5342
  128OSM   C12F13787   0.337  -0.286   7.218  0.0744 -0.3705  0.3604
  128OSM   H12F13788   0.372  -0.364   7.147 -2.7649  0.8685 -2.5044
  128OSM   H12G13789   0.228  -0.302   7.232  0.4993 -2.6454  1.4960
  128OSM   C13F13790   0.398  -0.314   7.359 -0.7055  0.0859  0.9705
  128OSM   H13F13791   0.352  -0.250   7.437  0.8869 -0.6850  2.5823
  128OSM   H13G13792   0.501  -0.276   7.343 -0.5552 -0.5228  0.4537
  128OSM   C14F13793   0.394  -0.464   7.401  1.1475  0.9839 -0.2645
  128OSM   H14F13794   0.451  -0.517   7.322  0.6178 -0.9343  0.6123
  128OSM   H14G13795   0.295  -0.509   7.378  1.2797  0.8557 -0.5821
  128OSM   C15F13796   0.465  -0.484   7.537 -0.6302 -0.6319 -0.4168
  128OSM   H15F13797   0.565  -0.437   7.534 -0.8596 -0.1963 -1.4650
  128OSM   H15G13798   0.484  -0.590   7.562 -0.8531 -0.7768 -0.8599
  128OSM   C16F13799   0.386  -0.414   7.646 -0.4286 -0.2756 -0.2285
  128OSM   H16F13800   0.278  -0.423   7.622 -0.4283  0.8466 -0.6888
  128OSM   H16G13801   0.410  -0.306   7.641  1.3981 -0.6284  0.6043
  128OSM   C17F13802   0.402  -0.479   7.781  0.1820  0.2554  0.2387
  128OSM   H17F13803   0.349  -0.577   7.776  0.4138  0.1998 -1.5144
  128OSM   H17G13804   0.356  -0.406   7.850 -1.4011 -1.4581  1.0639
  128OSM   C18F13805   0.533  -0.511   7.833 -0.0211  0.2363  0.5412
  128OSM   H18F13806   0.522  -0.554   7.935 -0.2490  1.9609  1.2616
  128OSM   H18G13807   0.594  -0.418   7.842 -0.3344  0.3503  1.5142
  128OSM   H18H13808   0.587  -0.584   7.769  0.7054  1.2860 -0.0740
  129OSM      N13809   3.562   3.935   6.317 -0.2847  0.7866  0.3822
  129OSM    C1513810   3.471   3.837   6.242 -0.4127 -0.4846  0.6988
  129OSM   H15A13811   3.432   3.767   6.314  1.9389 -1.7313  0.8211
  129OSM   H15B13812   3.521   3.784   6.163 -0.0823 -2.5697  2.2633
  129OSM   H15C13813   3.388   3.896   6.205  0.5732 -0.1609 -1.0798
  129OSM    C1413814   3.630   4.032   6.227 -0.1052 -0.1642  0.4020
  129OSM   H14A13815   3.550   4.084   6.175  1.4221  1.0979 -0.7334
  129OSM   H14B13816   3.685   3.986   6.147  0.4302 -2.8582  2.2518
  129OSM   H14C13817   3.695   4.106   6.271  1.2751  0.2440 -2.2229
  129OSM    C1313818   3.471   4.012   6.411  0.3881  0.4436 -0.9404
  129OSM   H13A13819   3.444   3.949   6.494 -0.0273  0.7123 -0.8706
  129OSM   H13B13820   3.385   4.051   6.358  0.9575  0.8794 -1.5622
  129OSM   H13C13821   3.531   4.098   6.435  1.7447 -0.7610  0.0783
  129OSM    C1213822   3.669   3.848   6.390  0.1715  0.1818  0.6017
  129OSM   H12A13823   3.624   3.782   6.464  2.8221  0.3148  2.4205
  129OSM   H12B13824   3.731   3.906   6.456  3.1617 -1.5608 -0.5550
  129OSM    C1113825   3.753   3.745   6.312  0.0310 -0.1584 -0.2027
  129OSM   H11A13826   3.684   3.688   6.247  0.0801 -0.7518  0.2688
  129OSM   H11B13827   3.814   3.665   6.360 -1.6118 -0.4770  1.3917
  129OSM      P13828   3.977   3.864   6.242 -0.3763  0.5244 -0.1910
  129OSM    O1313829   4.067   3.749   6.222  0.2452 -0.5213  0.2072
  129OSM    O1413830   3.990   3.990   6.162 -0.5909 -0.2713 -0.0553
  129OSM    O1113831   3.968   3.894   6.393  0.7332  0.7342  0.2194
  129OSM    O1213832   3.833   3.806   6.213  0.6667 -0.6665  0.3151
  129OSM    C1S13833   4.061   3.985   6.453  0.5882 -0.4572 -0.4673
  129OSM    H1S13834   4.012   4.083   6.435 -0.4722 -0.5614  1.7094
  129OSM    H1T13835   4.162   3.986   6.407  0.8261 -0.1601  0.0542
  129OSM     NF13836   4.147   4.086   6.655 -0.2594 -0.0493  0.0876
  129OSM    HNF13837   4.231   4.066   6.705  0.5903 -1.6853 -1.9264
  129OSM    C2S13838   4.071   3.974   6.605  0.4767 -0.0052 -0.1988
  129OSM    H2S13839   3.966   3.973   6.642  1.4435 -0.1208  2.5835
  129OSM    C3S13840   4.126   3.842   6.652  0.2287 -0.2350 -0.1677
  129OSM    H3S13841   4.231   3.836   6.615 -0.0322  1.0384 -1.1568
  129OSM     O313842   4.055   3.739   6.591 -0.3136  0.2318  0.3340
  129OSM    HO313843   4.000   3.785   6.526  1.2479 -0.4794 -1.5171
  129OSM    C4S13844   4.121   3.829   6.806 -0.5888 -0.7858 -0.1184
  129OSM    H4S13845   4.223   3.828   6.846 -0.0897  0.3524 -1.3175
  129OSM    C5S13846   4.020   3.808   6.896 -0.7826 -0.0830 -0.2820
  129OSM    H5S13847   3.922   3.791   6.850 -1.3446  2.9986 -0.3411
  129OSM    C6S13848   4.033   3.805   7.044 -0.6486  0.4257 -0.4479
  129OSM    H6S13849   4.000   3.703   7.074  0.5874  0.4136  0.9329
  129OSM    H6T13850   3.962   3.878   7.088 -2.1396 -2.0481  1.4070
  129OSM    C7S13851   4.175   3.841   7.097 -0.0168 -0.3864  0.4514
  129OSM    H7S13852   4.198   3.948   7.077  1.9341 -1.1843 -1.9132
  129OSM    H7T13853   4.253   3.781   7.046 -0.6336 -0.1498 -0.8057
  129OSM    C8S13854   4.190   3.825   7.250  0.5830 -0.0155 -0.5212
  129OSM    H8S13855   4.175   3.715   7.256  4.0164 -0.6504 -2.2359
  129OSM    H8T13856   4.105   3.864   7.310  1.6398 -1.3489  1.9114
  129OSM    C9S13857   4.325   3.868   7.304 -0.1801  0.5896  0.1111
  129OSM    H9S13858   4.348   3.976   7.295 -0.9171  0.9601  2.3930
  129OSM    H9T13859   4.396   3.801   7.251 -0.3018 -0.3328  1.0963
  129OSM   C10S13860   4.339   3.838   7.457  0.1307 -0.7405  0.2608
  129OSM   H10S13861   4.316   3.730   7.461 -0.8574 -0.5174  0.9545
  129OSM   H10T13862   4.260   3.897   7.510  2.2960  1.0166  1.6544
  129OSM   C11S13863   4.485   3.858   7.507 -0.2677 -0.8537  0.2374
  129OSM   H11S13864   4.524   3.947   7.452  0.2479 -1.3956 -0.2802
  129OSM   H11T13865   4.551   3.775   7.475  1.1006  0.3307 -0.0540
  129OSM   C12S13866   4.504   3.866   7.661  0.5751 -0.1348 -0.1192
  129OSM   H12S13867   4.612   3.883   7.680  0.5023 -0.6399  0.7615
  129OSM   H12T13868   4.485   3.770   7.714  1.6567  0.2144  0.9278
  129OSM   C13S13869   4.426   3.980   7.729 -0.0417  0.2225  0.1922
  129OSM   H13S13870   4.316   3.971   7.716 -0.0595 -1.5347  1.3336
  129OSM   H13T13871   4.460   4.079   7.692  1.3729 -0.6063 -0.7934
  129OSM   C14S13872   4.457   3.986   7.882 -0.4320 -0.2625 -0.7616
  129OSM   H14S13873   4.399   4.077   7.908 -0.9253 -0.0724 -2.4912
  129OSM   H14T13874   4.565   3.998   7.903 -0.3603 -2.2940  0.0847
  129OSM   C15S13875   4.393   3.877   7.967  0.4791 -0.1730 -0.4433
  129OSM   H15S13876   4.445   3.783   7.938 -0.8981 -0.9265 -0.5074
  129OSM   H15T13877   4.286   3.875   7.936 -0.4256  1.8498  2.2478
  129OSM   C16S13878   4.419   3.901   8.114  0.7493  0.2029  0.0942
  129OSM   H16S13879   4.402   4.011   8.115  0.1040  0.1023  1.3546
  129OSM   H16T13880   4.526   3.884   8.140  1.0357  1.4430 -0.2570
  129OSM   C17S13881   4.317   3.843   8.202  0.0335  0.3962 -0.3958
  129OSM   H17S13882   4.298   3.738   8.169 -1.5373  0.5608 -0.0409
  129OSM   H17T13883   4.222   3.898   8.185 -0.2274  0.0131 -0.1951
  129OSM   C18S13884   4.344   3.846   8.352 -0.4895 -0.4457  0.0044
  129OSM   H18S13885   4.251   3.809   8.401 -0.3117 -0.2255  0.5069
  129OSM   H18T13886   4.374   3.949   8.381 -2.1371 -0.1458  0.6974
  129OSM   H18U13887   4.427   3.774   8.369  0.1559  0.5973  1.3500
  129OSM    C1F13888   4.109   4.209   6.637  0.5112 -0.0934  0.1736
  129OSM     OF13889   3.997   4.239   6.604 -0.8221 -0.0212  0.3619
  129OSM    C2F13890   4.220   4.311   6.648  0.0385 -0.2755 -0.3054
  129OSM    H2F13891   4.216   4.396   6.576 -3.0254  0.7188  0.9638
  129OSM    H2G13892   4.316   4.262   6.619  0.7577  2.1194 -2.1467
  129OSM    C3F13893   4.244   4.360   6.794  0.3139 -0.3223 -0.3327
  129OSM    H3F13894   4.351   4.383   6.812  1.1251 -2.9284 -1.6884
  129OSM    H3G13895   4.219   4.284   6.871  0.3759 -0.2237 -0.2154
  129OSM    C4F13896   4.160   4.482   6.831 -0.1014 -0.2745 -0.2735
  129OSM    H4F13897   4.057   4.467   6.792 -0.7853 -0.2119  1.4799
  129OSM    H4G13898   4.197   4.566   6.768  0.3074  0.6154  1.1192
  129OSM    C5F13899   4.157   4.496   6.984 -0.2709 -0.0902  0.8358
  129OSM    H5F13900   4.255   4.465   7.027  1.4007  0.6344 -2.3102
  129OSM    H5G13901   4.098   4.411   7.023  0.3882 -0.8855  0.1222
  129OSM    C6F13902   4.110   4.629   7.041 -0.0364  0.0605  0.3495
  129OSM    H6F13903   4.015   4.642   6.985  1.0533  0.9362 -1.3618
  129OSM    H6G13904   4.171   4.710   6.996 -0.5686  0.1905 -0.1474
  129OSM    C7F13905   4.107   4.628   7.187  0.1353 -0.4739 -0.2289
  129OSM    H7F13906   4.057   4.535   7.221  2.1625 -2.0233 -1.3506
  129OSM    H7G13907   4.042   4.710   7.224 -0.5928 -1.3320  0.4311
  129OSM    C8F13908   4.243   4.640   7.262 -0.2510  0.2616  0.0982
  129OSM    H8F13909   4.317   4.570   7.219 -0.6394 -0.9216  1.3270
  129OSM    H8G13910   4.232   4.597   7.364  0.1460  0.8737  0.4013
  129OSM    C9F13911   4.308   4.777   7.275 -0.3313  0.2977 -0.1511
  129OSM    H9F13912   4.350   4.822   7.183 -0.8142  3.4706  1.1433
  129OSM   C10F13913   4.302   4.842   7.396 -0.1400 -0.6032  0.8195
  129OSM   H10F13914   4.337   4.946   7.407 -0.1778 -0.7609  2.5944
  129OSM   C11F13915   4.228   4.799   7.516  0.3068  0.4445  0.3715
  129OSM   H11F13916   4.183   4.698   7.516  0.6960  0.2523  2.1503
  129OSM   H11G13917   4.146   4.871   7.536 -0.9926  0.1277 -3.4657
  129OSM   C12F13918   4.321   4.792   7.636 -0.5449 -0.2740  0.2705
  129OSM   H12F13919   4.355   4.896   7.655 -0.1022 -0.2333 -0.7252
  129OSM   H12G13920   4.422   4.749   7.619  0.3984  1.3523  1.6105
  129OSM   C13F13921   4.240   4.738   7.756 -0.0293 -0.0931 -0.2444
  129OSM   H13F13922   4.250   4.627   7.758  0.5799 -0.0143  2.2007
  129OSM   H13G13923   4.133   4.764   7.745  0.4014  0.7704 -2.9010
  129OSM   C14F13924   4.311   4.786   7.881  0.3408 -0.0733 -0.3001
  129OSM   H14F13925   4.285   4.894   7.893 -0.8208 -0.2478 -1.0647
  129OSM   H14G13926   4.420   4.767   7.882  0.8836  2.1845 -4.3871
  129OSM   C15F13927   4.257   4.710   7.999  0.4675  0.1767  0.0933
  129OSM   H15F13928   4.250   4.602   7.972 -0.5066  0.0688  0.7559
  129OSM   H15G13929   4.151   4.726   8.029  0.4814  1.4509 -0.5167
  129OSM   C16F13930   4.361   4.696   8.117 -0.1277 -0.1029  0.3353
  129OSM   H16F13931   4.448   4.638   8.079  0.2104  0.4020  0.3344
  129OSM   H16G13932   4.303   4.643   8.195  0.5705 -1.3482  0.0297
  129OSM   C17F13933   4.409   4.829   8.176 -0.5530  0.3953 -0.7317
  129OSM   H17F13934   4.454   4.886   8.092 -1.2222  0.1967 -1.2267
  129OSM   H17G13935   4.492   4.810   8.247  0.0330 -0.2274 -1.5674
  129OSM   C18F13936   4.299   4.914   8.229 -0.2772  0.8829 -0.0811
  129OSM   H18F13937   4.228   4.942   8.148  0.7906 -2.3453 -2.2310
  129OSM   H18G13938   4.352   5.008   8.255  0.4133  0.4248  0.1635
  129OSM   H18H13939   4.247   4.869   8.316 -1.3382  1.7253 -0.2632
  130OSM      N13940   6.691   5.869   6.054 -0.3078 -0.2691 -0.2567
  130OSM    C1513941   6.783   5.869   5.937 -0.2170 -0.4841  1.1966
  130OSM   H15A13942   6.814   5.772   5.902 -0.1486  0.5803 -1.8052
  130OSM   H15B13943   6.876   5.920   5.956 -0.5490  1.0958 -1.1815
  130OSM   H15C13944   6.743   5.901   5.842  2.1630 -0.3236  0.2167
  130OSM    C1413945   6.551   5.860   6.006 -0.8868  0.3994 -0.7814
  130OSM   H14A13946   6.485   5.827   6.085 -0.2770 -2.0958 -1.2575
  130OSM   H14B13947   6.547   5.775   5.939 -0.0895 -0.1117 -0.1934
  130OSM   H14C13948   6.517   5.953   5.963 -1.1628  1.4730  1.6754
  130OSM    C1313949   6.695   5.749   6.142  0.0013  0.5229  0.2354
  130OSM   H13A13950   6.789   5.739   6.194 -0.9925 -1.0573  1.7744
  130OSM   H13B13951   6.683   5.657   6.087 -0.5934  0.9471 -0.3521
  130OSM   H13C13952   6.613   5.737   6.211 -0.6270  0.9570 -0.4202
  130OSM    C1213953   6.705   5.992   6.146  0.6038 -0.1089 -0.8871
  130OSM   H12A13954   6.642   5.984   6.234  1.1888 -0.2131 -0.4765
  130OSM   H12B13955   6.658   6.078   6.101  0.7473  1.6566  2.1886
  130OSM    C1113956   6.849   6.015   6.198 -0.6529 -0.5959 -0.1237
  130OSM   H11A13957   6.905   5.921   6.212  0.8824  0.3220  0.0495
  130OSM   H11B13958   6.842   6.060   6.299  0.2823 -1.0333  0.1379
  130OSM      P13959   7.069   6.135   6.123  0.6660  0.1603  0.2783
  130OSM    O1313960   7.142   6.076   6.008  0.4204  0.1055  0.5453
  130OSM    O1413961   7.063   6.284   6.130  0.2840  0.2145  0.4082
  130OSM    O1113962   7.125   6.079   6.259  0.7145  0.3408  0.2189
  130OSM    O1213963   6.919   6.092   6.103 -0.7225 -0.4907 -0.0511
  130OSM    C1S13964   7.108   6.159   6.372 -1.0292 -0.6083 -0.0498
  130OSM    H1S13965   7.004   6.200   6.378 -1.5956 -2.0293  0.0138
  130OSM    H1T13966   7.183   6.241   6.377 -3.1284  1.2510  2.4915
  130OSM     NF13967   7.060   6.152   6.611 -0.0011 -0.1129  0.7601
  130OSM    HNF13968   7.126   6.172   6.683  0.1142 -0.2397  0.6899
  130OSM    C2S13969   7.113   6.076   6.499 -0.3587  0.1734  0.5044
  130OSM    H2S13970   7.040   5.992   6.489  0.4972 -0.4586 -0.4883
  130OSM    C3S13971   7.260   6.022   6.515 -0.5989 -0.8668 -0.2430
  130OSM    H3S13972   7.330   6.108   6.525  1.1046 -2.4093  1.4269
  130OSM     O313973   7.306   5.944   6.408 -1.1493  0.4623 -0.4528
  130OSM    HO313974   7.234   5.952   6.345 -0.7013 -0.3980 -1.0892
  130OSM    C4S13975   7.260   5.934   6.632 -0.5559  0.7317 -0.3205
  130OSM    H4S13976   7.197   5.843   6.632 -0.4148  0.6308 -1.7489
  130OSM    C5S13977   7.352   5.943   6.731 -0.3704  0.4986 -0.4332
  130OSM    H5S13978   7.440   6.008   6.720  0.5076 -0.7379 -0.7406
  130OSM    C6S13979   7.346   5.849   6.842  0.2824  0.1561  0.2672
  130OSM    H6S13980   7.423   5.770   6.831  0.4139  0.5414 -1.8817
  130OSM    H6T13981   7.249   5.794   6.842  0.2019  0.2852 -0.3980
  130OSM    C7S13982   7.361   5.916   6.975  0.6340  0.1203  0.3209
  130OSM    H7S13983   7.285   5.996   6.980  2.6083  2.0287  0.4691
  130OSM    H7T13984   7.466   5.951   6.985 -0.3874  2.5012  3.4246
  130OSM    C8S13985   7.330   5.819   7.091  0.2105 -0.8843  0.0730
  130OSM    H8S13986   7.419   5.754   7.085  0.2534 -0.7450 -0.8810
  130OSM    H8T13987   7.247   5.747   7.075 -0.4697 -0.5919  2.1217
  130OSM    C9S13988   7.324   5.887   7.232  0.2413  0.1071  0.0981
  130OSM    H9S13989   7.231   5.949   7.233  1.1064  1.4082  0.3289
  130OSM    H9T13990   7.410   5.955   7.248 -0.8487  2.0479 -1.8559
  130OSM   C10S13991   7.322   5.781   7.338  0.0022  0.0863  0.5449
  130OSM   H10S13992   7.414   5.721   7.319 -0.7777  0.3126 -4.8774
  130OSM   H10T13993   7.235   5.713   7.329  0.5023 -1.0414  3.7006
  130OSM   C11S13994   7.317   5.846   7.474 -0.0687  0.1247 -0.1271
  130OSM   H11S13995   7.261   5.942   7.472  1.2028  0.8832  0.2294
  130OSM   H11T13996   7.415   5.888   7.504  0.0567 -0.3637  0.1487
  130OSM   C12S13997   7.277   5.754   7.587 -0.1712 -0.6765 -0.2531
  130OSM   H12S13998   7.349   5.670   7.601 -2.7138 -3.0567 -0.9982
  130OSM   H12T13999   7.183   5.708   7.548  1.1139 -2.5464 -1.2494
  130OSM   C13S14000   7.248   5.827   7.716  0.1367  0.1739  0.2005
  130OSM   H13S14001   7.162   5.898   7.708 -0.2044 -0.3852 -1.2416
  130OSM   H13T14002   7.334   5.891   7.744 -0.5229  0.8107  0.7984
  130OSM   C14S14003   7.238   5.731   7.835 -0.0172 -0.2701 -0.0256
  130OSM   H14S14004   7.338   5.689   7.863 -1.0015 -1.8335  1.2157
  130OSM   H14T14005   7.181   5.643   7.797  0.2209 -1.3691  2.0831
  130OSM   C15S14006   7.196   5.807   7.965 -0.1879  0.4009 -0.2849
  130OSM   H15S14007   7.176   5.729   8.042 -1.5795  1.4914  0.4773
  130OSM   H15T14008   7.097   5.853   7.949 -0.0747  0.3190 -1.2572
  130OSM   C16S14009   7.292   5.912   8.005 -1.0434  0.0812 -0.2719
  130OSM   H16S14010   7.321   5.980   7.921  0.0894 -2.1682 -1.7365
  130OSM   H16T14011   7.388   5.868   8.038 -0.4467  0.7503 -1.0923
  130OSM   C17S14012   7.247   6.008   8.123 -0.5390 -0.5915 -0.4241
  130OSM   H17S14013   7.326   6.086   8.124  1.8349 -2.7875 -3.6144
  130OSM   H17T14014   7.247   5.965   8.225 -2.0649 -2.2005 -1.0716
  130OSM   C18S14015   7.113   6.073   8.098  0.6712 -0.4983  0.0257
  130OSM   H18S14016   7.094   6.092   7.990  0.3282 -0.6399  0.0596
  130OSM   H18T14017   7.098   6.173   8.143  1.4481 -0.2229 -0.3142
  130OSM   H18U14018   7.038   6.001   8.138 -1.3917  3.2492  3.2489
  130OSM    C1F14019   6.930   6.176   6.633  0.3387 -0.1629 -0.2874
  130OSM     OF14020   6.837   6.149   6.552  0.0574  0.1623  0.0887
  130OSM    C2F14021   6.896   6.238   6.768  0.1948 -0.3474  0.4273
  130OSM    H2F14022   6.901   6.349   6.760  2.7687 -0.5018 -0.5184
  130OSM    H2G14023   6.970   6.197   6.841  3.4765  3.0155 -0.8953
  130OSM    C3F14024   6.748   6.197   6.809  0.0872  0.6567  0.3012
  130OSM    H3F14025   6.750   6.090   6.838  2.2023  1.3287  2.8637
  130OSM    H3G14026   6.676   6.199   6.725  2.9119  1.5748 -2.1912
  130OSM    C4F14027   6.682   6.268   6.927 -0.1560 -0.4609  0.8957
  130OSM    H4F14028   6.578   6.234   6.945 -0.7652  0.8146 -0.0855
  130OSM    H4G14029   6.668   6.376   6.906 -0.5858 -0.4378  1.3132
  130OSM    C5F14030   6.765   6.269   7.055 -0.3878 -0.4281 -0.3624
  130OSM    H5F14031   6.861   6.322   7.034  0.9846 -2.2232  1.1877
  130OSM    H5G14032   6.796   6.165   7.078  0.9039  0.0908  0.2902
  130OSM    C6F14033   6.683   6.315   7.175 -0.4237 -0.1476 -0.0189
  130OSM    H6F14034   6.581   6.272   7.172 -0.5361  0.1645 -4.0035
  130OSM    H6G14035   6.672   6.426   7.167  1.8341  0.0426 -0.9959
  130OSM    C7F14036   6.748   6.276   7.308 -0.2165  0.4527 -0.5018
  130OSM    H7F14037   6.821   6.352   7.341  0.3713 -1.1351  1.9308
  130OSM    H7G14038   6.791   6.174   7.296 -0.4591 -0.1775  3.4900
  130OSM    C8F14039   6.638   6.251   7.417  0.3740 -0.3796  0.5313
  130OSM    H8F14040   6.686   6.191   7.498  1.1444  0.4091  0.6662
  130OSM    H8G14041   6.557   6.187   7.378  2.1508 -2.0285 -0.5670
  130OSM    C9F14042   6.587   6.375   7.475 -0.4028 -0.3709 -0.6082
  130OSM    H9F14043   6.514   6.431   7.415  0.7389  0.8344 -0.9086
  130OSM   C10F14044   6.600   6.411   7.602  0.6541 -0.3862  0.0568
  130OSM   H10F14045   6.570   6.510   7.640  2.0150 -0.5533  1.6130
  130OSM   C11F14046   6.677   6.327   7.700 -0.3027 -0.1626  0.5203
  130OSM   H11F14047   6.774   6.294   7.656 -1.4310 -1.6765 -0.8954
  130OSM   H11G14048   6.620   6.232   7.711 -1.5007  0.5078  0.1700
  130OSM   C12F14049   6.718   6.379   7.838  0.7600  0.0333 -0.1604
  130OSM   H12F14050   6.775   6.474   7.826 -0.2813  0.8078  1.0269
  130OSM   H12G14051   6.797   6.312   7.879  1.7324  1.2585 -0.0231
  130OSM   C13F14052   6.612   6.392   7.952 -0.1412 -0.1467 -0.5062
  130OSM   H13F14053   6.659   6.375   8.052  2.6478  0.1446 -1.7286
  130OSM   H13G14054   6.528   6.322   7.937  0.1322 -0.9849  1.5825
  130OSM   C14F14055   6.561   6.535   7.954  0.4471  0.6361 -0.6371
  130OSM   H14F14056   6.562   6.562   7.846 -0.2705  0.1282 -0.7783
  130OSM   H14G14057   6.634   6.592   8.015  0.7658 -0.8340  0.3658
  130OSM   C15F14058   6.427   6.536   8.028  0.0811 -0.7071  0.2830
  130OSM   H15F14059   6.444   6.463   8.110  0.3838 -2.3717 -1.2304
  130OSM   H15G14060   6.336   6.500   7.976 -0.2036 -0.1993  0.4316
  130OSM   C16F14061   6.403   6.674   8.089  0.5166 -0.6374 -0.7600
  130OSM   H16F14062   6.387   6.758   8.018  0.0774  0.6782  0.8695
  130OSM   H16G14063   6.491   6.702   8.152 -0.5253  0.4977  0.2421
  130OSM   C17F14064   6.293   6.675   8.186 -0.3868  0.2077  0.3476
  130OSM   H17F14065   6.332   6.608   8.265  1.9395  2.7472  1.4496
  130OSM   H17G14066   6.207   6.631   8.131  1.9172 -0.2534 -2.9856
  130OSM   C18F14067   6.257   6.807   8.253  0.0717  0.2861  0.1911
  130OSM   H18F14068   6.173   6.783   8.322 -1.4497 -1.6018 -2.2255
  130OSM   H18G14069   6.217   6.874   8.174  0.2192  0.8248  0.5723
  130OSM   H18H14070   6.343   6.852   8.306  0.6590  0.4463 -0.8842
  131OSM      N14071   4.141   3.004   6.269  0.2717 -0.0172  0.1364
  131OSM    C1514072   4.061   3.067   6.378 -0.3049  0.0718  0.2365
  131OSM   H15A14073   4.125   3.078   6.464 -0.8040  1.6272  0.4388
  131OSM   H15B14074   3.977   3.009   6.414 -0.0340 -0.5499 -0.1325
  131OSM   H15C14075   4.028   3.167   6.352  0.3600 -0.2707 -2.0233
  131OSM    C1414076   4.207   2.884   6.324  0.5016 -0.1529 -0.2857
  131OSM   H14A14077   4.268   2.846   6.243 -1.1370 -1.3125 -1.0078
  131OSM   H14B14078   4.140   2.820   6.379 -0.6739  0.3421 -1.0914
  131OSM   H14C14079   4.278   2.913   6.399  0.1728 -0.2160  0.0526
  131OSM    C1314080   4.046   2.959   6.167 -0.5519 -0.2389  0.1677
  131OSM   H13A14081   4.095   2.900   6.090 -1.6905 -0.1074 -0.6563
  131OSM   H13B14082   3.980   3.035   6.129 -1.0224 -0.0677  1.3143
  131OSM   H13C14083   3.984   2.885   6.215 -2.5621  1.4755  0.2851
  131OSM    C1214084   4.243   3.089   6.213 -0.1904  0.3577 -0.9887
  131OSM   H12A14085   4.310   3.120   6.292 -0.0219  0.6342 -1.2395
  131OSM   H12B14086   4.192   3.179   6.182 -0.6967  0.1913 -0.6502
  131OSM    C1114087   4.341   3.037   6.107  0.6288 -1.0851 -0.2820
  131OSM   H11A14088   4.383   3.126   6.055 -0.4864  0.0418  0.7031
  131OSM   H11B14089   4.281   2.994   6.023 -1.6534 -1.7529  1.6228
  131OSM      P14090   4.535   2.887   6.029  0.1657 -0.6763 -0.4762
  131OSM    O1314091   4.446   2.803   5.948 -0.5074 -0.1300  0.0091
  131OSM    O1414092   4.611   2.993   5.968 -0.2719  0.6711  0.1513
  131OSM    O1114093   4.640   2.807   6.112 -0.0125  0.3224 -0.9020
  131OSM    O1214094   4.449   2.948   6.146 -0.7170 -0.5466 -0.1696
  131OSM    C1S14095   4.669   2.820   6.252 -0.3539  0.7813  0.5097
  131OSM    H1S14096   4.628   2.912   6.298 -1.1478  0.2733  0.8301
  131OSM    H1T14097   4.777   2.824   6.275 -0.5304  1.4956  1.2175
  131OSM     NF14098   4.637   2.738   6.485  0.0972 -0.6699 -0.0328
  131OSM    HNF14099   4.709   2.687   6.532  2.4749 -0.7185 -3.5309
  131OSM    C2S14100   4.604   2.712   6.346  0.5489  0.2590  0.3499
  131OSM    H2S14101   4.494   2.715   6.335  0.4000 -0.6207  1.4964
  131OSM    C3S14102   4.651   2.569   6.302 -0.7408  0.5962  0.2132
  131OSM    H3S14103   4.760   2.564   6.323 -1.2894  1.0618  3.5293
  131OSM     O314104   4.629   2.549   6.166  0.1074  0.7545 -0.3181
  131OSM    HO314105   4.617   2.638   6.132  0.7780  1.0336  0.1566
  131OSM    C4S14106   4.571   2.466   6.368 -0.6130  0.5046 -0.1392
  131OSM    H4S14107   4.463   2.475   6.346 -0.7801 -0.7585  0.1135
  131OSM    C5S14108   4.617   2.370   6.448  0.4346 -0.1739 -0.9813
  131OSM    H5S14109   4.727   2.370   6.462  0.1896 -0.3570  0.9596
  131OSM    C6S14110   4.555   2.257   6.521 -0.3994  0.6369 -0.1454
  131OSM    H6S14111   4.581   2.160   6.473  1.2519 -0.6417  3.1367
  131OSM    H6T14112   4.444   2.256   6.519 -0.5007  3.7426  1.7643
  131OSM    C7S14113   4.612   2.248   6.664 -0.5649  0.2560  0.3270
  131OSM    H7S14114   4.722   2.237   6.654 -0.7212 -0.7842 -0.3789
  131OSM    H7T14115   4.568   2.157   6.709  1.5234 -2.2927 -2.5539
  131OSM    C8S14116   4.561   2.367   6.751 -0.3798 -1.1094 -0.1591
  131OSM    H8S14117   4.452   2.390   6.752 -0.2929 -0.7188  0.6986
  131OSM    H8T14118   4.606   2.456   6.703 -0.0950 -0.4287  1.3495
  131OSM    C9S14119   4.609   2.363   6.892  0.4840  0.6236  0.0610
  131OSM    H9S14120   4.714   2.328   6.891  1.0468  2.3025 -0.3572
  131OSM    H9T14121   4.548   2.295   6.955  0.3548  0.9702  0.3100
  131OSM   C10S14122   4.606   2.493   6.968  0.5394  0.7026 -0.2899
  131OSM   H10S14123   4.503   2.523   6.999 -0.3587 -1.4186 -1.1336
  131OSM   H10T14124   4.649   2.575   6.906  2.0292 -0.3506 -0.6777
  131OSM   C11S14125   4.697   2.498   7.095 -0.4064  0.7748 -0.4646
  131OSM   H11S14126   4.704   2.601   7.136  0.4294  0.2837  0.6717
  131OSM   H11T14127   4.801   2.467   7.073 -0.6261 -1.4141  1.3735
  131OSM   C12S14128   4.645   2.405   7.210 -0.5999  0.7225 -0.1197
  131OSM   H12S14129   4.608   2.308   7.170  1.0464 -0.4594  1.1416
  131OSM   H12T14130   4.553   2.456   7.246  0.5984  1.9319  1.2940
  131OSM   C13S14131   4.731   2.385   7.334  0.2421 -1.0620 -0.8084
  131OSM   H13S14132   4.809   2.306   7.328  0.0662 -1.1403 -2.1351
  131OSM   H13T14133   4.663   2.355   7.417  2.1233 -1.3255  0.6774
  131OSM   C14S14134   4.786   2.516   7.384  0.3457  0.1015 -0.1453
  131OSM   H14S14135   4.729   2.610   7.368 -0.0758 -0.4592 -2.0658
  131OSM   H14T14136   4.866   2.535   7.309 -0.2115 -3.2351 -1.7004
  131OSM   C15S14137   4.819   2.501   7.527 -0.3159  0.2432 -0.0288
  131OSM   H15S14138   4.899   2.424   7.524 -0.3536 -0.0298  3.3155
  131OSM   H15T14139   4.728   2.466   7.581 -0.0998 -2.0670 -1.1130
  131OSM   C16S14140   4.871   2.626   7.599 -0.0592 -0.0823  0.3554
  131OSM   H16S14141   4.791   2.702   7.594  0.6681  0.5517 -2.7422
  131OSM   H16T14142   4.960   2.664   7.545 -0.8385  1.3787  0.0914
  131OSM   C17S14143   4.912   2.603   7.745 -0.0518 -0.1697  0.0547
  131OSM   H17S14144   5.011   2.552   7.744 -0.0939 -0.3616  2.0820
  131OSM   H17T14145   4.842   2.545   7.810  0.7946 -0.1675  0.9930
  131OSM   C18S14146   4.941   2.731   7.834  0.5739  0.0126 -0.1205
  131OSM   H18S14147   5.021   2.795   7.790  1.1032 -0.2649  0.4305
  131OSM   H18T14148   4.976   2.707   7.936  1.1469  0.5135 -0.1982
  131OSM   H18U14149   4.851   2.795   7.843  0.8808  0.5276 -0.6001
  131OSM    C1F14150   4.571   2.825   6.551  0.7101  0.3063 -0.3947
  131OSM     OF14151   4.472   2.871   6.495 -0.3248  0.1403 -0.3279
  131OSM    C2F14152   4.613   2.854   6.693 -0.4571  0.1360  0.2087
  131OSM    H2F14153   4.703   2.918   6.679  0.2519 -1.0380 -0.7607
  131OSM    H2G14154   4.633   2.761   6.750 -2.8788 -0.5859 -0.0420
  131OSM    C3F14155   4.506   2.931   6.771 -0.7140  0.4617  0.2155
  131OSM    H3F14156   4.491   3.025   6.713 -2.0063 -0.4684 -1.0156
  131OSM    H3G14157   4.546   2.957   6.871 -1.7585  0.3597  0.6619
  131OSM    C4F14158   4.370   2.868   6.777 -0.8873  0.4034 -0.0489
  131OSM    H4F14159   4.319   2.862   6.678  0.8461  1.4244 -1.0210
  131OSM    H4G14160   4.309   2.935   6.842 -0.0005  1.2427 -0.0695
  131OSM    C5F14161   4.375   2.727   6.839  0.0836 -0.1850  0.0209
  131OSM    H5F14162   4.439   2.736   6.929 -0.0227  0.4890  0.0364
  131OSM    H5G14163   4.419   2.642   6.783 -0.2969 -0.2992 -0.1059
  131OSM    C6F14164   4.240   2.692   6.904 -0.2606 -0.6971  0.0654
  131OSM    H6F14165   4.189   2.782   6.944 -1.4558 -0.6569 -1.4870
  131OSM    H6G14166   4.256   2.626   6.992  0.5816 -0.4844  0.0758
  131OSM    C7F14167   4.141   2.619   6.814  0.6712  0.2416 -0.4341
  131OSM    H7F14168   4.191   2.555   6.738  0.9760 -0.1610  0.1024
  131OSM    H7G14169   4.091   2.694   6.749  0.0907 -0.2673 -0.5785
  131OSM    C8F14170   4.029   2.538   6.879 -0.2686  0.6944  0.1187
  131OSM    H8F14171   3.944   2.513   6.812 -0.0711 -0.2634  0.2117
  131OSM    H8G14172   3.986   2.589   6.968 -0.5260 -1.2300  1.1335
  131OSM    C9F14173   4.079   2.400   6.914  0.3050  0.2888  0.0470
  131OSM    H9F14174   4.095   2.335   6.827 -1.0274 -2.4889  1.7799
  131OSM   C10F14175   4.116   2.358   7.036 -0.5584 -0.5904  1.1524
  131OSM   H10F14176   4.157   2.256   7.042 -0.2483 -0.7020 -1.8466
  131OSM   C11F14177   4.106   2.436   7.163  0.1989  0.8064  0.0685
  131OSM   H11F14178   4.046   2.376   7.235  1.1526 -1.0363 -0.6484
  131OSM   H11G14179   4.052   2.533   7.153  1.9099  1.5865 -2.0257
  131OSM   C12F14180   4.237   2.462   7.238  0.5361 -0.2778 -0.0445
  131OSM   H12F14181   4.322   2.489   7.172 -0.9371  0.7465 -1.5650
  131OSM   H12G14182   4.267   2.372   7.295  0.3812  0.1519  0.7252
  131OSM   C13F14183   4.234   2.573   7.353 -0.8221  0.1735  0.3385
  131OSM   H13F14184   4.145   2.545   7.415 -2.9225  0.7029 -2.3619
  131OSM   H13G14185   4.209   2.669   7.303 -1.7745 -0.7967 -1.0832
  131OSM   C14F14186   4.357   2.582   7.444 -1.1900  0.7664 -0.5274
  131OSM   H14F14187   4.441   2.588   7.373 -0.0687 -1.7733  0.5065
  131OSM   H14G14188   4.376   2.496   7.513  0.8089 -0.2161 -2.2521
  131OSM   C15F14189   4.332   2.699   7.536 -0.2184  0.8876 -0.0705
  131OSM   H15F14190   4.237   2.686   7.592 -0.7449  0.8956 -0.9673
  131OSM   H15G14191   4.322   2.792   7.476 -2.1575  0.9826  0.3850
  131OSM   C16F14192   4.455   2.711   7.626  0.4522 -0.0586  0.6425
  131OSM   H16F14193   4.453   2.820   7.647 -2.5642  0.0901 -0.2041
  131OSM   H16G14194   4.552   2.687   7.578  1.3135  1.8342  1.3673
  131OSM   C17F14195   4.452   2.627   7.753  0.2376  0.1124  0.7221
  131OSM   H17F14196   4.507   2.532   7.736 -1.9429 -0.8032 -1.6874
  131OSM   H17G14197   4.349   2.599   7.786 -0.5064  0.4486 -1.2582
  131OSM   C18F14198   4.530   2.696   7.863  0.5186  0.5975  0.0743
  131OSM   H18F14199   4.523   2.630   7.952 -0.8541 -0.5649 -0.8599
  131OSM   H18G14200   4.471   2.786   7.891 -0.6405 -0.2764  0.4751
  131OSM   H18H14201   4.630   2.733   7.833  1.4212 -1.9945 -0.2288
  132OSM      N14202   6.205   3.681   6.031  0.2493  0.0484  0.0997
  132OSM    C1514203   6.268   3.632   5.903 -0.0356 -0.4363  0.1978
  132OSM   H15A14204   6.375   3.650   5.907 -0.2366  1.1379 -0.7572
  132OSM   H15B14205   6.240   3.684   5.812  3.5149  1.1470 -0.1036
  132OSM   H15C14206   6.268   3.525   5.896  2.9582 -0.6940  3.0461
  132OSM    C1414207   6.060   3.656   6.037  0.6196 -0.3226  0.3117
  132OSM   H14A14208   6.030   3.552   6.044 -2.1730  0.6017  3.7731
  132OSM   H14B14209   6.017   3.696   5.946  0.4341 -0.6015  0.2738
  132OSM   H14C14210   6.018   3.702   6.125 -1.1881  0.0249 -0.6922
  132OSM    C1314211   6.273   3.607   6.135  0.1358  0.1063  0.4624
  132OSM   H13A14212   6.276   3.502   6.113  0.9946  0.2049  0.0989
  132OSM   H13B14213   6.212   3.606   6.224  0.1562 -0.7257  0.4675
  132OSM   H13C14214   6.372   3.649   6.146  0.8924 -1.3767 -0.5549
  132OSM    C1214215   6.234   3.835   6.053  0.1143 -0.3547  0.1903
  132OSM   H12A14216   6.200   3.901   5.974 -0.9912  0.1269  1.0457
  132OSM   H12B14217   6.339   3.854   6.063  0.2699 -0.1155 -1.7106
  132OSM    C1114218   6.162   3.884   6.173 -0.3333  0.4385  0.0911
  132OSM   H11A14219   6.195   3.841   6.269 -0.8031 -3.1188 -1.2543
  132OSM   H11B14220   6.053   3.865   6.181 -0.5380  1.2393 -0.6840
  132OSM      P14221   6.289   4.110   6.249 -0.4890  0.2004  0.0064
  132OSM    O1314222   6.416   4.025   6.248  0.4638  0.2941  0.2114
  132OSM    O1414223   6.287   4.240   6.174 -0.6910 -0.5526 -0.5604
  132OSM    O1114224   6.239   4.137   6.394 -0.0067  0.0040 -0.4648
  132OSM    O1214225   6.176   4.028   6.180  0.4134  0.0312 -0.4564
  132OSM    C1S14226   6.300   4.099   6.521  0.5094  0.0324  0.1568
  132OSM    H1S14227   6.398   4.051   6.498  0.0173  0.0103 -2.0595
  132OSM    H1T14228   6.237   4.016   6.559  0.0396 -0.0062 -0.7031
  132OSM     NF14229   6.260   4.161   6.761 -0.3567  0.1458 -0.1105
  132OSM    HNF14230   6.169   4.179   6.798 -0.2089  2.4662 -0.8193
  132OSM    C2S14231   6.307   4.214   6.627 -0.8104  0.0748 -0.0131
  132OSM    H2S14232   6.415   4.236   6.643 -1.1048  1.6255 -0.0941
  132OSM    C3S14233   6.238   4.342   6.584  0.4411 -0.7020  0.3532
  132OSM    H3S14234   6.130   4.322   6.566 -0.0798  1.5567  0.8586
  132OSM     O314235   6.305   4.403   6.475 -0.2014  0.6039 -0.9013
  132OSM    HO314236   6.341   4.323   6.438  1.0961  0.1729  1.2227
  132OSM    C4S14237   6.233   4.444   6.689  0.4284 -0.2915 -0.6663
  132OSM    H4S14238   6.332   4.490   6.702  0.8141 -1.4194  0.5392
  132OSM    C5S14239   6.127   4.481   6.767  0.6808 -0.6334  0.2759
  132OSM    H5S14240   6.033   4.447   6.721 -0.4186  2.0434  0.5007
  132OSM    C6S14241   6.130   4.585   6.877  1.4818  0.3324  0.8026
  132OSM    H6S14242   6.048   4.660   6.870  1.9913  0.7895 -0.5411
  132OSM    H6T14243   6.232   4.629   6.883  1.3861  0.5986  0.5024
  132OSM    C7S14244   6.102   4.522   7.008 -0.6112 -0.5528  0.3993
  132OSM    H7S14245   6.010   4.460   6.998 -2.4260  1.9854  0.9964
  132OSM    H7T14246   6.080   4.598   7.086  0.1197  0.9937 -0.8745
  132OSM    C8S14247   6.212   4.423   7.064  0.6821 -0.5964  0.1526
  132OSM    H8S14248   6.305   4.478   7.037 -0.2001 -0.4572 -2.7336
  132OSM    H8T14249   6.187   4.332   7.005 -0.6047 -1.4632  1.9756
  132OSM    C9S14250   6.206   4.416   7.213  0.4079  0.3737 -0.0527
  132OSM    H9S14251   6.114   4.361   7.243  0.2736  0.7225  0.1857
  132OSM    H9T14252   6.222   4.515   7.261  0.9317 -0.4104  1.4145
  132OSM   C10S14253   6.314   4.324   7.276  0.2504 -0.2614 -0.0567
  132OSM   H10S14254   6.414   4.362   7.246 -0.2801  0.7995 -0.4935
  132OSM   H10T14255   6.305   4.220   7.240 -1.2225 -0.5647  1.1354
  132OSM   C11S14256   6.312   4.319   7.436 -0.0380  0.4845 -0.3168
  132OSM   H11S14257   6.226   4.264   7.478  0.8437  0.1020  1.0137
  132OSM   H11T14258   6.316   4.426   7.466 -1.1227  0.1724  0.9606
  132OSM   C12S14259   6.432   4.253   7.503  0.5010 -0.6394 -0.7398
  132OSM   H12S14260   6.527   4.264   7.447  0.7984  1.1688  0.0829
  132OSM   H12T14261   6.420   4.143   7.513 -0.3404 -0.3320  2.0376
  132OSM   C13S14262   6.445   4.310   7.646  0.8071  0.3740  0.5152
  132OSM   H13S14263   6.344   4.299   7.692  1.7832 -0.8826  2.4089
  132OSM   H13T14264   6.484   4.414   7.644  2.0402 -0.0424  2.1366
  132OSM   C14S14265   6.529   4.229   7.747  0.0433  0.1635  0.2090
  132OSM   H14S14266   6.635   4.251   7.724 -0.1120  1.9229  1.1113
  132OSM   H14T14267   6.521   4.120   7.725  2.0796 -0.1760  0.9908
  132OSM   C15S14268   6.510   4.246   7.901  0.3506  0.5268 -0.3741
  132OSM   H15S14269   6.411   4.210   7.935  0.4099 -0.0056 -0.7589
  132OSM   H15T14270   6.500   4.356   7.918 -1.0092  0.3958 -0.3402
  132OSM   C16S14271   6.619   4.180   7.992  0.6192  0.0418 -0.1221
  132OSM   H16S14272   6.725   4.187   7.958  1.2281 -1.5954  1.3565
  132OSM   H16T14273   6.606   4.074   8.022 -0.8258  0.1410 -0.3823
  132OSM   C17S14274   6.618   4.252   8.129  0.0853 -0.6634 -0.7624
  132OSM   H17S14275   6.637   4.360   8.110 -2.6357 -0.4029 -2.2572
  132OSM   H17T14276   6.690   4.201   8.197  0.1566  0.5830  0.1190
  132OSM   C18S14277   6.481   4.252   8.195  0.5072  0.4131 -0.6545
  132OSM   H18S14278   6.450   4.147   8.210  3.9726 -1.2018 -4.0221
  132OSM   H18T14279   6.398   4.299   8.139 -0.5743 -0.9123 -0.1654
  132OSM   H18U14280   6.479   4.297   8.297  0.5433 -0.8769 -0.0844
  132OSM    C1F14281   6.336   4.066   6.817 -0.2570 -0.5225 -0.1928
  132OSM     OF14282   6.440   4.029   6.765 -0.1788 -0.0143  0.4660
  132OSM    C2F14283   6.273   4.017   6.951 -0.2738 -0.4766 -0.2563
  132OSM    H2F14284   6.177   3.968   6.923 -0.6132 -0.1975  0.3869
  132OSM    H2G14285   6.252   4.111   7.007 -0.8516 -1.0265  0.4572
  132OSM    C3F14286   6.381   3.950   7.031 -0.4974  0.2279  0.3792
  132OSM    H3F14287   6.470   4.016   7.042 -1.6984  1.8159  0.7436
  132OSM    H3G14288   6.409   3.856   6.978  0.0358  0.3641  0.4227
  132OSM    C4F14289   6.342   3.900   7.173  0.3627 -0.1002  0.4537
  132OSM    H4F14290   6.269   3.818   7.161 -0.7603  0.8664  0.6058
  132OSM    H4G14291   6.284   3.983   7.219  3.0140  1.6939  0.6813
  132OSM    C5F14292   6.462   3.859   7.253  0.3995 -0.2784  0.0923
  132OSM    H5F14293   6.521   3.953   7.264  0.4209 -0.2479 -0.3098
  132OSM    H5G14294   6.519   3.790   7.188 -0.1503 -0.6764  0.0279
  132OSM    C6F14295   6.419   3.807   7.382 -0.5959 -0.4398 -0.2144
  132OSM    H6F14296   6.432   3.697   7.376 -1.9381 -0.5968 -0.3098
  132OSM    H6G14297   6.317   3.845   7.401 -0.5583 -0.8511  0.8220
  132OSM    C7F14298   6.504   3.853   7.500  0.1947 -0.4405  0.1108
  132OSM    H7F14299   6.502   3.964   7.506  1.0261 -0.3804 -0.5127
  132OSM    H7G14300   6.612   3.827   7.489  0.5777 -1.2253  4.7700
  132OSM    C8F14301   6.453   3.810   7.640 -0.0207  0.1048 -0.7820
  132OSM    H8F14302   6.345   3.832   7.645 -0.0366  0.5568 -2.7413
  132OSM    H8G14303   6.501   3.877   7.714  1.8258 -0.8022 -1.1150
  132OSM    C9F14304   6.470   3.667   7.672 -0.1920  1.0557 -0.9406
  132OSM    H9F14305   6.456   3.592   7.593  0.8099 -1.7642  1.4482
  132OSM   C10F14306   6.509   3.616   7.790  0.1733  0.0945 -0.0258
  132OSM   H10F14307   6.510   3.506   7.801 -2.6164  0.0529  0.0118
  132OSM   C11F14308   6.547   3.690   7.911 -0.2741 -0.2635  0.3667
  132OSM   H11F14309   6.581   3.794   7.896  0.0327 -0.4815 -0.5010
  132OSM   H11G14310   6.625   3.630   7.963 -1.5208 -2.0889  0.1888
  132OSM   C12F14311   6.436   3.696   8.021 -0.4410  0.8872 -0.5122
  132OSM   H12F14312   6.379   3.601   8.027  1.1318  0.0636  2.5365
  132OSM   H12G14313   6.355   3.764   7.988 -0.5731  1.0421  0.1424
  132OSM   C13F14314   6.505   3.728   8.159  0.6855 -0.5244  0.3932
  132OSM   H13F14315   6.590   3.798   8.141 -0.4365  1.2366  1.7106
  132OSM   H13G14316   6.548   3.639   8.210  0.2125 -1.7368 -1.3146
  132OSM   C14F14317   6.400   3.797   8.260  0.0359 -0.1092 -0.9417
  132OSM   H14F14318   6.314   3.730   8.279  0.6887 -0.8054 -0.3974
  132OSM   H14G14319   6.352   3.884   8.209 -0.3107  0.0083 -0.4140
  132OSM   C15F14320   6.459   3.835   8.395  0.6961 -0.2693  0.4390
  132OSM   H15F14321   6.543   3.906   8.380 -0.7715  1.8443  1.8162
  132OSM   H15G14322   6.503   3.746   8.444 -0.5592 -2.2125 -1.8584
  132OSM   C16F14323   6.359   3.892   8.497  0.6053  0.1267  0.3903
  132OSM   H16F14324   6.326   3.985   8.448  2.7608  0.4424 -0.5395
  132OSM   H16G14325   6.405   3.928   8.592  0.6051  0.1238  0.3910
  132OSM   C17F14326   6.238   3.810   8.523 -0.8002 -0.0281 -0.1848
  132OSM   H17F14327   6.269   3.706   8.546 -1.4678 -0.2597 -0.3205
  132OSM   H17G14328   6.182   3.807   8.426  1.8503  0.3083 -1.7682
  132OSM   C18F14329   6.169   3.872   8.640  0.4916 -0.3153  0.5448
  132OSM   H18F14330   6.229   3.951   8.689  1.7292 -0.7242 -0.2857
  132OSM   H18G14331   6.133   3.791   8.707 -1.4021 -0.8073 -0.9974
  132OSM   H18H14332   6.070   3.910   8.606  1.5297  0.5885 -1.5768
  133OSM      N14333   6.731   4.287   5.992  0.3474 -0.6480 -0.0744
  133OSM    C1514334   6.584   4.332   5.977 -0.0940  0.2252 -0.4788
  133OSM   H15A14335   6.514   4.262   6.019  0.9575 -0.2760  0.4601
  133OSM   H15B14336   6.562   4.346   5.872  1.4726 -0.0576 -0.8548
  133OSM   H15C14337   6.561   4.425   6.026 -2.3233 -1.1342  1.1301
  133OSM    C1414338   6.747   4.152   5.936  0.0726 -0.1470 -0.1495
  133OSM   H14A14339   6.850   4.124   5.920  0.3397  0.4430  0.5278
  133OSM   H14B14340   6.696   4.140   5.841  1.4526 -1.8271 -0.7039
  133OSM   H14C14341   6.698   4.079   5.998  1.6941 -2.2068 -1.2440
  133OSM    C1314342   6.823   4.383   5.911 -0.0778  0.2515  0.4269
  133OSM   H13A14343   6.785   4.394   5.810  0.7269  0.5918  0.1611
  133OSM   H13B14344   6.929   4.366   5.920  0.2936  1.4202 -1.3582
  133OSM   H13C14345   6.818   4.482   5.954  0.1027  0.4433  0.0077
  133OSM    C1214346   6.765   4.292   6.137 -0.4843 -0.4614 -0.0791
  133OSM   H12A14347   6.750   4.393   6.173 -0.4186  0.2052 -1.8749
  133OSM   H12B14348   6.868   4.266   6.152 -0.7185  0.4992  3.7485
  133OSM    C1114349   6.707   4.190   6.239 -0.6373 -0.0795 -0.2451
  133OSM   H11A14350   6.599   4.195   6.217 -0.6629 -0.3966 -0.1954
  133OSM   H11B14351   6.733   4.229   6.339 -0.9960  0.9658 -0.5549
  133OSM      P14352   6.906   4.023   6.259 -0.0018 -0.2798  0.1932
  133OSM    O1314353   6.946   3.900   6.194 -0.7374  0.3445  0.1440
  133OSM    O1414354   6.996   4.139   6.251 -0.3290 -0.1706 -0.1710
  133OSM    O1114355   6.889   3.989   6.414  0.2403  0.2364  0.0694
  133OSM    O1214356   6.762   4.058   6.214  0.1150 -0.2428 -0.2092
  133OSM    C1S14357   6.769   3.929   6.465  0.0594  0.9239 -0.0254
  133OSM    H1S14358   6.755   3.821   6.445  2.0078  0.5231  0.7241
  133OSM    H1T14359   6.678   3.983   6.430 -1.1886 -0.1747  1.4447
  133OSM     NF14360   6.665   3.862   6.676  0.1424 -0.1977  0.7010
  133OSM    HNF14361   6.580   3.910   6.692  0.0087  0.2156 -1.0875
  133OSM    C2S14362   6.768   3.942   6.621 -0.5918 -0.0641 -0.4056
  133OSM    H2S14363   6.865   3.906   6.662  0.0697  2.2269  0.1315
  133OSM    C3S14364   6.748   4.092   6.660  0.0700 -0.2396  0.2670
  133OSM    H3S14365   6.643   4.126   6.644 -0.5279 -1.8130  0.7722
  133OSM     O314366   6.823   4.192   6.589 -0.1709 -0.1832 -0.3857
  133OSM    HO314367   6.883   4.137   6.539  1.3816  1.9848 -1.0174
  133OSM    C4S14368   6.764   4.110   6.809 -0.6460  0.4450  0.4003
  133OSM    H4S14369   6.676   4.085   6.869 -1.0233 -0.3220 -0.4617
  133OSM    C5S14370   6.875   4.130   6.877  0.1992 -0.1166  0.2777
  133OSM    H5S14371   6.972   4.101   6.833 -0.4538 -0.0664 -1.2258
  133OSM    C6S14372   6.881   4.140   7.028 -0.4008 -0.1301 -0.0527
  133OSM    H6S14373   6.918   4.242   7.053 -0.9904  0.1147 -0.1660
  133OSM    H6T14374   6.965   4.074   7.060 -0.0540  0.5655  0.4863
  133OSM    C7S14375   6.748   4.131   7.107  0.8306  0.0638  0.1532
  133OSM    H7S14376   6.699   4.033   7.089 -1.6421  0.5220  3.8591
  133OSM    H7T14377   6.680   4.213   7.077 -0.9735 -0.6240  2.1514
  133OSM    C8S14378   6.768   4.147   7.259  0.3575 -0.0828  0.3062
  133OSM    H8S14379   6.851   4.075   7.272 -0.0059 -0.3020  1.4337
  133OSM    H8T14380   6.680   4.100   7.307 -0.9926  0.5280 -1.5164
  133OSM    C9S14381   6.783   4.284   7.317 -0.4170 -0.5119 -0.1976
  133OSM    H9S14382   6.690   4.345   7.308 -0.6016 -0.6762  0.5691
  133OSM    H9T14383   6.864   4.334   7.259 -0.4814 -2.2373 -1.8220
  133OSM   C10S14384   6.830   4.286   7.461 -0.1287  0.4992 -0.0732
  133OSM   H10S14385   6.928   4.235   7.472  0.1940  0.9534 -0.8035
  133OSM   H10T14386   6.751   4.228   7.513 -0.1572  2.6609  2.3987
  133OSM   C11S14387   6.837   4.428   7.521  0.0567  0.1237  0.2424
  133OSM   H11S14388   6.739   4.478   7.503 -0.7275 -1.2726  0.5413
  133OSM   H11T14389   6.912   4.481   7.459 -2.5417 -0.4246 -3.5485
  133OSM   C12S14390   6.864   4.434   7.672  0.3235 -0.6025 -0.2039
  133OSM   H12S14391   6.958   4.382   7.697  1.0381 -0.1799 -1.9509
  133OSM   H12T14392   6.778   4.393   7.730  0.3327 -1.9027 -1.1010
  133OSM   C13S14393   6.903   4.578   7.699 -0.3014 -0.2641  0.4189
  133OSM   H13S14394   6.832   4.641   7.642 -2.1990 -0.3866  2.5510
  133OSM   H13T14395   7.005   4.598   7.661 -0.5128  0.7574  0.3976
  133OSM   C14S14396   6.890   4.614   7.845 -0.2979 -0.2249 -0.5988
  133OSM   H14S14397   6.925   4.719   7.853 -1.0589  0.0661 -0.9717
  133OSM   H14T14398   6.956   4.555   7.912 -1.7645  2.3620  3.3325
  133OSM   C15S14399   6.750   4.608   7.906  0.1043  0.0846  0.8674
  133OSM   H15S14400   6.704   4.507   7.900 -0.0643  0.1997  0.2318
  133OSM   H15T14401   6.688   4.682   7.852  0.5178 -1.5003 -1.8353
  133OSM   C16S14402   6.753   4.639   8.060  0.0586  0.2989 -0.0485
  133OSM   H16S14403   6.823   4.722   8.082  0.2122 -0.2645  1.6638
  133OSM   H16T14404   6.788   4.544   8.107  0.9359 -0.5110 -2.3204
  133OSM   C17S14405   6.615   4.670   8.115 -0.1514 -0.3849 -0.7608
  133OSM   H17S14406   6.560   4.574   8.114  0.4699 -0.7528 -0.1472
  133OSM   H17T14407   6.555   4.730   8.044  0.8878  1.2436 -0.3001
  133OSM   C18S14408   6.615   4.737   8.252 -0.7676  0.2284 -0.0928
  133OSM   H18S14409   6.713   4.707   8.296 -0.7393 -1.2789 -1.1632
  133OSM   H18T14410   6.531   4.695   8.312 -1.0241  1.1697  0.2137
  133OSM   H18U14411   6.613   4.847   8.237 -3.7093  0.3988  1.0937
  133OSM    C1F14412   6.661   3.732   6.675  0.4185 -0.2059  0.5947
  133OSM     OF14413   6.765   3.676   6.636 -0.1275  0.3491 -0.4452
  133OSM    C2F14414   6.539   3.664   6.714 -0.3598  0.2775  0.1121
  133OSM    H2F14415   6.510   3.585   6.642 -2.4407  1.0192  0.0767
  133OSM    H2G14416   6.454   3.733   6.731  0.6095  1.1991  1.2941
  133OSM    C3F14417   6.558   3.610   6.860  0.3845  0.7753 -0.1752
  133OSM    H3F14418   6.587   3.693   6.927 -1.3289  1.9063 -0.8010
  133OSM    H3G14419   6.633   3.528   6.864  0.6116  1.0154  0.5487
  133OSM    C4F14420   6.431   3.545   6.921 -0.3133 -0.5354  0.5984
  133OSM    H4F14421   6.384   3.492   6.836 -0.3601 -0.5660  0.6435
  133OSM    H4G14422   6.357   3.621   6.956 -1.2834  0.7699 -3.9783
  133OSM    C5F14423   6.464   3.430   7.026  0.2573 -0.3295  0.1805
  133OSM    H5F14424   6.497   3.345   6.962  1.8069 -2.8023  4.0715
  133OSM    H5G14425   6.366   3.416   7.076 -0.0910  0.9906 -0.0959
  133OSM    C6F14426   6.566   3.458   7.143  0.3865  0.4144  0.0514
  133OSM    H6F14427   6.531   3.550   7.195 -2.1901 -0.4354 -0.1101
  133OSM    H6G14428   6.665   3.473   7.094 -0.5159 -1.9256 -2.6305
  133OSM    C7F14429   6.578   3.348   7.254 -0.9793  0.5620  0.8511
  133OSM    H7F14430   6.574   3.253   7.196 -1.0753  1.9983 -1.5568
  133OSM    H7G14431   6.497   3.351   7.330  0.0767  0.0543  2.0184
  133OSM    C8F14432   6.709   3.353   7.331 -0.4166  0.1881  0.3630
  133OSM    H8F14433   6.691   3.450   7.382  0.0516  0.4506  0.0198
  133OSM    H8G14434   6.788   3.377   7.257 -1.0349  0.2783 -0.2706
  133OSM    C9F14435   6.737   3.223   7.399 -0.7890  0.1576  0.4235
  133OSM    H9F14436   6.764   3.138   7.334 -3.5882 -0.2521 -0.2818
  133OSM   C10F14437   6.728   3.200   7.531  0.2077  0.4043 -0.7602
  133OSM   H10F14438   6.737   3.099   7.574 -1.4110  0.4675 -0.2451
  133OSM   C11F14439   6.693   3.304   7.633  0.2967  0.4293 -0.1559
  133OSM   H11F14440   6.609   3.269   7.696  1.1995  1.1592  1.5228
  133OSM   H11G14441   6.667   3.402   7.588 -2.0900 -0.2410 -0.2888
  133OSM   C12F14442   6.812   3.337   7.723  0.0724  0.2556  0.4006
  133OSM   H12F14443   6.783   3.416   7.795  0.5613  0.1149  0.7585
  133OSM   H12G14444   6.895   3.378   7.661  0.0559  1.8107  1.3662
  133OSM   C13F14445   6.880   3.224   7.803 -0.0429 -0.2275  0.4681
  133OSM   H13F14446   6.892   3.137   7.735  1.9931 -1.4399  2.3079
  133OSM   H13G14447   6.803   3.192   7.877 -0.0365 -0.9175  0.1774
  133OSM   C14F14448   7.016   3.259   7.868  0.2982  0.2251  0.1094
  133OSM   H14F14449   7.000   3.319   7.960  0.7308  0.3585  0.0967
  133OSM   H14G14450   7.086   3.310   7.799  1.0807 -0.9294  0.0476
  133OSM   C15F14451   7.091   3.127   7.911  0.3287  0.0773 -0.2483
  133OSM   H15F14452   7.197   3.153   7.928  0.1174  0.3041  0.7413
  133OSM   H15G14453   7.085   3.058   7.824 -1.8722 -0.3066  0.1703
  133OSM   C16F14454   7.038   3.069   8.041  0.5430  0.1619 -0.1628
  133OSM   H16F14455   7.098   2.977   8.054  1.4546  0.9636  1.6117
  133OSM   H16G14456   6.931   3.042   8.031  0.5837 -1.6038  3.2316
  133OSM   C17F14457   7.062   3.151   8.169  0.1428 -0.4902 -0.3630
  133OSM   H17F14458   7.000   3.240   8.144  0.8583  0.9283  2.6416
  133OSM   H17G14459   7.165   3.187   8.192 -0.4409  1.0603 -0.0782
  133OSM   C18F14460   7.017   3.076   8.297 -0.3147 -0.2652  0.6042
  133OSM   H18F14461   7.019   3.136   8.390 -1.1022 -0.6592  0.8718
  133OSM   H18G14462   7.089   2.992   8.307  0.3537 -0.0417 -1.8463
  133OSM   H18H14463   6.912   3.044   8.286 -0.0622 -1.1696  0.8543
  134OSM      N14464   1.109   0.487   6.513 -0.0966 -0.0575  0.0878
  134OSM    C1514465   1.059   0.605   6.429 -0.3779 -0.1828 -0.8848
  134OSM   H15A14466   1.005   0.564   6.345  1.7505 -0.4095 -2.1868
  134OSM   H15B14467   1.137   0.668   6.388  1.6529 -1.6210  0.7236
  134OSM   H15C14468   0.985   0.660   6.486  1.5078  0.3924  1.0733
  134OSM    C1414469   1.211   0.437   6.424 -0.3097  0.3828 -0.1512
  134OSM   H14A14470   1.275   0.369   6.477 -0.9036  0.8002  1.1337
  134OSM   H14B14471   1.277   0.512   6.385  1.5859 -1.2563 -0.1499
  134OSM   H14C14472   1.168   0.395   6.334  0.0179  3.7555 -1.9822
  134OSM    C1314473   1.171   0.541   6.634 -0.4367  0.5373 -0.2390
  134OSM   H13A14474   1.093   0.582   6.697 -0.9119  1.2530 -1.2804
  134OSM   H13B14475   1.237   0.622   6.609 -0.6543  0.4007 -1.2593
  134OSM   H13C14476   1.220   0.478   6.707 -0.5245 -1.3390 -1.7765
  134OSM    C1214477   1.001   0.382   6.541  0.3326  0.1898  0.4099
  134OSM   H12A14478   0.959   0.343   6.450 -1.4736 -1.3560  1.8464
  134OSM   H12B14479   0.924   0.437   6.594 -0.5003 -0.5601 -0.0180
  134OSM    C1114480   1.038   0.258   6.619 -1.6083  0.4767  0.7443
  134OSM   H11A14481   0.960   0.179   6.629  0.1323 -1.5385 -1.1687
  134OSM   H11B14482   1.060   0.294   6.722 -3.2714  4.2461 -0.1319
  134OSM      P14483   1.164   0.108   6.444 -0.1838 -0.4308 -0.0260
  134OSM    O1314484   1.054   0.154   6.357 -0.4455 -0.3308  0.1406
  134OSM    O1414485   1.296   0.094   6.381 -0.1264  0.1461 -0.4493
  134OSM    O1114486   1.123  -0.027   6.508 -0.1608 -0.4430  0.4747
  134OSM    O1214487   1.167   0.207   6.569  0.3577 -0.1966 -0.7115
  134OSM    C1S14488   1.166  -0.069   6.639 -0.4355 -0.6148  0.1626
  134OSM    H1S14489   1.093  -0.030   6.714  1.8110 -1.4957  2.8765
  134OSM    H1T14490   1.265  -0.035   6.675 -0.4964 -1.6561  1.3592
  134OSM     NF14491   1.248  -0.265   6.770 -0.1048 -0.7132  0.1143
  134OSM    HNF14492   1.348  -0.267   6.764 -0.1108 -2.1919  0.2633
  134OSM    C2S14493   1.182  -0.229   6.649  0.9197  0.1675  0.2659
  134OSM    H2S14494   1.078  -0.266   6.652  0.9557 -0.0157 -0.8810
  134OSM    C3S14495   1.251  -0.285   6.515 -0.8516 -0.9506 -0.3265
  134OSM    H3S14496   1.348  -0.233   6.501 -0.2328 -2.3134 -1.2335
  134OSM     O314497   1.183  -0.267   6.394  0.5997 -0.2261  0.0929
  134OSM    HO314498   1.153  -0.177   6.405 -0.4629 -0.6312  0.5774
  134OSM    C4S14499   1.275  -0.431   6.547  0.2984  0.1731 -0.1693
  134OSM    H4S14500   1.380  -0.463   6.556  0.3407  0.2976 -0.2202
  134OSM    C5S14501   1.184  -0.518   6.573 -0.7172  0.4681  0.9128
  134OSM    H5S14502   1.079  -0.486   6.559 -0.5097  1.2985  1.2259
  134OSM    C6S14503   1.209  -0.662   6.607 -0.3634 -0.0795 -0.8416
  134OSM    H6S14504   1.275  -0.698   6.526 -0.0478  0.4205 -0.8122
  134OSM    H6T14505   1.121  -0.729   6.604  1.4127 -2.5942  1.0367
  134OSM    C7S14506   1.281  -0.670   6.739  0.0959 -0.0898 -0.6582
  134OSM    H7S14507   1.379  -0.618   6.737  0.4534 -0.6851  1.0108
  134OSM    H7T14508   1.311  -0.777   6.743 -0.9502 -0.3346  0.9002
  134OSM    C8S14509   1.199  -0.638   6.866 -0.4877  0.2847  0.3457
  134OSM    H8S14510   1.104  -0.696   6.859 -0.9975  1.0530  0.8256
  134OSM    H8T14511   1.171  -0.531   6.866 -1.1889  0.1080  0.1696
  134OSM    C9S14512   1.273  -0.687   6.993 -0.2874  0.6239  0.2331
  134OSM    H9S14513   1.363  -0.621   7.001  0.1302  0.3332 -1.8713
  134OSM    H9T14514   1.312  -0.791   7.001  1.3689  1.3680  2.6629
  134OSM   C10S14515   1.191  -0.660   7.124  0.2738  0.3871  0.0807
  134OSM   H10S14516   1.103  -0.725   7.108  0.3248 -0.0076  1.3472
  134OSM   H10T14517   1.153  -0.556   7.124 -0.2017  0.2443 -2.6650
  134OSM   C11S14518   1.265  -0.688   7.257 -0.5820 -0.8946 -0.8193
  134OSM   H11S14519   1.368  -0.647   7.251 -0.0819 -1.7825  1.2440
  134OSM   H11T14520   1.278  -0.798   7.256  0.4481 -0.7750 -0.6203
  134OSM   C12S14521   1.200  -0.651   7.389 -0.2762  0.0371  0.6279
  134OSM   H12S14522   1.162  -0.547   7.382 -0.2204 -0.0866 -2.0461
  134OSM   H12T14523   1.273  -0.659   7.473  2.1826  0.1891 -1.4438
  134OSM   C13S14524   1.078  -0.748   7.417 -0.4287  0.0300  0.2109
  134OSM   H13S14525   1.106  -0.852   7.445 -0.9259  0.0028  0.6252
  134OSM   H13T14526   1.014  -0.762   7.327  0.1684  0.2761 -0.2509
  134OSM   C14S14527   0.995  -0.694   7.531 -0.3560 -0.1310  0.5755
  134OSM   H14S14528   0.900  -0.751   7.528 -0.1931 -0.3166 -1.3105
  134OSM   H14T14529   0.976  -0.590   7.497 -1.0219 -0.7566 -0.9869
  134OSM   C15S14530   1.049  -0.716   7.671 -1.0915  0.1418 -0.0969
  134OSM   H15S14531   1.146  -0.666   7.688 -0.4726 -1.7420  2.1858
  134OSM   H15T14532   1.060  -0.826   7.685  0.4766  0.2897 -0.1156
  134OSM   C16S14533   0.957  -0.679   7.786  0.6892  0.3403  0.2045
  134OSM   H16S14534   0.858  -0.730   7.789  0.7173  0.2908  0.3053
  134OSM   H16T14535   0.932  -0.571   7.780 -0.1436  0.1265 -0.3006
  134OSM   C17S14536   1.009  -0.706   7.926 -0.1637  0.0978  0.2331
  134OSM   H17S14537   1.100  -0.646   7.948  1.1815 -1.5522 -0.7210
  134OSM   H17T14538   1.040  -0.812   7.935 -0.2257  0.2387  2.3047
  134OSM   C18S14539   0.905  -0.683   8.035  0.0179 -0.2001  0.1312
  134OSM   H18S14540   0.903  -0.577   8.067 -0.7069  0.0606 -0.7894
  134OSM   H18T14541   0.942  -0.753   8.113 -1.6541  0.1597  1.2863
  134OSM   H18U14542   0.812  -0.730   7.997  1.0547 -0.4845 -2.1455
  134OSM    C1F14543   1.197  -0.259   6.893 -1.2976  0.4238  0.3100
  134OSM     OF14544   1.083  -0.220   6.892  0.4596  0.4691  0.2281
  134OSM    C2F14545   1.275  -0.297   7.018 -0.1282  0.0275  0.2136
  134OSM    H2F14546   1.376  -0.253   7.035  0.9235 -2.1304 -0.3331
  134OSM    H2G14547   1.294  -0.405   7.002 -0.4185  0.1250 -0.8777
  134OSM    C3F14548   1.183  -0.270   7.142 -0.2172 -0.7049 -0.4537
  134OSM    H3F14549   1.083  -0.317   7.128 -0.3397 -0.3999 -0.5880
  134OSM    H3G14550   1.174  -0.160   7.147 -0.8877 -0.7718 -0.2972
  134OSM    C4F14551   1.249  -0.308   7.271 -0.2710 -0.3393  0.5775
  134OSM    H4F14552   1.339  -0.244   7.283  0.3156 -1.1541  0.6287
  134OSM    H4G14553   1.283  -0.413   7.257 -1.5661 -0.6690 -0.1362
  134OSM    C5F14554   1.159  -0.290   7.386  0.3874  0.0747 -0.3703
  134OSM    H5F14555   1.077  -0.365   7.377  0.4157  0.2117 -1.9023
  134OSM    H5G14556   1.112  -0.189   7.389  1.2625  0.4493  1.4818
  134OSM    C6F14557   1.229  -0.297   7.522 -0.8445  0.3607 -0.6490
  134OSM    H6F14558   1.296  -0.211   7.543 -0.5553 -0.0142 -0.0049
  134OSM    H6G14559   1.291  -0.389   7.523 -2.4677 -0.7576  0.6987
  134OSM    C7F14560   1.125  -0.315   7.640  0.9265  0.0325 -0.6647
  134OSM    H7F14561   1.054  -0.391   7.601 -0.3724  0.0567  1.5552
  134OSM    H7G14562   1.067  -0.222   7.654  2.9799  1.0550  1.4327
  134OSM    C8F14563   1.190  -0.373   7.766  0.7929 -0.0701 -0.2563
  134OSM    H8F14564   1.235  -0.471   7.739  2.0648 -0.4125  2.9043
  134OSM    H8G14565   1.114  -0.394   7.844 -0.1044 -0.4156 -1.2067
  134OSM    C9F14566   1.301  -0.289   7.825 -0.4289 -0.3511 -0.8441
  134OSM    H9F14567   1.374  -0.242   7.757 -1.6550 -0.4355 -2.2516
  134OSM   C10F14568   1.321  -0.270   7.956  0.2489 -0.5770  0.5993
  134OSM   H10F14569   1.402  -0.206   7.992 -1.2580  1.2724  0.8123
  134OSM   C11F14570   1.234  -0.325   8.068  0.3452 -0.3399 -0.7861
  134OSM   H11F14571   1.144  -0.383   8.035  0.6754 -1.3572  0.0625
  134OSM   H11G14572   1.195  -0.239   8.126 -0.2859 -0.8432 -0.4517
  134OSM   C12F14573   1.305  -0.436   8.148 -0.1473  0.3851  0.2865
  134OSM   H12F14574   1.395  -0.386   8.188 -0.6002  1.6677 -0.2820
  134OSM   H12G14575   1.342  -0.524   8.091  0.2606 -1.1053  2.7896
  134OSM   C13F14576   1.234  -0.492   8.270 -0.0650 -0.2127 -0.4800
  134OSM   H13F14577   1.304  -0.549   8.335 -1.2423  0.6151  1.5681
  134OSM   H13G14578   1.155  -0.563   8.237  0.6556 -1.8016  1.1376
  134OSM   C14F14579   1.185  -0.381   8.368 -0.2022 -1.0137  0.8423
  134OSM   H14F14580   1.260  -0.299   8.367 -0.0809 -0.9777  4.8618
  134OSM   H14G14581   1.190  -0.425   8.470  1.2403 -0.1994  1.1301
  134OSM   C15F14582   1.034  -0.353   8.342  0.0354  0.0550 -0.0870
  134OSM   H15F14583   0.985  -0.451   8.357  0.2536 -0.3042 -1.6112
  134OSM   H15G14584   1.030  -0.314   8.237 -0.0610  1.8082  0.5427
  134OSM   C16F14585   0.974  -0.244   8.440  0.4425 -0.4750  0.4862
  134OSM   H16F14586   1.017  -0.143   8.423 -1.6244  0.6756  1.8902
  134OSM   H16G14587   0.989  -0.271   8.546 -0.2450  1.0547  0.9866
  134OSM   C17F14588   0.821  -0.239   8.409 -0.1013  0.2099  0.1120
  134OSM   H17F14589   0.792  -0.346   8.403  2.2242 -0.4697  0.4296
  134OSM   H17G14590   0.792  -0.198   8.310 -1.0751  1.6947  0.9872
  134OSM   C18F14591   0.741  -0.153   8.506 -0.0801  0.2607 -0.5604
  134OSM   H18F14592   0.632  -0.161   8.485 -0.0469 -0.5850 -0.4357
  134OSM   H18G14593   0.784  -0.051   8.500 -1.8649  1.0104 -0.8489
  134OSM   H18H14594   0.756  -0.192   8.609 -3.2695  1.5003  0.4346
  135OSM      N14595   0.725   6.164   6.072 -0.2708  0.8129 -0.8407
  135OSM    C1514596   0.657   6.051   6.009 -0.6864  0.1781 -0.8169
  135OSM   H15A14597   0.695   5.958   6.047  1.0458  0.7692 -1.0969
  135OSM   H15B14598   0.682   6.069   5.905 -0.1216  1.6096 -0.4482
  135OSM   H15C14599   0.549   6.047   6.017 -0.5531 -1.2582  0.4394
  135OSM    C1414600   0.870   6.149   6.045 -0.4213  0.3750  0.6399
  135OSM   H14A14601   0.917   6.060   6.086  1.6034  1.5506  0.9472
  135OSM   H14B14602   0.926   6.237   6.071  0.0518 -0.0299  1.0106
  135OSM   H14C14603   0.882   6.141   5.938 -0.1930  0.6376  0.6476
  135OSM    C1314604   0.689   6.287   6.003  0.0470  0.1313 -0.1519
  135OSM   H13A14605   0.584   6.304   5.985  0.5504  0.7620 -2.6356
  135OSM   H13B14606   0.748   6.303   5.914 -0.2061 -2.3731 -0.7941
  135OSM   H13C14607   0.715   6.367   6.071  1.1137 -0.2467 -0.1055
  135OSM    C1214608   0.696   6.166   6.224 -0.0305 -0.4027 -0.4103
  135OSM   H12A14609   0.710   6.065   6.257  3.4896  0.0368 -0.3931
  135OSM   H12B14610   0.597   6.208   6.238  0.7254  0.9106  1.1363
  135OSM    C1114611   0.786   6.251   6.320 -0.1156 -0.2834 -0.5179
  135OSM   H11A14612   0.890   6.210   6.325 -0.1394 -0.2922 -0.0713
  135OSM   H11B14613   0.758   6.229   6.425  0.2269  2.4094  0.1729
  135OSM      P14614   0.670   6.484   6.346  0.3093  0.0742 -0.3649
  135OSM    O1314615   0.696   6.624   6.308 -0.5162 -0.2228  0.4918
  135OSM    O1414616   0.543   6.419   6.298 -0.2415 -0.2480  0.3165
  135OSM    O1114617   0.677   6.455   6.500 -0.1402  0.2603  0.3953
  135OSM    O1214618   0.791   6.394   6.291  0.0608 -0.4127 -0.0537
  135OSM    C1S14619   0.757   6.549   6.580  0.1660  0.6237  0.6135
  135OSM    H1S14620   0.712   6.650   6.576 -0.1037  0.5796  2.2355
  135OSM    H1T14621   0.863   6.551   6.546  0.7210  2.8736  2.3640
  135OSM     NF14622   0.835   6.615   6.814  0.2064  0.6452 -0.7239
  135OSM    HNF14623   0.916   6.595   6.868 -2.1216 -1.8055  2.0577
  135OSM    C2S14624   0.768   6.512   6.732 -0.0951 -0.3446 -0.0187
  135OSM    H2S14625   0.662   6.498   6.764  0.0944 -0.6299  0.4816
  135OSM    C3S14626   0.832   6.365   6.737  0.4828 -0.4276  0.1737
  135OSM    H3S14627   0.928   6.363   6.680 -0.8438  0.7143 -2.1945
  135OSM     O314628   0.747   6.266   6.681 -0.2702  0.3548 -0.0028
  135OSM    HO314629   0.706   6.311   6.606 -1.0776 -1.0427 -0.4310
  135OSM    C4S14630   0.862   6.317   6.871  0.0609  0.1919  0.2782
  135OSM    H4S14631   0.954   6.363   6.910  0.0394 -0.8097  1.5278
  135OSM    C5S14632   0.790   6.240   6.955 -0.0941 -0.0720  0.2302
  135OSM    H5S14633   0.685   6.209   6.937  0.1971 -0.5500 -0.6689
  135OSM    C6S14634   0.853   6.207   7.088  0.0490 -0.1727  0.1829
  135OSM    H6S14635   0.959   6.235   7.105 -0.5603  0.4734  3.4463
  135OSM    H6T14636   0.846   6.098   7.106  0.5218 -0.2450 -0.0795
  135OSM    C7S14637   0.771   6.271   7.213  0.2330 -0.2352  0.4439
  135OSM    H7S14638   0.815   6.232   7.307  2.9238 -0.2033 -0.7829
  135OSM    H7T14639   0.667   6.232   7.219 -1.0331  2.5805 -1.8814
  135OSM    C8S14640   0.781   6.425   7.215 -0.6987  0.3476 -0.7396
  135OSM    H8S14641   0.695   6.457   7.151 -1.9132 -2.2050 -0.4487
  135OSM    H8T14642   0.867   6.462   7.156  1.2868 -3.4889 -0.4137
  135OSM    C9S14643   0.769   6.488   7.353 -0.0536  0.6656 -0.0981
  135OSM    H9S14644   0.849   6.454   7.421 -0.0682  1.0182  0.0942
  135OSM    H9T14645   0.679   6.459   7.410 -0.0186 -2.2190 -1.4608
  135OSM   C10S14646   0.778   6.647   7.334 -0.4821 -0.2363 -0.0578
  135OSM   H10S14647   0.718   6.679   7.247 -1.1172 -2.3074 -0.4055
  135OSM   H10T14648   0.883   6.681   7.320 -0.5744  0.4388  0.8500
  135OSM   C11S14649   0.744   6.716   7.465 -0.6585 -0.0457  0.7075
  135OSM   H11S14650   0.765   6.646   7.549  1.9327 -0.3996 -0.1783
  135OSM   H11T14651   0.637   6.747   7.461 -0.2882  1.0566 -1.4066
  135OSM   C12S14652   0.824   6.847   7.491 -0.6304  0.0133 -0.2037
  135OSM   H12S14653   0.802   6.927   7.417  0.3490  1.1631  0.7077
  135OSM   H12T14654   0.934   6.829   7.490 -0.2770  2.0742 -0.2893
  135OSM   C13S14655   0.790   6.898   7.629  0.2960  0.3271 -0.0295
  135OSM   H13S14656   0.681   6.885   7.648 -0.1520 -2.0628 -3.6883
  135OSM   H13T14657   0.816   7.006   7.623 -0.0084  0.3690 -0.6918
  135OSM   C14S14658   0.878   6.835   7.740  0.2726  0.2059  0.5499
  135OSM   H14S14659   0.958   6.909   7.758 -1.3780  2.0811  0.4209
  135OSM   H14T14660   0.906   6.729   7.722 -1.2411  0.2246 -2.2383
  135OSM   C15S14661   0.791   6.834   7.869 -0.6377  0.2064  0.1070
  135OSM   H15S14662   0.698   6.776   7.855 -0.4336  0.1595 -1.1305
  135OSM   H15T14663   0.779   6.942   7.892 -0.1587  0.3763 -0.4279
  135OSM   C16S14664   0.864   6.784   7.990 -0.9344  0.5844 -0.0015
  135OSM   H16S14665   0.801   6.781   8.081 -1.3584  1.6219 -0.2504
  135OSM   H16T14666   0.945   6.858   8.008 -1.8956  2.5670 -3.3761
  135OSM   C17S14667   0.938   6.650   7.983  0.4403 -0.5991 -0.8894
  135OSM   H17S14668   1.018   6.646   8.060 -1.7194  0.7184  1.5019
  135OSM   H17T14669   0.992   6.639   7.887  0.1109  3.6319 -1.6633
  135OSM   C18S14670   0.848   6.529   8.005 -0.1386 -0.0908  0.1242
  135OSM   H18S14671   0.773   6.528   7.924  0.8622  0.1588 -0.8122
  135OSM   H18T14672   0.791   6.531   8.101  0.4811 -0.2210  0.5045
  135OSM   H18U14673   0.905   6.433   7.997 -2.7172 -1.6020 -0.4635
  135OSM    C1F14674   0.770   6.725   6.846 -0.1174 -0.2024 -0.3962
  135OSM     OF14675   0.674   6.772   6.787  0.4879 -0.1517 -0.1010
  135OSM    C2F14676   0.823   6.801   6.966 -0.3391  0.4090 -0.0542
  135OSM    H2F14677   0.907   6.740   7.005  0.1235 -0.9832 -3.0822
  135OSM    H2G14678   0.737   6.806   7.035 -0.7205 -1.3702 -0.3756
  135OSM    C3F14679   0.866   6.946   6.938  0.1811 -0.3734 -0.4174
  135OSM    H3F14680   0.780   6.995   6.889  0.1433  0.7444  0.7419
  135OSM    H3G14681   0.949   6.935   6.865  1.1232  2.1247  0.2433
  135OSM    C4F14682   0.902   7.020   7.073  0.4002  0.9941 -0.4672
  135OSM    H4F14683   0.982   6.971   7.132  0.5434  3.1264  1.1897
  135OSM    H4G14684   0.811   7.008   7.136  1.0985  1.2773  0.6070
  135OSM    C5F14685   0.919   7.169   7.051 -0.3985 -0.4170 -0.4441
  135OSM    H5F14686   0.824   7.211   7.013 -1.1821  0.2911  2.1998
  135OSM    H5G14687   0.994   7.182   6.970  0.9905  0.4507  0.9589
  135OSM    C6F14688   0.967   7.252   7.175  0.8466  0.3644  1.2204
  135OSM    H6F14689   0.970   7.353   7.130  1.1853  0.0079  0.4335
  135OSM    H6G14690   1.069   7.219   7.207  0.1283 -0.8762  2.2894
  135OSM    C7F14691   0.877   7.249   7.294 -0.7679 -0.1605 -0.4301
  135OSM    H7F14692   0.864   7.145   7.330 -3.0429  0.0305 -0.6697
  135OSM    H7G14693   0.778   7.296   7.278  0.0645  1.5183 -0.7903
  135OSM    C8F14694   0.938   7.338   7.402  0.4728 -0.0035  0.1047
  135OSM    H8F14695   0.859   7.372   7.472 -1.5330 -2.2640 -0.9690
  135OSM    H8G14696   0.980   7.422   7.342 -0.2861  0.1142 -0.2665
  135OSM    C9F14697   1.047   7.264   7.476 -0.3159  0.2171  0.2331
  135OSM    H9F14698   1.048   7.154   7.469 -0.6316  0.2550 -0.4888
  135OSM   C10F14699   1.136   7.319   7.557  0.0088  0.5049  0.0748
  135OSM   H10F14700   1.203   7.248   7.607 -1.3699 -1.2315 -0.4854
  135OSM   C11F14701   1.153   7.465   7.578  0.3868  0.0837 -0.0406
  135OSM   H11F14702   1.086   7.534   7.522  2.0916  0.5052 -1.6194
  135OSM   H11G14703   1.255   7.485   7.540 -0.3080  4.2350 -0.0022
  135OSM   C12F14704   1.150   7.514   7.728  0.3793  0.6687  0.1197
  135OSM   H12F14705   1.053   7.478   7.770  0.1099  0.6253 -0.5326
  135OSM   H12G14706   1.163   7.623   7.716  1.8694  0.3717 -1.0595
  135OSM   C13F14707   1.258   7.455   7.820 -0.4633 -0.6949 -0.2229
  135OSM   H13F14708   1.360   7.466   7.778  0.1319  0.0831  1.3877
  135OSM   H13G14709   1.241   7.345   7.819  1.9643 -1.1057 -1.7418
  135OSM   C14F14710   1.276   7.521   7.963 -0.8176 -0.2289 -0.0101
  135OSM   H14F14711   1.273   7.630   7.938 -0.4100 -0.0842  0.5587
  135OSM   H14G14712   1.380   7.502   7.998 -1.0422  0.5528  1.1193
  135OSM   C15F14713   1.173   7.478   8.066 -0.1324  0.5046  0.8021
  135OSM   H15F14714   1.073   7.501   8.026  0.5211  1.6991 -0.1572
  135OSM   H15G14715   1.187   7.541   8.157 -1.7492  2.6161 -0.3801
  135OSM   C16F14716   1.188   7.331   8.098 -0.3560 -0.1934 -0.2174
  135OSM   H16F14717   1.294   7.305   8.117 -1.0461 -1.4844  2.0133
  135OSM   H16G14718   1.177   7.276   8.002  0.7674  0.7613 -0.9199
  135OSM   C17F14719   1.094   7.281   8.206  0.0240  0.3713 -0.0652
  135OSM   H17F14720   0.989   7.285   8.169  0.4773  2.0790 -1.2060
  135OSM   H17G14721   1.106   7.355   8.289  1.0772  0.3622 -0.2019
  135OSM   C18F14722   1.122   7.139   8.258 -0.0378 -0.7758  0.0339
  135OSM   H18F14723   1.108   7.060   8.181 -0.9615 -1.2790  0.7137
  135OSM   H18G14724   1.047   7.113   8.336  0.4548 -0.8832  0.4715
  135OSM   H18H14725   1.226   7.138   8.298 -0.2033 -1.7836  0.4647
  136OSM      N14726   5.478   1.045   6.032  0.7914  0.5625 -0.0925
  136OSM    C1514727   5.572   1.140   6.093 -0.2043 -0.7054  0.5280
  136OSM   H15A14728   5.540   1.190   6.183  0.3670 -0.5421  0.6443
  136OSM   H15B14729   5.600   1.217   6.022  1.1823  0.2392  2.0470
  136OSM   H15C14730   5.661   1.084   6.119 -0.2808 -0.5480  1.1411
  136OSM    C1414731   5.349   1.110   6.017 -1.2070 -0.4991 -0.4320
  136OSM   H14A14732   5.282   1.064   5.945 -1.0908  0.0003 -0.8699
  136OSM   H14B14733   5.367   1.211   5.981 -2.2809 -0.3299 -0.5134
  136OSM   H14C14734   5.304   1.129   6.113  1.0006  2.4041  0.0799
  136OSM    C1314735   5.537   0.999   5.901  0.3668  0.5876 -0.4862
  136OSM   H13A14736   5.463   0.936   5.855 -1.4672  1.0142  1.7639
  136OSM   H13B14737   5.634   0.955   5.916  0.2453  0.5882  0.3199
  136OSM   H13C14738   5.554   1.082   5.834  0.7382  0.3602 -0.6727
  136OSM    C1214739   5.468   0.920   6.119 -0.3356 -0.0956  0.6104
  136OSM   H12A14740   5.395   0.856   6.070  0.2006 -0.5125  0.3490
  136OSM   H12B14741   5.418   0.952   6.209 -1.7044  1.0488 -0.5313
  136OSM    C1114742   5.598   0.838   6.154  0.2762  0.3686  0.5001
  136OSM   H11A14743   5.642   0.792   6.064  3.9412  0.7852  2.0134
  136OSM   H11B14744   5.559   0.757   6.219 -0.7931  0.8028  0.4260
  136OSM      P14745   5.834   0.858   6.259  0.2095  0.3528  0.5128
  136OSM    O1314746   5.804   0.753   6.361  0.4818 -0.6615  0.0949
  136OSM    O1414747   5.902   0.824   6.134 -0.2715  0.0327  0.8519
  136OSM    O1114748   5.919   0.972   6.322  0.1968 -0.0120 -0.2454
  136OSM    O1214749   5.697   0.925   6.215  0.0797  0.4360 -0.1110
  136OSM    C1S14750   5.869   1.111   6.330 -0.4058 -0.3839 -0.2529
  136OSM    H1S14751   5.807   1.159   6.250 -3.4001  0.4207  2.4490
  136OSM    H1T14752   5.957   1.177   6.336 -1.4647  1.2304 -1.8937
  136OSM     NF14753   5.749   1.272   6.475  0.3923  0.2951  0.2171
  136OSM    HNF14754   5.810   1.343   6.507  1.0804  0.1821 -0.8127
  136OSM    C2S14755   5.805   1.142   6.473 -1.2790  0.1581 -0.4302
  136OSM    H2S14756   5.732   1.058   6.481 -0.5561 -0.4032  0.2914
  136OSM    C3S14757   5.911   1.125   6.584  0.7984 -0.2562 -0.6996
  136OSM    H3S14758   5.993   1.199   6.569  0.5449  0.6222  1.9725
  136OSM     O314759   5.967   0.992   6.587  0.6184  0.4594 -0.2588
  136OSM    HO314760   5.945   0.948   6.505 -0.6032  0.3409  0.1291
  136OSM    C4S14761   5.851   1.161   6.716  0.0846 -0.1216 -0.2818
  136OSM    H4S14762   5.862   1.270   6.731  2.2186 -0.0054 -2.2846
  136OSM    C5S14763   5.787   1.085   6.807 -0.2434  0.2391  0.0404
  136OSM    H5S14764   5.773   0.978   6.789  2.8348 -0.0280 -1.0145
  136OSM    C6S14765   5.731   1.141   6.935  0.0797 -0.0693 -0.6742
  136OSM    H6S14766   5.674   1.066   6.995  1.6142 -0.6849  0.0615
  136OSM    H6T14767   5.660   1.219   6.902 -0.9713 -0.5466  0.4210
  136OSM    C7S14768   5.835   1.210   7.032 -0.2372 -0.3407  0.2684
  136OSM    H7S14769   5.892   1.286   6.974 -1.0508  1.3106  1.5923
  136OSM    H7T14770   5.914   1.135   7.053 -0.7723 -0.6366  1.2635
  136OSM    C8S14771   5.790   1.288   7.148  0.1786  0.0339 -0.0630
  136OSM    H8S14772   5.729   1.373   7.113  1.1608  1.0167  0.5801
  136OSM    H8T14773   5.878   1.330   7.201 -0.1242  2.6292 -1.5501
  136OSM    C9S14774   5.725   1.200   7.255 -0.1177 -0.8787 -0.5227
  136OSM    H9S14775   5.799   1.121   7.281  0.8557  0.1379 -0.1340
  136OSM    H9T14776   5.636   1.152   7.210 -1.8355  2.2500 -0.6034
  136OSM   C10S14777   5.681   1.287   7.371 -0.1031  0.1172 -0.3725
  136OSM   H10S14778   5.604   1.356   7.328  0.3061 -0.7014 -2.4980
  136OSM   H10T14779   5.768   1.344   7.410 -0.2241 -0.8825  1.4106
  136OSM   C11S14780   5.623   1.210   7.484  0.0257  0.2790 -0.4641
  136OSM   H11S14781   5.688   1.129   7.524  0.5818  2.2400  2.8151
  136OSM   H11T14782   5.529   1.159   7.455 -0.5828  1.4061 -0.4956
  136OSM   C12S14783   5.584   1.302   7.607  0.3998 -0.3428 -0.5329
  136OSM   H12S14784   5.535   1.238   7.684 -0.8355  2.3634  1.0252
  136OSM   H12T14785   5.514   1.381   7.572  1.1526  0.4849 -0.2071
  136OSM   C13S14786   5.713   1.368   7.682  0.6200 -0.3344  0.3932
  136OSM   H13S14787   5.731   1.462   7.626  0.9999 -0.0965  0.9096
  136OSM   H13T14788   5.802   1.305   7.664  0.1751 -0.2252 -2.3403
  136OSM   C14S14789   5.686   1.395   7.828  0.1894  0.0374  0.5023
  136OSM   H14S14790   5.659   1.297   7.872 -1.7006 -0.2614 -1.2542
  136OSM   H14T14791   5.604   1.468   7.848  1.4797  1.3400  1.1108
  136OSM   C15S14792   5.818   1.429   7.898 -0.4397 -0.1202 -0.5209
  136OSM   H15S14793   5.855   1.527   7.861  0.3151  1.1593  3.3752
  136OSM   H15T14794   5.897   1.352   7.881 -0.2749 -0.5229  1.8798
  136OSM   C16S14795   5.800   1.442   8.049 -0.0169 -0.7762  0.3837
  136OSM   H16S14796   5.898   1.419   8.095  0.3325  1.0816  0.5935
  136OSM   H16T14797   5.732   1.366   8.095  1.9326 -2.4574  0.5551
  136OSM   C17S14798   5.742   1.577   8.097 -1.3281 -0.1155 -0.1569
  136OSM   H17S14799   5.696   1.576   8.198 -0.3501  1.3938  0.3220
  136OSM   H17T14800   5.669   1.610   8.020 -0.0236  1.3720 -0.7952
  136OSM   C18S14801   5.841   1.696   8.109 -0.1360 -0.0792 -0.7140
  136OSM   H18S14802   5.931   1.670   8.169  2.1206  1.9406 -3.1403
  136OSM   H18T14803   5.790   1.780   8.162 -0.3845 -0.9641  0.4832
  136OSM   H18U14804   5.878   1.731   8.011 -0.5994 -1.2949 -1.3431
  136OSM    C1F14805   5.630   1.305   6.425  0.0432 -0.4577 -0.6710
  136OSM     OF14806   5.553   1.215   6.397  0.3349 -0.0207 -0.0649
  136OSM    C2F14807   5.610   1.455   6.407 -0.1252  0.8594 -0.5108
  136OSM    H2F14808   5.544   1.466   6.318  0.0192  2.1594 -0.4678
  136OSM    H2G14809   5.707   1.506   6.388 -0.1043  0.5895 -1.1342
  136OSM    C3F14810   5.540   1.526   6.521  0.3119 -0.5533 -0.0178
  136OSM    H3F14811   5.452   1.468   6.557  0.7298 -0.6095  0.9355
  136OSM    H3G14812   5.493   1.619   6.481  1.8914  0.2106 -0.1208
  136OSM    C4F14813   5.632   1.551   6.647  0.6996 -0.1294  0.0042
  136OSM    H4F14814   5.723   1.598   6.604  0.9279  2.1488  2.7939
  136OSM    H4G14815   5.656   1.452   6.692  2.5524  1.5481  2.8535
  136OSM    C5F14816   5.574   1.645   6.757  0.0099 -0.3137  0.0301
  136OSM    H5F14817   5.483   1.593   6.794 -0.6226  0.1873 -0.8206
  136OSM    H5G14818   5.552   1.745   6.715 -0.1087  0.5729  2.1123
  136OSM    C6F14819   5.674   1.674   6.877  0.6532 -0.2330  0.4089
  136OSM    H6F14820   5.666   1.585   6.944  0.5195 -0.8133 -0.3703
  136OSM    H6G14821   5.636   1.765   6.929  0.0436  0.2625 -0.8970
  136OSM    C7F14822   5.816   1.681   6.840 -0.2593 -0.2574  0.5599
  136OSM    H7F14823   5.823   1.756   6.758  0.5963 -2.9741 -1.9555
  136OSM    H7G14824   5.833   1.581   6.796  1.8935  1.5475 -2.9784
  136OSM    C8F14825   5.913   1.727   6.947 -0.2478 -0.0301 -0.2406
  136OSM    H8F14826   5.877   1.823   6.989  2.5079  0.8972  0.0810
  136OSM    H8G14827   6.002   1.753   6.886 -1.0952  0.2165 -1.3857
  136OSM    C9F14828   5.958   1.621   7.047  0.0538  0.1927 -0.4208
  136OSM    H9F14829   6.037   1.555   7.008  1.9415  1.3770  1.2972
  136OSM   C10F14830   5.914   1.607   7.176 -0.7249 -0.0298 -0.5257
  136OSM   H10F14831   5.939   1.514   7.228 -2.1661 -0.3584 -0.3877
  136OSM   C11F14832   5.816   1.686   7.255  0.2128  0.4095 -0.3737
  136OSM   H11F14833   5.736   1.624   7.300  1.7521 -2.7499 -1.8356
  136OSM   H11G14834   5.775   1.768   7.192 -0.7185  2.3041  2.6171
  136OSM   C12F14835   5.879   1.765   7.366  0.5600 -0.3905 -0.0470
  136OSM   H12F14836   5.800   1.840   7.388  1.2922 -0.5370  3.5306
  136OSM   H12G14837   5.970   1.824   7.346  0.0354  0.4180 -0.0686
  136OSM   C13F14838   5.895   1.673   7.494 -0.0220 -0.4548  0.4190
  136OSM   H13F14839   5.988   1.614   7.475  1.0509  1.2345  0.3681
  136OSM   H13G14840   5.808   1.604   7.503 -0.8653  0.6201  0.5575
  136OSM   C14F14841   5.922   1.757   7.620  0.4318 -0.2019  0.5124
  136OSM   H14F14842   5.889   1.710   7.715  4.1123 -3.0441  0.4982
  136OSM   H14G14843   5.867   1.853   7.604 -0.2379 -0.2901  2.2718
  136OSM   C15F14844   6.073   1.782   7.634  0.7875 -0.1536 -0.4672
  136OSM   H15F14845   6.120   1.846   7.556  0.2249 -0.0614 -0.7312
  136OSM   H15G14846   6.132   1.689   7.647  2.5303  1.5723  5.4849
  136OSM   C16F14847   6.097   1.868   7.771  0.0801  1.3238  0.3390
  136OSM   H16F14848   6.055   1.798   7.846  3.2467  0.1261  1.0849
  136OSM   H16G14849   6.029   1.951   7.743 -0.9481  0.1591 -0.6451
  136OSM   C17F14850   6.234   1.918   7.795 -0.7037 -0.7472  0.1809
  136OSM   H17F14851   6.277   1.963   7.703 -2.1068 -1.3206 -0.7713
  136OSM   H17G14852   6.296   1.828   7.814  0.6199  0.3844  1.3636
  136OSM   C18F14853   6.244   2.016   7.905 -0.5425 -0.4357  0.2373
  136OSM   H18F14854   6.224   1.955   7.996 -3.4439 -0.3925 -0.3172
  136OSM   H18G14855   6.161   2.089   7.900 -0.7595 -0.6165  1.0588
  136OSM   H18H14856   6.345   2.061   7.911 -1.2720  1.1251  0.8895
  137OSM      N14857   2.082   5.249   6.627  0.3892  0.1406 -0.3768
  137OSM    C1514858   2.198   5.229   6.716  0.4608  0.2843  0.0056
  137OSM   H15A14859   2.292   5.209   6.666 -0.8382 -2.5360 -1.4267
  137OSM   H15B14860   2.181   5.142   6.779 -0.2839  0.1921 -0.3261
  137OSM   H15C14861   2.220   5.320   6.770 -2.1052  0.1608  1.3189
  137OSM    C1414862   2.005   5.120   6.625 -0.3939  0.1542  0.4101
  137OSM   H14A14863   2.061   5.042   6.574  0.5171  0.7943  0.4197
  137OSM   H14B14864   1.915   5.132   6.567  1.7567  1.6691 -2.8037
  137OSM   H14C14865   1.976   5.081   6.721 -1.8645 -2.7606 -1.1568
  137OSM    C1314866   2.003   5.354   6.684 -0.6110 -0.0992 -0.1556
  137OSM   H13A14867   2.057   5.448   6.676 -1.2941  0.2671 -0.5207
  137OSM   H13B14868   1.976   5.334   6.787  0.3811 -0.7449 -0.0252
  137OSM   H13C14869   1.913   5.368   6.625 -1.1011  1.4936  0.9008
  137OSM    C1214870   2.126   5.281   6.490 -0.0070  0.8570  0.2470
  137OSM   H12A14871   2.048   5.279   6.416  0.6855  0.0197 -0.4749
  137OSM   H12B14872   2.186   5.200   6.450 -1.8078  0.4874 -1.7946
  137OSM    C1114873   2.217   5.406   6.466 -0.4291  0.3902  0.6279
  137OSM   H11A14874   2.273   5.397   6.371 -0.4617  1.7371  0.4622
  137OSM   H11B14875   2.303   5.414   6.537  0.7755 -0.0300 -0.7665
  137OSM      P14876   2.170   5.648   6.543 -0.4564 -0.1171  0.5425
  137OSM    O1314877   2.301   5.700   6.494  0.5448 -0.0393 -0.4170
  137OSM    O1414878   2.061   5.741   6.538 -0.0285  0.1134  0.3230
  137OSM    O1114879   2.191   5.610   6.698  0.1326 -0.0523  0.3318
  137OSM    O1214880   2.134   5.519   6.459 -0.3553 -0.2877 -0.3801
  137OSM    C1S14881   2.279   5.691   6.777  0.3098 -0.0529  0.2239
  137OSM    H1S14882   2.294   5.792   6.732  0.0750  0.0226  0.3120
  137OSM    H1T14883   2.379   5.643   6.777  1.2703  1.8915  0.1380
  137OSM     NF14884   2.288   5.810   6.995 -0.2969  0.7099 -0.3895
  137OSM    HNF14885   2.338   5.773   7.072 -1.4524  2.2251  1.1210
  137OSM    C2S14886   2.218   5.708   6.924  0.7399  0.0728 -0.0646
  137OSM    H2S14887   2.115   5.742   6.902  0.8295  0.2532 -0.2084
  137OSM    C3S14888   2.217   5.565   6.995  0.4607 -0.1810 -0.5423
  137OSM    H3S14889   2.322   5.533   7.004  1.1077  1.6490 -1.2876
  137OSM     O314890   2.175   5.453   6.912  0.3035  0.0133  0.0363
  137OSM    HO314891   2.163   5.496   6.827 -0.4703 -0.2298  0.0198
  137OSM    C4S14892   2.151   5.574   7.129 -0.1333  0.0424 -0.4913
  137OSM    H4S14893   2.209   5.609   7.215 -0.9001  0.0900  0.0052
  137OSM    C5S14894   2.023   5.548   7.160  1.6886  0.0917  0.0188
  137OSM    H5S14895   1.953   5.512   7.083  1.8306  0.7185 -0.4138
  137OSM    C6S14896   1.964   5.562   7.295  0.2065 -0.0737 -0.7843
  137OSM    H6S14897   1.916   5.462   7.301  0.3124 -0.0794  0.1215
  137OSM    H6T14898   1.876   5.628   7.281  1.1385  1.1119 -1.1775
  137OSM    C7S14899   2.046   5.589   7.425  0.1511  0.3565  0.3714
  137OSM    H7S14900   2.103   5.682   7.408  0.5499 -0.0589 -0.6289
  137OSM    H7T14901   2.118   5.505   7.437  0.0659 -0.0279 -1.5344
  137OSM    C8S14902   1.961   5.593   7.554 -0.6782 -0.8711 -0.1216
  137OSM    H8S14903   1.885   5.512   7.557 -1.9482  0.3326  1.0420
  137OSM    H8T14904   1.913   5.692   7.563 -0.5325 -0.9088  1.1815
  137OSM    C9S14905   2.056   5.577   7.675 -0.2225 -0.1649 -0.2249
  137OSM    H9S14906   2.131   5.658   7.680  0.5922 -0.8352 -1.4800
  137OSM    H9T14907   2.117   5.484   7.676  0.9722  0.6140  0.9220
  137OSM   C10S14908   1.978   5.595   7.809  0.1845 -0.0168 -0.0548
  137OSM   H10S14909   1.897   5.519   7.817  1.7948 -1.6333  1.2651
  137OSM   H10T14910   1.931   5.696   7.805  0.7401  0.1871 -1.8537
  137OSM   C11S14911   2.061   5.579   7.932 -0.1528  0.2772 -0.7484
  137OSM   H11S14912   2.142   5.650   7.908 -0.4988  0.5118 -1.2412
  137OSM   H11T14913   2.099   5.474   7.933 -1.2887 -0.1447 -0.0173
  137OSM   C12S14914   1.988   5.619   8.060  0.2565 -0.5073 -0.5645
  137OSM   H12S14915   2.050   5.575   8.141 -1.5747  0.6678  1.5269
  137OSM   H12T14916   1.902   5.549   8.062  1.0006 -1.5742 -3.2255
  137OSM   C13S14917   1.960   5.768   8.075  0.7411 -1.1155 -0.1819
  137OSM   H13S14918   1.905   5.801   7.985  0.6359  0.0155  0.2979
  137OSM   H13T14919   2.057   5.822   8.076  0.1526 -0.0579 -0.0886
  137OSM   C14S14920   1.882   5.812   8.200 -0.3360 -0.5709 -0.2369
  137OSM   H14S14921   1.782   5.764   8.202 -0.4832 -0.2280  3.4410
  137OSM   H14T14922   1.856   5.919   8.196 -1.1401 -0.8147 -2.0550
  137OSM   C15S14923   1.959   5.781   8.325  0.1509 -0.0246 -0.3024
  137OSM   H15S14924   2.064   5.813   8.308 -0.7893  3.5597  0.2509
  137OSM   H15T14925   1.960   5.671   8.338 -3.5620  0.0793  1.5972
  137OSM   C16S14926   1.905   5.850   8.453  0.2147 -0.5627 -0.0185
  137OSM   H16S14927   1.932   5.799   8.548 -2.2591 -0.3618  0.8301
  137OSM   H16T14928   1.795   5.844   8.468  0.2928  1.1480  1.5845
  137OSM   C17S14929   1.945   5.996   8.466 -0.1567  0.1446 -1.3027
  137OSM   H17S14930   1.895   6.048   8.382  0.4837 -0.8426 -2.3149
  137OSM   H17T14931   2.055   5.994   8.452  0.0274  0.0243  0.0650
  137OSM   C18S14932   1.902   6.051   8.600  0.4813  0.4328 -0.3069
  137OSM   H18S14933   1.965   6.011   8.683  0.3912 -2.6791 -1.6897
  137OSM   H18T14934   1.800   6.017   8.631  0.3448 -0.5713 -1.8409
  137OSM   H18U14935   1.915   6.160   8.617 -0.2641  0.2523  1.6250
  137OSM    C1F14936   2.302   5.939   6.959 -0.5659  0.1891  0.1028
  137OSM     OF14937   2.223   5.987   6.878 -0.0755 -0.1382 -0.1948
  137OSM    C2F14938   2.428   6.015   7.006  0.8540 -0.1574  0.0276
  137OSM    H2F14939   2.509   5.964   6.950  0.4387  0.5056 -1.1746
  137OSM    H2G14940   2.447   5.968   7.105 -2.3283 -0.7724  0.4073
  137OSM    C3F14941   2.414   6.167   6.999 -0.7293  0.2832 -0.8636
  137OSM    H3F14942   2.321   6.201   7.048 -0.0302  0.1130  0.6130
  137OSM    H3G14943   2.425   6.201   6.894  0.7764 -1.5250 -1.3236
  137OSM    C4F14944   2.529   6.241   7.074  0.0014 -0.3527 -0.1650
  137OSM    H4F14945   2.523   6.348   7.045  0.7263 -0.7443 -1.7728
  137OSM    H4G14946   2.629   6.203   7.044  0.5696  1.0285 -0.0930
  137OSM    C5F14947   2.509   6.246   7.231 -1.0831 -0.2334  0.8957
  137OSM    H5F14948   2.513   6.144   7.277  0.0218 -0.9194 -0.6736
  137OSM    H5G14949   2.405   6.279   7.254 -1.7943  1.2515 -3.9617
  137OSM    C6F14950   2.622   6.326   7.305 -0.1033 -0.3134  0.0884
  137OSM    H6F14951   2.632   6.415   7.240 -0.2808 -0.2121  0.1999
  137OSM    H6G14952   2.721   6.275   7.306  0.0222 -0.1099 -1.0513
  137OSM    C7F14953   2.596   6.376   7.445 -0.4660  0.0260  0.6106
  137OSM    H7F14954   2.513   6.450   7.438 -1.4194 -1.1394 -0.5459
  137OSM    H7G14955   2.680   6.427   7.496 -2.0582  1.4674  1.8711
  137OSM    C8F14956   2.546   6.269   7.553 -0.4880  0.6723  0.4525
  137OSM    H8F14957   2.624   6.196   7.583  0.1798 -0.5977 -4.0795
  137OSM    H8G14958   2.468   6.198   7.516 -0.9203  0.1468  2.2963
  137OSM    C9F14959   2.491   6.353   7.668 -0.8067 -0.0177  0.0849
  137OSM    H9F14960   2.400   6.411   7.645  0.1880  1.1704 -0.9829
  137OSM   C10F14961   2.534   6.358   7.794 -0.0189  0.1491  0.1064
  137OSM   H10F14962   2.484   6.427   7.864 -0.0943  0.9569 -0.7349
  137OSM   C11F14963   2.654   6.284   7.856 -0.0888 -0.6242  0.4040
  137OSM   H11F14964   2.745   6.348   7.863 -0.7050  0.4028 -0.6983
  137OSM   H11G14965   2.699   6.196   7.805  0.1522  0.6650 -1.6736
  137OSM   C12F14966   2.627   6.233   8.002  0.1853 -0.0520 -0.0595
  137OSM   H12F14967   2.696   6.147   8.016 -1.0374 -0.9836  0.2951
  137OSM   H12G14968   2.526   6.191   8.021  0.3259  0.3814  1.7499
  137OSM   C13F14969   2.653   6.346   8.106 -0.0499  0.7475  0.5626
  137OSM   H13F14970   2.591   6.438   8.094  1.4358  1.4287 -2.4073
  137OSM   H13G14971   2.762   6.368   8.102 -0.1172  1.0314  0.2505
  137OSM   C14F14972   2.633   6.297   8.253 -0.2349 -0.2113 -0.3655
  137OSM   H14F14973   2.652   6.188   8.262  3.5272  0.4534  0.5222
  137OSM   H14G14974   2.524   6.314   8.268 -0.2165  1.4221 -1.9597
  137OSM   C15F14975   2.702   6.377   8.362 -0.3388 -0.2398  0.3020
  137OSM   H15F14976   2.664   6.482   8.358  1.9047  0.6096  0.6626
  137OSM   H15G14977   2.813   6.376   8.352 -0.2003  0.2333  1.6978
  137OSM   C16F14978   2.678   6.313   8.497  0.0432 -0.9151 -0.4883
  137OSM   H16F14979   2.724   6.213   8.485  2.3115  0.2208 -1.7333
  137OSM   H16G14980   2.572   6.293   8.520 -0.6389  1.7118 -1.1175
  137OSM   C17F14981   2.745   6.390   8.614  0.2638  0.0720  0.0087
  137OSM   H17F14982   2.701   6.492   8.611 -1.7893 -0.7518  0.8767
  137OSM   H17G14983   2.853   6.396   8.592  0.4207  0.9046  0.9721
  137OSM   C18F14984   2.706   6.327   8.751  0.5413 -0.0328  0.8122
  137OSM   H18F14985   2.739   6.393   8.834 -0.1875 -0.3664  1.3743
  137OSM   H18G14986   2.759   6.231   8.768 -1.6438 -1.4409 -0.0601
  137OSM   H18H14987   2.596   6.315   8.762 -0.1512  3.2202 -1.8215
  138OSM      N14988   3.043   1.460   6.138  0.1469 -0.0411 -0.0643
  138OSM    C1514989   2.990   1.367   6.037  0.1284  1.2387  0.3907
  138OSM   H15A14990   3.039   1.271   6.030 -0.9947  0.4729  2.4510
  138OSM   H15B14991   2.985   1.422   5.945  1.3215  0.0653 -0.3925
  138OSM   H15C14992   2.889   1.356   6.074 -0.2046  0.1620 -0.8019
  138OSM    C1414993   3.072   1.383   6.262  0.0508 -0.0096  0.6746
  138OSM   H14A14994   3.094   1.440   6.351  0.7304  0.6938  0.0560
  138OSM   H14B14995   3.152   1.312   6.244 -0.5627 -0.8829  1.3519
  138OSM   H14C14996   2.984   1.326   6.288 -0.0016 -0.0450  0.4170
  138OSM    C1314997   3.167   1.526   6.079  0.2840 -0.1893  0.4278
  138OSM   H13A14998   3.238   1.458   6.036 -0.0510 -1.1588  1.4044
  138OSM   H13B14999   3.214   1.595   6.147 -1.7026  1.0148  0.6470
  138OSM   H13C15000   3.128   1.585   5.997  0.4932 -1.2171 -0.4223
  138OSM    C1215001   2.940   1.573   6.173 -0.2391 -0.5823  0.8011
  138OSM   H12A15002   2.923   1.621   6.078  1.3969 -1.5270  0.0193
  138OSM   H12B15003   2.980   1.645   6.243 -1.8410 -1.2245  2.4170
  138OSM    C1115004   2.798   1.530   6.223  0.2902 -0.1507  0.1016
  138OSM   H11A15005   2.731   1.617   6.243 -0.3507 -0.4505 -0.6804
  138OSM   H11B15006   2.810   1.473   6.318  1.2313 -1.1026 -0.5809
  138OSM      P15007   2.585   1.397   6.132 -0.0032  0.5982 -0.0217
  138OSM    O1315008   2.489   1.489   6.064 -0.5504 -0.3719 -0.2427
  138OSM    O1415009   2.574   1.257   6.103  0.8995  0.5786  0.1856
  138OSM    O1115010   2.554   1.415   6.286 -0.4636  0.0191 -0.2655
  138OSM    O1215011   2.736   1.456   6.117  0.2836 -0.3225 -0.1644
  138OSM    C1S15012   2.449   1.340   6.361 -0.1269 -0.0107  0.5808
  138OSM    H1S15013   2.465   1.230   6.352  2.1587  0.1430  2.2718
  138OSM    H1T15014   2.344   1.358   6.332 -0.1936 -1.4455 -0.1036
  138OSM     NF15015   2.348   1.295   6.588  0.5870  0.4459  0.3516
  138OSM    HNF15016   2.268   1.348   6.616 -0.4459  0.7805 -3.0366
  138OSM    C2S15017   2.461   1.360   6.517  0.2175  0.5576  0.3962
  138OSM    H2S15018   2.559   1.326   6.558  0.2815 -0.3184 -0.4732
  138OSM    C3S15019   2.465   1.511   6.550  0.7450 -0.1308 -0.1614
  138OSM    H3S15020   2.379   1.558   6.498  1.3883 -0.0037 -1.1063
  138OSM     O315021   2.575   1.581   6.486  0.0314  0.3243 -0.1221
  138OSM    HO315022   2.600   1.525   6.412 -0.5430 -0.3747  0.2137
  138OSM    C4S15023   2.459   1.549   6.694 -0.4243 -0.2688  0.9101
  138OSM    H4S15024   2.535   1.497   6.755  0.5086 -1.1215 -0.9279
  138OSM    C5S15025   2.383   1.641   6.749  0.4013  0.7301 -0.3742
  138OSM    H5S15026   2.304   1.686   6.687 -2.2848 -0.4594  2.0381
  138OSM    C6S15027   2.378   1.670   6.892  0.5769 -0.0556  0.2453
  138OSM    H6S15028   2.285   1.619   6.924  2.1203 -1.6959  2.2746
  138OSM    H6T15029   2.373   1.779   6.910 -1.1912 -0.0661 -0.0997
  138OSM    C7S15030   2.495   1.625   6.990 -0.2950 -0.5705  0.5424
  138OSM    H7S15031   2.592   1.671   6.960 -1.1038  1.4772  0.9737
  138OSM    H7T15032   2.525   1.518   6.988  2.8749  0.3003 -3.4394
  138OSM    C8S15033   2.451   1.653   7.131  0.3970 -1.1274 -0.3652
  138OSM    H8S15034   2.367   1.582   7.145  0.3367 -1.0971 -0.5737
  138OSM    H8T15035   2.399   1.751   7.135 -0.9275 -1.8333 -0.1895
  138OSM    C9S15036   2.557   1.646   7.237  0.1629  0.0224 -0.4561
  138OSM    H9S15037   2.640   1.712   7.204 -0.8913 -0.2657 -3.9373
  138OSM    H9T15038   2.613   1.552   7.257  0.6644  0.0725 -1.5608
  138OSM   C10S15039   2.509   1.704   7.367  0.1687  0.3161 -0.8654
  138OSM   H10S15040   2.435   1.631   7.407  0.8450 -0.3057 -0.7449
  138OSM   H10T15041   2.464   1.804   7.350  0.6898  0.6798 -0.1294
  138OSM   C11S15042   2.624   1.720   7.470 -0.3858 -0.5194  0.0479
  138OSM   H11S15043   2.680   1.812   7.441 -1.4158 -0.1881 -0.9474
  138OSM   H11T15044   2.686   1.628   7.466 -0.2026 -0.3409 -1.5488
  138OSM   C12S15045   2.574   1.752   7.610  0.4449  0.4864 -0.3257
  138OSM   H12S15046   2.487   1.688   7.639  2.5829 -1.3633  2.2658
  138OSM   H12T15047   2.536   1.856   7.607  0.3811  0.5086  0.9000
  138OSM   C13S15048   2.671   1.742   7.728  0.2476  0.1036  0.4941
  138OSM   H13S15049   2.750   1.816   7.704 -0.1565  0.3072 -0.2148
  138OSM   H13T15050   2.709   1.638   7.737 -1.9162 -0.6123  1.7893
  138OSM   C14S15051   2.608   1.794   7.856  0.0641  0.1206  0.6759
  138OSM   H14S15052   2.511   1.750   7.888 -1.6706  0.1928 -4.1670
  138OSM   H14T15053   2.568   1.897   7.847 -0.5636 -0.0799  1.1357
  138OSM   C15S15054   2.708   1.792   7.975  0.4673 -0.3258  0.4036
  138OSM   H15S15055   2.811   1.830   7.957  0.4508 -0.8071 -0.7762
  138OSM   H15T15056   2.724   1.682   7.982 -2.1405 -0.7613 -0.1977
  138OSM   C16S15057   2.649   1.845   8.107 -0.0490 -0.2346 -0.5290
  138OSM   H16S15058   2.547   1.802   8.120  0.6157 -0.9989  2.3932
  138OSM   H16T15059   2.631   1.955   8.105  0.9428 -0.0296  1.1394
  138OSM   C17S15060   2.728   1.815   8.237 -0.3359  0.6871  0.3119
  138OSM   H17S15061   2.667   1.855   8.320  0.3065  1.8300  0.2384
  138OSM   H17T15062   2.817   1.878   8.216  0.9142 -1.4928 -1.2137
  138OSM   C18S15063   2.770   1.666   8.267 -0.2878 -0.2120 -0.0921
  138OSM   H18S15064   2.678   1.604   8.272  0.2417 -0.9166  1.3352
  138OSM   H18T15065   2.829   1.650   8.360 -0.8023 -0.7700  0.1420
  138OSM   H18U15066   2.830   1.634   8.180  1.5579 -2.4987  1.9391
  138OSM    C1F15067   2.348   1.164   6.604  0.0076 -0.0697 -0.2095
  138OSM     OF15068   2.409   1.086   6.533 -0.5415 -0.2296 -0.1912
  138OSM    C2F15069   2.252   1.109   6.707  0.0124  0.6398 -0.1150
  138OSM    H2F15070   2.286   1.009   6.740  0.0138  1.2279  1.7262
  138OSM    H2G15071   2.155   1.087   6.658  0.4769  2.5601 -1.9878
  138OSM    C3F15072   2.232   1.196   6.831  0.1477  0.1571 -0.6580
  138OSM    H3F15073   2.175   1.128   6.898 -1.1314  0.4590 -1.4179
  138OSM    H3G15074   2.169   1.285   6.806  1.3546  0.9566 -0.9001
  138OSM    C4F15075   2.354   1.244   6.910  0.1347 -0.0818 -0.1369
  138OSM    H4F15076   2.335   1.350   6.939 -2.7973 -0.3080 -1.1190
  138OSM    H4G15077   2.444   1.245   6.845 -0.0550  1.1423 -0.4005
  138OSM    C5F15078   2.383   1.152   7.033  0.0523 -0.3905  0.1707
  138OSM    H5F15079   2.397   1.050   6.991  1.7960 -0.4242  0.8247
  138OSM    H5G15080   2.298   1.154   7.105  1.2692 -0.0361  1.6293
  138OSM    C6F15081   2.513   1.173   7.115 -0.7124 -0.9384 -0.2087
  138OSM    H6F15082   2.601   1.195   7.049 -0.3537  2.4660  1.3084
  138OSM    H6G15083   2.531   1.080   7.174  0.1498  0.6054  2.0207
  138OSM    C7F15084   2.498   1.291   7.209  0.8772 -0.2210  0.1449
  138OSM    H7F15085   2.434   1.362   7.153 -0.7101 -1.4650  0.3213
  138OSM    H7G15086   2.602   1.324   7.228  0.9684  0.3707 -1.3813
  138OSM    C8F15087   2.425   1.241   7.338 -0.0390  0.7072 -0.3839
  138OSM    H8F15088   2.463   1.143   7.374  0.2475  1.9093  2.6535
  138OSM    H8G15089   2.326   1.216   7.292  1.1437 -1.8664 -1.6273
  138OSM    C9F15090   2.407   1.350   7.440  0.3430  0.2723 -0.3059
  138OSM    H9F15091   2.314   1.407   7.429  0.8757  0.7566 -2.6068
  138OSM   C10F15092   2.480   1.356   7.553 -0.3460 -0.3238 -0.9158
  138OSM   H10F15093   2.448   1.433   7.625  0.3407  0.7272 -1.7199
  138OSM   C11F15094   2.591   1.261   7.586  0.1103 -0.3870  0.1462
  138OSM   H11F15095   2.644   1.223   7.496  0.2542 -3.5958  1.5356
  138OSM   H11G15096   2.546   1.167   7.624 -0.5082  0.2514  1.0005
  138OSM   C12F15097   2.688   1.329   7.685 -0.2391  0.2946 -0.7934
  138OSM   H12F15098   2.717   1.431   7.652  0.8361  0.8662  1.8506
  138OSM   H12G15099   2.780   1.268   7.695  2.0287  3.4252 -1.8377
  138OSM   C13F15100   2.633   1.355   7.829  0.2512  0.0871 -0.4052
  138OSM   H13F15101   2.535   1.408   7.831  0.6120  0.7517 -0.0517
  138OSM   H13G15102   2.708   1.426   7.871 -1.4335  3.4379 -2.7723
  138OSM   C14F15103   2.625   1.229   7.929 -0.1314  0.8030  0.6325
  138OSM   H14F15104   2.731   1.195   7.935 -0.4192  0.2074  2.4213
  138OSM   H14G15105   2.566   1.140   7.898  0.3453 -0.2570  2.6956
  138OSM   C15F15106   2.581   1.276   8.074 -0.1246 -0.5198 -0.0520
  138OSM   H15F15107   2.471   1.281   8.077 -0.0537  0.9113  1.1061
  138OSM   H15G15108   2.612   1.379   8.103 -1.1288 -0.8666  2.3474
  138OSM   C16F15109   2.628   1.176   8.177 -0.5411 -0.1323  0.2195
  138OSM   H16F15110   2.738   1.172   8.186 -0.7018  0.5117  2.6519
  138OSM   H16G15111   2.596   1.075   8.145  0.3498 -0.7879  1.4117
  138OSM   C17F15112   2.552   1.201   8.307 -0.2158 -0.7564 -0.1602
  138OSM   H17F15113   2.457   1.144   8.296 -2.2488  2.4163  0.2452
  138OSM   H17G15114   2.524   1.308   8.320 -0.5141 -0.8744  0.2048
  138OSM   C18F15115   2.616   1.151   8.441 -0.2457  0.5799  0.2797
  138OSM   H18F15116   2.625   1.041   8.453 -1.6077  0.2638 -1.4422
  138OSM   H18G15117   2.544   1.187   8.518  1.1839  1.4250  1.2556
  138OSM   H18H15118   2.719   1.192   8.446 -0.0478  0.5110 -2.4214
  139OSM      N15119   1.214   2.348   6.044 -0.3190  0.0262 -0.1498
  139OSM    C1515120   1.177   2.472   6.117  0.5504 -0.1629  0.0716
  139OSM   H15A15121   1.082   2.462   6.168 -0.1506  3.2376 -0.5092
  139OSM   H15B15122   1.174   2.563   6.060  1.9303  0.4729  0.9915
  139OSM   H15C15123   1.255   2.487   6.190 -0.4286 -2.1083  1.5904
  139OSM    C1415124   1.110   2.328   5.939 -0.0476 -0.1841 -0.0530
  139OSM   H14A15125   1.078   2.421   5.895 -0.4615 -0.5275 -0.4842
  139OSM   H14B15126   1.017   2.303   5.987  1.2161 -0.3089  2.4285
  139OSM   H14C15127   1.159   2.256   5.876  0.6553  1.1806 -1.0894
  139OSM    C1315128   1.350   2.378   5.980  0.6869 -1.1070  0.1397
  139OSM   H13A15129   1.340   2.471   5.926 -1.4989  0.4009  2.9853
  139OSM   H13B15130   1.375   2.297   5.912 -1.0943 -0.2224 -1.6463
  139OSM   H13C15131   1.423   2.400   6.055  2.4525 -0.4864 -1.7132
  139OSM    C1215132   1.228   2.232   6.141 -0.0553  0.1214  0.1508
  139OSM   H12A15133   1.244   2.136   6.095  0.3393 -0.5731  1.6996
  139OSM   H12B15134   1.133   2.202   6.184  0.6460 -0.8644  1.0393
  139OSM    C1115135   1.315   2.254   6.263 -0.8309  0.1492 -0.0713
  139OSM   H11A15136   1.273   2.190   6.343 -0.5695 -0.6268 -0.5571
  139OSM   H11B15137   1.310   2.356   6.309  0.0984 -0.6794  1.9560
  139OSM      P15138   1.516   2.091   6.198  0.0452 -0.3109  0.0045
  139OSM    O1315139   1.414   2.003   6.130  0.0343 -0.3216  0.0192
  139OSM    O1415140   1.633   2.120   6.120 -0.0592 -0.9292 -0.4810
  139OSM    O1115141   1.552   2.032   6.344  0.3752 -0.0613  0.0917
  139OSM    O1215142   1.454   2.236   6.230  0.1746  0.2220  0.6589
  139OSM    C1S15143   1.623   2.121   6.438 -0.6464 -0.0811  0.7526
  139OSM    H1S15144   1.661   2.215   6.392  0.1013 -0.3658  0.7831
  139OSM    H1T15145   1.715   2.066   6.466 -0.0375 -0.2811 -1.5995
  139OSM     NF15146   1.589   2.225   6.675  0.2606  0.5649 -0.3705
  139OSM    HNF15147   1.641   2.178   6.747 -1.1228 -0.4198  0.0032
  139OSM    C2S15148   1.529   2.150   6.569  0.3673  0.4446  0.3551
  139OSM    H2S15149   1.442   2.203   6.526  1.2540  0.6215 -1.2865
  139OSM    C3S15150   1.483   2.020   6.634 -0.4528 -0.2953  0.4190
  139OSM    H3S15151   1.566   1.955   6.668  1.6124  2.3288  0.5730
  139OSM     O315152   1.406   1.933   6.550  0.3722 -0.8925 -0.3226
  139OSM    HO315153   1.416   1.967   6.461  2.4912  1.2749  0.6965
  139OSM    C4S15154   1.391   2.045   6.749 -0.0513  0.9898 -0.4144
  139OSM    H4S15155   1.421   1.976   6.829  0.8169  2.1122  0.2548
  139OSM    C5S15156   1.285   2.119   6.766  1.0659  0.4858  0.2034
  139OSM    H5S15157   1.257   2.186   6.683  1.3581 -1.8136 -1.8052
  139OSM    C6S15158   1.210   2.116   6.900 -0.3675  0.2171  0.3968
  139OSM    H6S15159   1.214   2.020   6.957 -1.5767  1.7262  3.1268
  139OSM    H6T15160   1.102   2.136   6.883 -0.5988 -0.2242  1.3249
  139OSM    C7S15161   1.256   2.232   6.994 -0.8296  0.4587 -0.0046
  139OSM    H7S15162   1.243   2.329   6.941  2.7373  1.2403  0.4339
  139OSM    H7T15163   1.366   2.216   7.000 -0.9898 -0.2508  1.0703
  139OSM    C8S15164   1.198   2.223   7.139 -0.2752  0.1845 -0.3130
  139OSM    H8S15165   1.158   2.120   7.156 -1.3605  0.6839  0.2270
  139OSM    H8T15166   1.115   2.296   7.149 -2.3952 -2.0602 -0.9803
  139OSM    C9S15167   1.306   2.249   7.253 -0.1443  0.1908 -0.3419
  139OSM    H9S15168   1.331   2.355   7.232  2.0037 -0.2632 -0.1376
  139OSM    H9T15169   1.387   2.178   7.227 -1.6821 -2.2135  1.2448
  139OSM   C10S15170   1.240   2.219   7.391 -0.6523 -0.1556  0.6907
  139OSM   H10S15171   1.323   2.225   7.465 -1.3872  2.9921  1.3373
  139OSM   H10T15172   1.208   2.113   7.386 -0.6342 -0.1743  0.9705
  139OSM   C11S15173   1.128   2.312   7.429  0.5587 -0.0824 -0.2397
  139OSM   H11S15174   1.036   2.281   7.374  0.9810  1.9604 -2.1579
  139OSM   H11T15175   1.140   2.418   7.401  0.2296  0.4571  1.5852
  139OSM   C12S15176   1.099   2.296   7.583 -0.2478 -0.0697  0.7094
  139OSM   H12S15177   1.124   2.190   7.605  0.3052  0.6228  3.6835
  139OSM   H12T15178   0.993   2.319   7.606 -0.4384  0.3027 -0.5067
  139OSM   C13S15179   1.176   2.394   7.672  0.0016  0.3407  0.4226
  139OSM   H13S15180   1.154   2.500   7.648  1.1716  0.3108 -0.8506
  139OSM   H13T15181   1.284   2.377   7.653 -0.2047  0.1988 -0.6153
  139OSM   C14S15182   1.139   2.372   7.822 -0.0943 -0.9744 -0.2316
  139OSM   H14S15183   1.032   2.398   7.838  0.4163  0.9158  0.3129
  139OSM   H14T15184   1.201   2.441   7.883 -2.0819 -0.9629  1.8349
  139OSM   C15S15185   1.175   2.236   7.874  0.4639  0.6992 -0.3378
  139OSM   H15S15186   1.266   2.193   7.826  0.9302  1.0451  0.2378
  139OSM   H15T15187   1.087   2.173   7.848  0.1970  1.0891 -0.3850
  139OSM   C16S15188   1.185   2.246   8.027  1.0776  0.5684 -0.1621
  139OSM   H16S15189   1.087   2.284   8.062  0.1817  0.4397 -2.4616
  139OSM   H16T15190   1.270   2.316   8.041  0.9633  0.3473  1.7763
  139OSM   C17S15191   1.213   2.118   8.101 -0.4506  0.1449  0.2011
  139OSM   H17S15192   1.308   2.077   8.061 -0.8754  0.9481 -1.6763
  139OSM   H17T15193   1.136   2.042   8.074  1.1206 -1.5542  0.3796
  139OSM   C18S15194   1.206   2.135   8.257 -0.2421  0.2718  0.1410
  139OSM   H18S15195   1.293   2.194   8.292  0.3799  0.2440 -1.3248
  139OSM   H18T15196   1.211   2.040   8.314  1.6718  1.3785  1.8804
  139OSM   H18U15197   1.122   2.203   8.283 -1.2125 -0.7080 -0.3670
  139OSM    C1F15198   1.610   2.359   6.661 -0.5717  0.1709  0.1646
  139OSM     OF15199   1.586   2.422   6.556  0.1941  0.0608 -0.6250
  139OSM    C2F15200   1.684   2.429   6.765  0.6415  0.1775  0.1795
  139OSM    H2F15201   1.725   2.520   6.718 -0.2931 -1.4193 -3.9752
  139OSM    H2G15202   1.772   2.374   6.805 -1.0875 -2.0206  1.1052
  139OSM    C3F15203   1.591   2.457   6.891 -0.8947 -0.3361  0.2308
  139OSM    H3F15204   1.546   2.361   6.925  1.1161 -0.7375  1.8509
  139OSM    H3G15205   1.513   2.528   6.854  0.1593 -0.4598 -2.2685
  139OSM    C4F15206   1.672   2.510   7.011  1.1107 -0.1000  0.7226
  139OSM    H4F15207   1.683   2.617   6.982  0.1628 -0.5282 -1.2385
  139OSM    H4G15208   1.765   2.459   7.045  1.7243  0.6613  0.1876
  139OSM    C5F15209   1.581   2.516   7.140  0.5035  0.3879 -0.6318
  139OSM    H5F15210   1.543   2.414   7.161  2.0316 -0.5320 -2.1569
  139OSM    H5G15211   1.486   2.563   7.108  0.1997 -0.3573 -0.8366
  139OSM    C6F15212   1.644   2.592   7.256 -0.5120  0.1836  0.3343
  139OSM    H6F15213   1.656   2.699   7.227  1.5681  0.1959  1.1764
  139OSM    H6G15214   1.745   2.553   7.279 -0.8424 -0.7306  0.2445
  139OSM    C7F15215   1.556   2.606   7.383  0.8412  0.3069 -0.0583
  139OSM    H7F15216   1.540   2.501   7.416  0.9152  0.1654 -0.4658
  139OSM    H7G15217   1.458   2.644   7.347  1.2209  1.0271 -0.3303
  139OSM    C8F15218   1.616   2.708   7.484  0.7853  0.0646 -0.4933
  139OSM    H8F15219   1.632   2.805   7.431  0.2170  1.0159  1.0311
  139OSM    H8G15220   1.710   2.675   7.533  1.0589  3.1342  1.1934
  139OSM    C9F15221   1.513   2.736   7.595  0.2140  0.2561  0.3561
  139OSM    H9F15222   1.419   2.784   7.563  0.1276  0.2500  0.6032
  139OSM   C10F15223   1.516   2.720   7.726 -0.2668 -0.5556  0.4586
  139OSM   H10F15224   1.426   2.736   7.787 -0.0457 -0.4128  0.7512
  139OSM   C11F15225   1.638   2.679   7.794 -0.1457  0.1858 -0.5229
  139OSM   H11F15226   1.731   2.696   7.736 -0.2546 -1.9567 -1.3686
  139OSM   H11G15227   1.622   2.573   7.822 -3.9774  0.8989  0.2604
  139OSM   C12F15228   1.642   2.757   7.921 -0.2311 -0.9183  0.4407
  139OSM   H12F15229   1.732   2.728   7.979 -0.0830  4.2623  3.0589
  139OSM   H12G15230   1.549   2.740   7.980 -1.3447 -1.8251 -1.5145
  139OSM   C13F15231   1.635   2.908   7.913 -0.2850 -0.1106 -0.1507
  139OSM   H13F15232   1.536   2.957   7.912  0.2458  1.0791  2.1356
  139OSM   H13G15233   1.678   2.932   7.814 -0.4355 -0.0264 -0.1945
  139OSM   C14F15234   1.719   2.972   8.019 -0.1199 -0.0254 -0.3916
  139OSM   H14F15235   1.730   3.080   7.998 -0.6389  0.0991 -0.0262
  139OSM   H14G15236   1.823   2.935   8.001 -0.2098 -0.8344  0.6652
  139OSM   C15F15237   1.667   2.942   8.156 -0.1323 -0.3723  0.3178
  139OSM   H15F15238   1.750   2.951   8.229  1.2753  0.3398 -1.3660
  139OSM   H15G15239   1.624   2.843   8.185  1.5438 -0.5528  2.3153
  139OSM   C16F15240   1.547   3.043   8.202  0.0409  0.8049 -0.0032
  139OSM   H16F15241   1.458   3.016   8.141 -1.1452  0.3083  1.9144
  139OSM   H16G15242   1.569   3.148   8.176 -1.9650  0.7469 -2.1293
  139OSM   C17F15243   1.507   3.028   8.349 -0.6297 -0.1966 -0.0596
  139OSM   H17F15244   1.498   2.920   8.374 -0.9535  0.0176  0.7822
  139OSM   H17G15245   1.412   3.086   8.346 -0.5896 -0.1761 -1.1935
  139OSM   C18F15246   1.608   3.085   8.446 -0.3181  0.1624  0.3913
  139OSM   H18F15247   1.711   3.051   8.421 -0.9788 -0.7280 -1.1730
  139OSM   H18G15248   1.582   3.070   8.553 -0.3149 -1.5357  0.1695
  139OSM   H18H15249   1.607   3.195   8.433  2.7481  0.3219  0.9820
  140OSM      N15250   1.909   4.006   6.024 -0.4383  0.5266 -0.0783
  140OSM    C1515251   2.000   4.050   5.918 -0.3181 -0.0915 -0.9144
  140OSM   H15A15252   1.950   4.046   5.823 -0.5305 -0.9969 -0.7708
  140OSM   H15B15253   2.085   3.986   5.898 -1.2154 -1.3926 -0.5628
  140OSM   H15C15254   2.044   4.143   5.952  1.3374 -0.6215 -1.5577
  140OSM    C1415255   1.808   4.122   6.033  0.2864 -0.1874  0.3559
  140OSM   H14A15256   1.716   4.100   6.084 -0.5198  0.3701 -0.8147
  140OSM   H14B15257   1.775   4.146   5.933  0.0224 -1.3765  0.1509
  140OSM   H14C15258   1.852   4.209   6.080 -0.3363 -0.6043  1.7185
  140OSM    C1315259   1.832   3.878   5.993  0.0793  0.5177  0.6129
  140OSM   H13A15260   1.909   3.812   5.955 -1.8801 -0.2013 -2.2140
  140OSM   H13B15261   1.761   3.887   5.913 -0.4285 -2.2792  0.6985
  140OSM   H13C15262   1.792   3.831   6.082  1.5864 -0.3763  0.8512
  140OSM    C1215263   1.991   3.990   6.154  0.3337  0.1055 -0.4308
  140OSM   H12A15264   2.067   4.067   6.153  0.5319 -0.0745  0.2947
  140OSM   H12B15265   2.040   3.893   6.158  0.4091 -0.0332 -3.7794
  140OSM    C1115266   1.908   4.000   6.285 -0.4903 -0.3017 -0.0057
  140OSM   H11A15267   1.980   3.980   6.367 -0.4943  0.6580  0.2440
  140OSM   H11B15268   1.835   3.917   6.288  1.4617 -2.1969 -2.7516
  140OSM      P15269   1.717   4.159   6.380 -0.0297  0.1993  0.2535
  140OSM    O1315270   1.706   4.308   6.380 -0.5797  0.5044  0.4931
  140OSM    O1415271   1.611   4.087   6.309  0.1075  0.8205  0.8675
  140OSM    O1115272   1.720   4.110   6.527 -0.2657  0.3324  0.2717
  140OSM    O1215273   1.856   4.136   6.310 -0.2475  0.8542 -0.4066
  140OSM    C1S15274   1.840   4.133   6.607 -0.2502  0.7559  0.5619
  140OSM    H1S15275   1.892   4.229   6.588 -1.2838  1.6228  2.0487
  140OSM    H1T15276   1.920   4.058   6.589  0.7944  2.1788 -0.9783
  140OSM     NF15277   1.934   4.134   6.829  0.7342  0.4180  0.2881
  140OSM    HNF15278   1.964   4.048   6.869 -1.7126 -0.1127  1.0801
  140OSM    C2S15279   1.804   4.129   6.762 -0.2016  0.7037 -0.0887
  140OSM    H2S15280   1.747   4.220   6.792  0.1454  1.1682 -0.8097
  140OSM    C3S15281   1.722   4.005   6.798  0.5316  0.5139 -0.1290
  140OSM    H3S15282   1.782   3.919   6.761 -1.0687 -1.9750  2.8089
  140OSM     O315283   1.605   3.990   6.723  0.3214 -0.2275 -0.5366
  140OSM    HO315284   1.636   4.024   6.638  0.7614  2.2582  0.5562
  140OSM    C4S15285   1.693   3.991   6.940  0.5525 -0.7328 -0.3182
  140OSM    H4S15286   1.782   3.942   6.983  0.7982 -1.1179 -1.2599
  140OSM    C5S15287   1.590   4.049   7.013  0.2997  0.2093 -0.5509
  140OSM    H5S15288   1.524   4.110   6.950 -1.1935  0.2207  0.9778
  140OSM    C6S15289   1.570   4.060   7.161  0.7156  0.5461 -0.2427
  140OSM    H6S15290   1.479   4.000   7.183  0.1800  1.2888 -0.4541
  140OSM    H6T15291   1.540   4.165   7.176  0.7354  0.6832 -1.1802
  140OSM    C7S15292   1.681   4.010   7.254  0.2553 -0.9876  0.0561
  140OSM    H7S15293   1.770   4.072   7.230 -2.3788  2.9362 -0.2768
  140OSM    H7T15294   1.710   3.905   7.233 -1.4254 -0.9797 -2.5873
  140OSM    C8S15295   1.628   4.036   7.398  0.4238  0.4549 -0.0172
  140OSM    H8S15296   1.532   3.986   7.424 -0.8996  2.0227 -1.6961
  140OSM    H8T15297   1.618   4.147   7.401  5.0867  0.9497  0.7963
  140OSM    C9S15298   1.731   3.992   7.506  0.3701  0.3600 -0.2913
  140OSM    H9S15299   1.834   4.006   7.467  0.0417  0.2631 -1.2171
  140OSM    H9T15300   1.720   3.883   7.520  0.9154  0.3396  0.0286
  140OSM   C10S15301   1.701   4.060   7.638  0.7392  0.5765 -0.0682
  140OSM   H10S15302   1.599   4.033   7.671  0.9084 -2.3857 -1.7588
  140OSM   H10T15303   1.695   4.171   7.628 -0.8452  0.3682 -1.4564
  140OSM   C11S15304   1.797   4.017   7.745 -0.1022  0.1987  0.4245
  140OSM   H11S15305   1.891   4.075   7.733  0.7705 -1.6476 -1.9593
  140OSM   H11T15306   1.826   3.912   7.726 -1.9415 -0.4396  0.9646
  140OSM   C12S15307   1.747   4.035   7.890  0.3145  0.4281 -1.1007
  140OSM   H12S15308   1.687   3.951   7.932  0.8527  0.7722  0.4055
  140OSM   H12T15309   1.683   4.126   7.902 -0.5739 -0.3972  0.6433
  140OSM   C13S15310   1.864   4.054   7.990  0.1891  0.1787  0.3481
  140OSM   H13S15311   1.921   4.137   7.945 -0.5982  0.7370  0.3674
  140OSM   H13T15312   1.917   3.957   8.001  0.9903  0.5493 -0.2523
  140OSM   C14S15313   1.821   4.081   8.140  0.3777  0.3891  0.2110
  140OSM   H14S15314   1.747   4.164   8.131  0.4820  0.6058  1.2943
  140OSM   H14T15315   1.902   4.125   8.202  0.2010  0.8601  0.1081
  140OSM   C15S15316   1.754   3.952   8.197 -0.1822  0.3793 -0.9764
  140OSM   H15S15317   1.801   3.864   8.148 -3.5457 -1.4457 -1.0563
  140OSM   H15T15318   1.646   3.952   8.173 -0.8735  1.5590  1.9053
  140OSM   C16S15319   1.767   3.927   8.347  0.3815  0.6677  0.6488
  140OSM   H16S15320   1.871   3.895   8.369  0.4106  0.4536  0.1978
  140OSM   H16T15321   1.695   3.845   8.367 -0.1930  0.2231 -2.8322
  140OSM   C17S15322   1.716   4.041   8.439 -0.5724 -0.3687  0.2993
  140OSM   H17S15323   1.790   4.124   8.436  1.4993 -2.1622  0.1066
  140OSM   H17T15324   1.704   3.988   8.536 -1.0064  1.6144  1.3490
  140OSM   C18S15325   1.580   4.088   8.397  0.4504  0.4057  0.4387
  140OSM   H18S15326   1.583   4.131   8.295  0.8104 -0.0968  0.2379
  140OSM   H18T15327   1.550   4.173   8.462 -3.3425 -0.3991 -0.1376
  140OSM   H18U15328   1.494   4.018   8.390 -0.5737  1.4170  2.3672
  140OSM    C1F15329   2.015   4.240   6.827 -0.0402 -1.0054  0.6207
  140OSM     OF15330   1.984   4.352   6.788  0.2269 -0.4871 -0.0566
  140OSM    C2F15331   2.153   4.211   6.871  0.9227  0.3291  0.3024
  140OSM    H2F15332   2.211   4.143   6.805 -1.7135 -1.0730 -0.6518
  140OSM    H2G15333   2.140   4.158   6.968  0.5061  0.0554  0.0980
  140OSM    C3F15334   2.232   4.341   6.903 -0.6415 -0.2586  0.0186
  140OSM    H3F15335   2.179   4.399   6.981  0.8537  1.9861 -0.5773
  140OSM    H3G15336   2.235   4.402   6.810  1.9727  2.9785  2.1025
  140OSM    C4F15337   2.375   4.304   6.947 -0.1907  0.6951 -0.0731
  140OSM    H4F15338   2.433   4.394   6.975  1.8202  0.1723 -2.3354
  140OSM    H4G15339   2.436   4.258   6.866  0.9597  2.8894 -0.4924
  140OSM    C5F15340   2.379   4.208   7.067 -0.2503 -0.8309  0.1386
  140OSM    H5F15341   2.345   4.109   7.031  1.4918 -1.8474  1.1916
  140OSM    H5G15342   2.313   4.242   7.150 -0.2184  1.5257 -0.7610
  140OSM    C6F15343   2.529   4.189   7.112 -0.4360 -0.4245 -0.1987
  140OSM    H6F15344   2.581   4.285   7.095  0.4656 -0.5879  1.5743
  140OSM    H6G15345   2.580   4.122   7.040 -1.1025 -0.7099 -0.4133
  140OSM    C7F15346   2.553   4.138   7.254 -0.0258 -0.1363  0.0429
  140OSM    H7F15347   2.498   4.042   7.261  1.0391 -0.7494  0.1435
  140OSM    H7G15348   2.517   4.222   7.316 -2.3761  0.7905 -2.4733
  140OSM    C8F15349   2.703   4.110   7.278  0.8432  0.5700 -0.3662
  140OSM    H8F15350   2.724   4.044   7.191 -4.2066  0.1483 -1.3821
  140OSM    H8G15351   2.725   4.044   7.366  1.1432  0.3632 -0.5949
  140OSM    C9F15352   2.776   4.238   7.293  0.6114 -0.8367  0.6698
  140OSM    H9F15353   2.764   4.300   7.203  0.4661 -0.6824  0.7956
  140OSM   C10F15354   2.863   4.284   7.389  0.5684  0.3108 -0.3248
  140OSM   H10F15355   2.884   4.391   7.379  0.1075  0.6707  2.2442
  140OSM   C11F15356   2.914   4.218   7.514  0.1126  0.1360 -0.0418
  140OSM   H11F15357   2.878   4.114   7.526  1.0770 -0.1264  0.6310
  140OSM   H11G15358   2.884   4.280   7.601  0.3944 -2.8961  2.3023
  140OSM   C12F15359   3.068   4.209   7.516  0.1146  0.0293 -0.2884
  140OSM   H12F15360   3.104   4.313   7.499 -0.1897  0.1478 -0.2109
  140OSM   H12G15361   3.099   4.141   7.433  1.3931 -1.0881  1.0837
  140OSM   C13F15362   3.119   4.145   7.643 -0.5631 -0.0782 -0.2823
  140OSM   H13F15363   3.080   4.041   7.643 -1.2919  0.1562  2.1014
  140OSM   H13G15364   3.083   4.193   7.737 -2.4526 -0.4698 -0.7803
  140OSM   C14F15365   3.272   4.128   7.647 -0.6942 -0.2635  0.0129
  140OSM   H14F15366   3.316   4.224   7.613 -2.2075 -0.4768 -2.7161
  140OSM   H14G15367   3.316   4.062   7.569  1.5952  1.8541 -0.5153
  140OSM   C15F15368   3.330   4.079   7.780 -0.4331 -0.9315  0.0409
  140OSM   H15F15369   3.316   3.970   7.791 -1.8232 -1.0323 -2.4026
  140OSM   H15G15370   3.278   4.134   7.861  0.3560  0.3908 -0.3256
  140OSM   C16F15371   3.484   4.115   7.785  0.1937 -0.2299  0.3359
  140OSM   H16F15372   3.517   4.075   7.883 -1.8027  1.0067  1.5529
  140OSM   H16G15373   3.492   4.225   7.781  1.9121 -0.2503  2.2925
  140OSM   C17F15374   3.565   4.047   7.679  0.0218 -0.7159 -0.1118
  140OSM   H17F15375   3.521   4.076   7.582 -1.2787 -1.0942  0.3530
  140OSM   H17G15376   3.553   3.938   7.696  0.0832 -1.1467 -2.7079
  140OSM   C18F15377   3.717   4.078   7.666  0.0866  1.0070  0.4714
  140OSM   H18F15378   3.755   4.068   7.562 -0.6149  0.3201  0.2784
  140OSM   H18G15379   3.776   4.010   7.730 -0.2915 -1.4900 -1.7290
  140OSM   H18H15380   3.731   4.186   7.691  1.7961  0.7740  0.5549
  141OSM      N15381   1.596   6.266   6.201  0.7155 -0.6070 -0.1933
  141OSM    C1515382   1.566   6.324   6.075  0.0289  0.1183 -0.1330
  141OSM   H15A15383   1.643   6.392   6.041  0.6971 -0.3805  0.3577
  141OSM   H15B15384   1.463   6.354   6.070 -0.2774 -0.9475 -0.1966
  141OSM   H15C15385   1.558   6.252   5.995  0.2298  0.4616 -0.4681
  141OSM    C1415386   1.732   6.202   6.194  0.3634 -0.0018  0.2447
  141OSM   H14A15387   1.807   6.272   6.160 -1.0465  1.5003  0.1471
  141OSM   H14B15388   1.733   6.118   6.126  2.4364 -0.1085  0.3689
  141OSM   H14C15389   1.778   6.171   6.286 -1.1985 -0.9941  0.7061
  141OSM    C1315390   1.614   6.372   6.312 -0.3907  0.1562  0.0150
  141OSM   H13A15391   1.591   6.325   6.407  3.9217 -0.4575  0.8527
  141OSM   H13B15392   1.527   6.436   6.315 -0.9046 -0.6172  2.8803
  141OSM   H13C15393   1.704   6.431   6.312 -0.0543 -0.3215 -1.4012
  141OSM    C1215394   1.493   6.154   6.248 -0.4060 -0.4725  0.1088
  141OSM   H12A15395   1.406   6.207   6.285 -0.9404 -1.0137 -0.3600
  141OSM   H12B15396   1.531   6.103   6.335 -0.9016  0.5233  0.9284
  141OSM    C1115397   1.458   6.043   6.145 -0.8110 -0.7947 -0.5094
  141OSM   H11A15398   1.406   6.094   6.061 -0.4845 -1.0117 -0.8457
  141OSM   H11B15399   1.383   5.976   6.193  0.7750 -1.8310  0.5683
  141OSM      P15400   1.631   5.848   6.173 -0.2617 -0.1920 -0.0675
  141OSM    O1315401   1.590   5.724   6.106  0.6424  0.2664 -0.5591
  141OSM    O1415402   1.771   5.875   6.195 -0.1830  0.2835 -0.3001
  141OSM    O1115403   1.552   5.843   6.306 -0.2375  0.2857 -0.5250
  141OSM    O1215404   1.564   5.959   6.089  0.6589 -0.0278  0.1855
  141OSM    C1S15405   1.615   5.867   6.432  0.0450 -0.2516 -0.1290
  141OSM    H1S15406   1.641   5.975   6.423 -2.5424  0.3753 -0.6120
  141OSM    H1T15407   1.697   5.800   6.465  0.9063  1.3521  1.0851
  141OSM     NF15408   1.551   5.883   6.684  0.1599 -0.7406 -0.2475
  141OSM    HNF15409   1.547   5.808   6.750  1.3872 -1.8798 -1.4453
  141OSM    C2S15410   1.503   5.860   6.548 -0.3778  0.7375  0.0117
  141OSM    H2S15411   1.429   5.940   6.528 -2.0169 -0.7009  0.1693
  141OSM    C3S15412   1.426   5.724   6.539 -0.7520 -0.2099 -0.3228
  141OSM    H3S15413   1.498   5.649   6.579  1.6522  1.4171 -1.4916
  141OSM     O315414   1.382   5.678   6.411  0.0746  0.0994  0.0545
  141OSM    HO315415   1.435   5.734   6.353 -0.1430 -0.3016 -0.5278
  141OSM    C4S15416   1.303   5.725   6.633 -0.3920  1.1319 -0.5740
  141OSM    H4S15417   1.328   5.687   6.734 -1.1074  1.2297 -0.3569
  141OSM    C5S15418   1.182   5.755   6.598 -0.4602 -0.0166 -0.4275
  141OSM    H5S15419   1.166   5.777   6.491  0.8533 -0.5418 -0.7373
  141OSM    C6S15420   1.053   5.745   6.673 -0.0703  0.4181  0.6533
  141OSM    H6S15421   0.984   5.674   6.623  0.6987  0.0980  0.0412
  141OSM    H6T15422   0.996   5.840   6.667  0.0837  0.3295 -3.0438
  141OSM    C7S15423   1.070   5.708   6.828  0.2371  0.1871  0.0977
  141OSM    H7S15424   1.145   5.776   6.873 -0.6200  1.0520  0.2233
  141OSM    H7T15425   1.119   5.608   6.836  0.7503  0.5537  1.6947
  141OSM    C8S15426   0.951   5.694   6.922  0.1264  0.2452 -0.7832
  141OSM    H8S15427   0.890   5.605   6.896 -0.0165  0.0786  0.1123
  141OSM    H8T15428   0.893   5.788   6.924  2.4728  1.7568 -1.3079
  141OSM    C9S15429   1.002   5.691   7.072  0.1281  0.5018  0.1445
  141OSM    H9S15430   1.073   5.776   7.077  1.2777 -0.2375 -2.8110
  141OSM    H9T15431   1.071   5.604   7.077  0.9480  1.0369 -1.3477
  141OSM   C10S15432   0.897   5.679   7.183 -0.3847  0.5910 -0.1473
  141OSM   H10S15433   0.823   5.596   7.175 -0.3577  0.6452 -0.9450
  141OSM   H10T15434   0.845   5.776   7.196  0.5521  0.5880  4.7306
  141OSM   C11S15435   0.977   5.665   7.316  0.1599  0.5312 -0.0519
  141OSM   H11S15436   1.057   5.742   7.326 -0.6418  1.0984  2.1896
  141OSM   H11T15437   1.026   5.565   7.324 -1.6214 -0.1991  2.2282
  141OSM   C12S15438   0.890   5.685   7.442 -0.6800 -0.3477  0.6726
  141OSM   H12S15439   0.788   5.642   7.440 -0.1065 -1.8261  2.5932
  141OSM   H12T15440   0.877   5.795   7.436 -1.0127 -0.3796  0.8348
  141OSM   C13S15441   0.957   5.635   7.569 -0.1680  0.7222 -0.0126
  141OSM   H13S15442   1.062   5.670   7.569  0.0384  0.1863  1.9436
  141OSM   H13T15443   0.965   5.525   7.585 -1.0799  0.6659  0.0698
  141OSM   C14S15444   0.877   5.688   7.698 -0.2287  0.1309 -0.1502
  141OSM   H14S15445   0.777   5.640   7.696 -0.1551 -0.0410  0.1817
  141OSM   H14T15446   0.867   5.798   7.690 -0.0413  0.2595  1.3643
  141OSM   C15S15447   0.944   5.662   7.834  0.0790  0.0313 -0.7229
  141OSM   H15S15448   1.042   5.714   7.835  0.4854 -0.7465  2.1838
  141OSM   H15T15449   0.960   5.554   7.852 -0.5221 -0.1022 -0.9517
  141OSM   C16S15450   0.855   5.717   7.946  0.0823  0.1800 -0.7618
  141OSM   H16S15451   0.760   5.661   7.957  0.4106 -0.2871 -0.2408
  141OSM   H16T15452   0.833   5.825   7.935 -0.8152 -0.1207 -2.0352
  141OSM   C17S15453   0.930   5.699   8.080 -0.0831  0.7206 -0.1347
  141OSM   H17S15454   1.022   5.761   8.072 -0.3021  1.0058 -0.4386
  141OSM   H17T15455   0.963   5.596   8.105  0.1182  0.5065 -1.2634
  141OSM   C18S15456   0.843   5.743   8.206 -0.4072 -0.0311 -0.2763
  141OSM   H18S15457   0.816   5.850   8.199 -2.5504 -0.6434 -1.8847
  141OSM   H18T15458   0.890   5.717   8.303 -2.1775 -1.1896  0.2894
  141OSM   H18U15459   0.744   5.693   8.208  0.6781 -2.2419 -0.2796
  141OSM    C1F15460   1.621   5.990   6.712  0.2130 -0.5843  0.5208
  141OSM     OF15461   1.630   6.078   6.627 -0.0194  0.0402 -0.3442
  141OSM    C2F15462   1.683   5.993   6.848  0.2185 -0.4676  0.7181
  141OSM    H2F15463   1.768   5.922   6.847  0.9296  0.4021 -0.4492
  141OSM    H2G15464   1.602   5.979   6.924 -0.8305  2.9174  0.3123
  141OSM    C3F15465   1.734   6.132   6.893 -0.0648  0.7929 -0.2638
  141OSM    H3F15466   1.653   6.209   6.885 -0.9098 -0.1660 -1.2136
  141OSM    H3G15467   1.821   6.163   6.832  0.3470  3.1672  1.4730
  141OSM    C4F15468   1.767   6.136   7.040  0.5325 -0.2730  1.1211
  141OSM    H4F15469   1.696   6.083   7.107  1.5121 -0.3228  2.1241
  141OSM    H4G15470   1.768   6.243   7.071  0.2538  0.3160 -0.8294
  141OSM    C5F15471   1.903   6.078   7.079  0.7341 -0.1701 -0.2442
  141OSM    H5F15472   1.977   6.120   7.008  0.4484  1.8382  0.5895
  141OSM    H5G15473   1.901   5.968   7.065  0.8133 -0.1966 -0.0355
  141OSM    C6F15474   1.951   6.123   7.212  0.0103 -0.5912 -0.2551
  141OSM    H6F15475   1.876   6.095   7.289  0.4967 -0.8333  0.1365
  141OSM    H6G15476   1.958   6.234   7.211 -2.2658 -0.3806  2.0717
  141OSM    C7F15477   2.089   6.071   7.246  0.1262 -0.0355 -0.5469
  141OSM    H7F15478   2.172   6.126   7.198 -0.6587  1.3072 -0.3801
  141OSM    H7G15479   2.095   5.962   7.225  0.7168 -0.6811  2.6572
  141OSM    C8F15480   2.120   6.084   7.401  0.4589  0.2042 -0.6118
  141OSM    H8F15481   2.204   6.013   7.415  1.5781  1.6432  0.0897
  141OSM    H8G15482   2.036   6.028   7.448 -0.7869  3.5864  1.3515
  141OSM    C9F15483   2.139   6.218   7.473  0.7791 -0.2901  0.5239
  141OSM    H9F15484   2.180   6.310   7.428  1.8421 -1.1867 -0.3669
  141OSM   C10F15485   2.114   6.221   7.611  0.4093 -0.0627 -0.4151
  141OSM   H10F15486   2.126   6.318   7.662 -0.0758  1.3458 -2.8801
  141OSM   C11F15487   2.075   6.113   7.701  0.6714  0.3721 -0.3221
  141OSM   H11F15488   2.066   6.019   7.644  0.9064  0.7967 -1.0577
  141OSM   H11G15489   1.968   6.135   7.726  1.2311  2.5839  0.3032
  141OSM   C12F15490   2.159   6.088   7.823 -0.0853 -0.0630 -0.4525
  141OSM   H12F15491   2.269   6.087   7.807  0.7453 -1.0268  4.5060
  141OSM   H12G15492   2.143   5.988   7.867  2.1459 -0.1697  0.2087
  141OSM   C13F15493   2.117   6.186   7.931 -0.2856  0.4108  0.3734
  141OSM   H13F15494   2.008   6.207   7.930 -0.5597 -0.9726 -1.1332
  141OSM   H13G15495   2.152   6.285   7.894  1.7364 -0.8638 -1.1947
  141OSM   C14F15496   2.162   6.146   8.072 -0.7524 -0.1866 -0.3362
  141OSM   H14F15497   2.267   6.116   8.057 -1.0202 -2.7156  2.5329
  141OSM   H14G15498   2.093   6.063   8.097  0.0274 -0.7203  0.0270
  141OSM   C15F15499   2.140   6.257   8.178 -0.5646 -0.1923  0.4722
  141OSM   H15F15500   2.192   6.208   8.263  0.0307  0.7152  0.6331
  141OSM   H15G15501   2.034   6.279   8.202 -0.4548  1.8619 -0.7954
  141OSM   C16F15502   2.206   6.393   8.148  0.6728  0.0071 -0.0254
  141OSM   H16F15503   2.135   6.443   8.079  1.7054  1.4806 -0.0399
  141OSM   H16G15504   2.305   6.391   8.100  0.3396  0.5610 -0.7436
  141OSM   C17F15505   2.228   6.472   8.271  0.0817 -0.7002  0.1228
  141OSM   H17F15506   2.285   6.413   8.347 -1.0483 -0.6056  1.0532
  141OSM   H17G15507   2.133   6.503   8.319 -0.0078  2.3595 -1.9290
  141OSM   C18F15508   2.299   6.608   8.240 -0.0500 -0.3937  0.4419
  141OSM   H18F15509   2.234   6.683   8.190  0.8446 -0.0697 -0.2399
  141OSM   H18G15510   2.387   6.571   8.183 -0.0564  0.6876 -0.2914
  141OSM   H18H15511   2.347   6.649   8.331  0.0480  0.2096  0.1198
  142OSM      N15512   1.610   0.644   6.038 -0.0437 -0.7053  0.4992
  142OSM    C1515513   1.584   0.789   6.007  0.5514 -0.1440 -0.9393
  142OSM   H15A15514   1.610   0.816   5.905 -0.5774  0.7762 -0.9879
  142OSM   H15B15515   1.623   0.843   6.092  0.0677  1.8383 -1.9296
  142OSM   H15C15516   1.478   0.806   6.018  0.8569  0.5771  1.0521
  142OSM    C1415517   1.573   0.562   5.923 -0.3244 -0.2202  0.2838
  142OSM   H14A15518   1.466   0.563   5.904 -0.5724 -0.9437  1.5800
  142OSM   H14B15519   1.605   0.461   5.942  0.1673 -0.2278 -0.6078
  142OSM   H14C15520   1.627   0.581   5.832 -0.0696 -0.4442  0.3883
  142OSM    C1315521   1.759   0.629   6.062 -0.1172  0.4692  0.3454
  142OSM   H13A15522   1.820   0.667   5.981  0.9809 -0.9503  0.4813
  142OSM   H13B15523   1.783   0.523   6.064 -3.2087 -0.3771 -2.9621
  142OSM   H13C15524   1.788   0.682   6.151  2.7087 -1.4025  0.6167
  142OSM    C1215525   1.532   0.583   6.163 -0.2009  0.0892  0.9659
  142OSM   H12A15526   1.567   0.483   6.183 -2.6463 -0.6788  1.5195
  142OSM   H12B15527   1.429   0.575   6.133  0.0377 -0.9868  0.4295
  142OSM    C1115528   1.546   0.662   6.302 -0.0332 -0.3626 -0.2671
  142OSM   H11A15529   1.648   0.645   6.342  0.6510  2.0711 -0.9258
  142OSM   H11B15530   1.483   0.606   6.375 -0.1287 -0.2706 -0.2784
  142OSM      P15531   1.379   0.853   6.340  0.0037 -0.1583  0.1296
  142OSM    O1315532   1.368   0.993   6.303 -0.7521 -0.5227  0.4305
  142OSM    O1415533   1.272   0.766   6.288 -0.5782 -0.6234 -0.4116
  142OSM    O1115534   1.401   0.838   6.497  0.3273 -0.0675  0.2004
  142OSM    O1215535   1.516   0.801   6.288  0.9365 -0.2672  0.2603
  142OSM    C1S15536   1.526   0.859   6.562 -0.4760 -0.2914 -0.5689
  142OSM    H1S15537   1.582   0.937   6.505  0.4972  0.1598  0.9686
  142OSM    H1T15538   1.589   0.768   6.563 -1.0881 -0.7093 -0.1940
  142OSM     NF15539   1.620   0.943   6.776  0.6264 -0.1000  1.3616
  142OSM    HNF15540   1.644   0.896   6.860  0.9848 -1.7829  0.3424
  142OSM    C2S15541   1.499   0.902   6.710 -0.2964 -0.0350 -0.2337
  142OSM    H2S15542   1.430   0.989   6.708  0.0950  0.3448  1.8836
  142OSM    C3S15543   1.424   0.784   6.778  0.8604  0.1672 -0.5021
  142OSM    H3S15544   1.481   0.691   6.761 -0.4069 -0.9177  1.0483
  142OSM     O315545   1.294   0.771   6.731 -0.0450  0.5070  0.6945
  142OSM    HO315546   1.301   0.823   6.650  0.4556 -0.4944  0.0910
  142OSM    C4S15547   1.405   0.797   6.926  0.1448 -0.3000  0.0515
  142OSM    H4S15548   1.492   0.753   6.977 -0.2294  0.3828  1.2882
  142OSM    C5S15549   1.295   0.829   7.001 -0.3779 -0.3110 -0.7864
  142OSM    H5S15550   1.196   0.844   6.955  0.3483 -0.4788 -2.4253
  142OSM    C6S15551   1.302   0.823   7.152 -0.2892 -0.4209  0.1998
  142OSM    H6S15552   1.291   0.716   7.177 -0.0360 -0.4988 -0.0251
  142OSM    H6T15553   1.220   0.877   7.205  1.1641  0.5176  1.5590
  142OSM    C7S15554   1.436   0.881   7.209 -0.2734 -0.0075  0.6142
  142OSM    H7S15555   1.417   0.991   7.215  3.0712  0.5543  1.8254
  142OSM    H7T15556   1.528   0.858   7.150 -1.1099  0.9166 -1.1116
  142OSM    C8S15557   1.444   0.844   7.361  0.5906  0.4314 -0.2943
  142OSM    H8S15558   1.422   0.739   7.390  1.0602  0.6211  0.8068
  142OSM    H8T15559   1.367   0.902   7.418 -1.5369  0.2699 -2.9180
  142OSM    C9S15560   1.583   0.873   7.422 -0.3826 -0.5324  0.2301
  142OSM    H9S15561   1.621   0.970   7.383 -0.3701 -0.6006  0.0691
  142OSM    H9T15562   1.658   0.798   7.388 -2.0787 -1.5576 -1.4107
  142OSM   C10S15563   1.592   0.880   7.580  0.3208  0.0845 -0.2516
  142OSM   H10S15564   1.699   0.882   7.609  0.5016 -0.1904 -0.8897
  142OSM   H10T15565   1.536   0.797   7.629 -1.7678 -0.4841 -3.4432
  142OSM   C11S15566   1.526   1.006   7.637  0.2347  0.6309  0.5509
  142OSM   H11S15567   1.421   0.999   7.598 -0.4621  1.2416  2.2878
  142OSM   H11T15568   1.586   1.089   7.595  0.2121 -1.0323 -3.0479
  142OSM   C12S15569   1.533   0.997   7.792 -0.3698 -0.7362 -0.0572
  142OSM   H12S15570   1.508   0.890   7.810 -0.7233 -0.9533 -1.7402
  142OSM   H12T15571   1.460   1.065   7.840 -0.2341 -1.1902  0.7880
  142OSM   C13S15572   1.675   1.028   7.850  0.2362  1.1118  0.5028
  142OSM   H13S15573   1.722   1.107   7.789  0.4542 -0.4396 -1.3850
  142OSM   H13T15574   1.731   0.933   7.831 -0.0966  0.9386  0.3889
  142OSM   C14S15575   1.661   1.066   8.000  0.4323 -0.3012  0.4141
  142OSM   H14S15576   1.570   1.129   8.006 -0.9912 -2.3435  1.0271
  142OSM   H14T15577   1.750   1.125   8.030 -0.0379  0.7194 -0.1780
  142OSM   C15S15578   1.652   0.944   8.098 -0.2711  1.2512  0.5020
  142OSM   H15S15579   1.741   0.879   8.092 -1.3583 -0.1080 -1.2966
  142OSM   H15T15580   1.569   0.877   8.067  1.5928 -0.5293 -0.7452
  142OSM   C16S15581   1.635   0.984   8.245 -0.5521 -0.0593  0.6524
  142OSM   H16S15582   1.552   1.059   8.247  2.5477  3.5738 -0.3030
  142OSM   H16T15583   1.724   1.044   8.275  1.6217 -2.6398 -0.4459
  142OSM   C17S15584   1.611   0.867   8.352 -1.0403  0.1122 -0.1451
  142OSM   H17S15585   1.710   0.817   8.357 -1.3386 -0.4675 -0.0454
  142OSM   H17T15586   1.526   0.808   8.311  0.9080 -1.4904 -2.0102
  142OSM   C18S15587   1.550   0.930   8.484  0.1360  0.5833  0.5570
  142OSM   H18S15588   1.511   0.858   8.559 -0.0463  0.3951  0.2819
  142OSM   H18T15589   1.486   1.017   8.459  3.0636  2.8328  0.5540
  142OSM   H18U15590   1.638   0.985   8.525  1.2651  0.3901 -1.5215
  142OSM    C1F15591   1.705   1.045   6.728 -0.5215  0.5253 -0.1248
  142OSM     OF15592   1.683   1.114   6.628  0.2169 -0.1661  0.1683
  142OSM    C2F15593   1.828   1.088   6.814  0.5751  0.0775 -0.6191
  142OSM    H2F15594   1.916   1.052   6.757  1.1210  1.1148 -0.4563
  142OSM    H2G15595   1.814   1.037   6.912  2.8132 -0.5742 -0.6192
  142OSM    C3F15596   1.829   1.242   6.845  0.2147  0.9289  0.0712
  142OSM    H3F15597   1.821   1.306   6.754  0.3085  0.9188  0.0556
  142OSM    H3G15598   1.924   1.270   6.895  0.0769  1.6077 -0.0439
  142OSM    C4F15599   1.710   1.284   6.938 -0.0716 -0.0407  0.1872
  142OSM    H4F15600   1.610   1.262   6.893  0.5561 -1.5778 -0.5034
  142OSM    H4G15601   1.713   1.391   6.968  2.6842  0.0162 -0.2479
  142OSM    C5F15602   1.701   1.207   7.067 -0.2898 -0.7426 -0.0984
  142OSM    H5F15603   1.804   1.204   7.109 -0.2887  0.0678 -0.0489
  142OSM    H5G15604   1.681   1.101   7.041 -3.6390  0.3835 -2.4362
  142OSM    C6F15605   1.605   1.270   7.170 -0.1547 -0.0360  0.1513
  142OSM    H6F15606   1.564   1.195   7.241 -3.6149 -0.4593 -2.1840
  142OSM    H6G15607   1.526   1.316   7.106 -2.0319 -0.4601  2.0955
  142OSM    C7F15608   1.677   1.373   7.262 -0.0974  0.4799  0.2797
  142OSM    H7F15609   1.718   1.451   7.194 -0.2538 -0.3334 -0.7505
  142OSM    H7G15610   1.757   1.328   7.324 -1.2305 -1.8153  0.1459
  142OSM    C8F15611   1.576   1.455   7.353 -0.0122 -0.1349  0.1174
  142OSM    H8F15612   1.521   1.377   7.410  0.2962 -0.8549 -0.5656
  142OSM    H8G15613   1.510   1.505   7.279 -2.2120  0.2449  2.2707
  142OSM    C9F15614   1.637   1.560   7.440 -0.4035  0.5326  0.2423
  142OSM    H9F15615   1.709   1.634   7.402 -0.3244  0.7922  0.8878
  142OSM   C10F15616   1.604   1.568   7.569  0.5774  0.0951 -0.3083
  142OSM   H10F15617   1.644   1.653   7.625 -3.0233  1.5624  0.1772
  142OSM   C11F15618   1.496   1.486   7.638  0.6660  0.1429 -0.0345
  142OSM   H11F15619   1.422   1.443   7.567  2.8784 -1.1829 -1.6091
  142OSM   H11G15620   1.447   1.556   7.709 -1.3957 -1.2401 -0.0379
  142OSM   C12F15621   1.565   1.376   7.725 -0.0061 -0.7127 -0.0169
  142OSM   H12F15622   1.583   1.292   7.654 -1.7319  0.6023 -2.0789
  142OSM   H12G15623   1.490   1.339   7.798 -0.1251  1.7408  1.1534
  142OSM   C13F15624   1.688   1.415   7.811 -0.7838 -0.0411  0.0875
  142OSM   H13F15625   1.772   1.433   7.740  0.5434 -4.0938  0.4985
  142OSM   H13G15626   1.722   1.324   7.865  0.3845  0.5776  0.4172
  142OSM   C14F15627   1.653   1.519   7.919  0.3605  0.3853 -0.2519
  142OSM   H14F15628   1.568   1.480   7.978 -0.1440  0.5336 -0.8669
  142OSM   H14G15629   1.621   1.614   7.870 -0.0241  0.9124  1.0179
  142OSM   C15F15630   1.764   1.550   8.017  0.6527  1.0549  0.3385
  142OSM   H15F15631   1.849   1.575   7.951  1.1754 -1.5787 -0.0556
  142OSM   H15G15632   1.792   1.459   8.074  2.0933  0.7149 -0.8846
  142OSM   C16F15633   1.743   1.666   8.108  1.0844  0.4944 -0.2927
  142OSM   H16F15634   1.664   1.634   8.179  2.8514 -0.4810  1.3221
  142OSM   H16G15635   1.704   1.753   8.052 -0.0857  2.3316  3.2626
  142OSM   C17F15636   1.873   1.708   8.186  0.1066  0.1194 -0.0888
  142OSM   H17F15637   1.945   1.772   8.130  1.5079 -0.7950  0.6363
  142OSM   H17G15638   1.924   1.612   8.210 -0.3939  0.2472  1.5320
  142OSM   C18F15639   1.844   1.790   8.309  0.2440  0.4997  0.0298
  142OSM   H18F15640   1.818   1.895   8.287 -0.1659  0.4912  0.4441
  142OSM   H18G15641   1.940   1.799   8.364  0.2295 -1.9535  0.5577
  142OSM   H18H15642   1.773   1.729   8.371 -0.1947 -0.2342 -1.1777
  143OSM      N15643   2.584   3.133   6.177  0.0215  0.3829  0.4795
  143OSM    C1515644   2.630   2.993   6.157 -0.0306  0.0264  0.3630
  143OSM   H15A15645   2.724   2.969   6.205  0.8900  0.9331 -0.9154
  143OSM   H15B15646   2.631   2.961   6.053 -0.0971 -1.0945  0.7064
  143OSM   H15C15647   2.560   2.939   6.218  0.0067  0.7565  1.0617
  143OSM    C1415648   2.439   3.134   6.147  0.4796  0.3006  1.4289
  143OSM   H14A15649   2.397   3.226   6.183 -0.2735  0.7050 -0.4627
  143OSM   H14B15650   2.386   3.060   6.205 -3.1105 -1.2540 -3.5488
  143OSM   H14C15651   2.425   3.121   6.041 -0.3308 -0.9255  1.6706
  143OSM    C1315652   2.608   3.167   6.318 -0.2078 -0.0311  0.0971
  143OSM   H13A15653   2.559   3.097   6.384  0.9141  0.0349  1.0167
  143OSM   H13B15654   2.586   3.271   6.336 -2.2901 -0.2256 -1.2042
  143OSM   H13C15655   2.713   3.159   6.344 -0.7574  0.2941  2.5026
  143OSM    C1215656   2.654   3.237   6.092 -0.3516 -0.3974  0.0362
  143OSM   H12A15657   2.602   3.331   6.103  0.8286  0.2693  0.0524
  143OSM   H12B15658   2.636   3.226   5.986 -0.2111 -1.4168  0.1107
  143OSM    C1115659   2.808   3.251   6.099 -0.4474  0.7867 -0.0742
  143OSM   H11A15660   2.844   3.322   6.022 -0.1892 -0.4798 -1.1522
  143OSM   H11B15661   2.851   3.154   6.063 -1.5189 -0.1632  1.1631
  143OSM      P15662   2.859   3.441   6.267 -0.0914  0.1235 -0.0147
  143OSM    O1315663   2.966   3.497   6.185 -0.1364  0.1241 -0.3970
  143OSM    O1415664   2.722   3.498   6.275  0.5118 -0.1420 -0.2387
  143OSM    O1115665   2.900   3.431   6.422  0.1171  0.3686 -0.5695
  143OSM    O1215666   2.846   3.290   6.233 -0.1319  0.5429  0.0348
  143OSM    C1S15667   2.966   3.319   6.486  0.1349  0.0568 -0.7739
  143OSM    H1S15668   3.076   3.323   6.473  0.2559  1.5005  0.5596
  143OSM    H1T15669   2.927   3.218   6.459  2.4395 -1.4612  1.3875
  143OSM     NF15670   3.040   3.234   6.706  0.4714 -0.0640  0.2704
  143OSM    HNF15671   3.035   3.135   6.714  0.9146 -0.1131 -0.0998
  143OSM    C2S15672   2.934   3.312   6.635  0.4035  0.3998 -0.4917
  143OSM    H2S15673   2.933   3.412   6.684  0.8968  0.9675 -1.6204
  143OSM    C3S15674   2.782   3.267   6.650  0.4061 -0.0415 -0.0815
  143OSM    H3S15675   2.790   3.163   6.612 -0.6780 -0.7799  1.6955
  143OSM     O315676   2.693   3.332   6.562  0.6083  0.3481  0.5393
  143OSM    HO315677   2.750   3.396   6.518 -1.3282  1.4151 -0.4854
  143OSM    C4S15678   2.733   3.250   6.789 -0.1319  0.0828 -0.3172
  143OSM    H4S15679   2.737   3.147   6.827 -0.3488  0.1091 -0.2228
  143OSM    C5S15680   2.678   3.348   6.865 -0.5067 -0.2661 -0.4520
  143OSM    H5S15681   2.655   3.446   6.820 -0.0987  0.6207  1.2342
  143OSM    C6S15682   2.633   3.332   7.012 -0.4148  0.7448 -0.0609
  143OSM    H6S15683   2.586   3.233   7.028 -0.1015  0.5134 -0.5903
  143OSM    H6T15684   2.564   3.406   7.059  0.9841  1.4924  0.8702
  143OSM    C7S15685   2.748   3.335   7.118 -0.1757 -0.5563 -0.0106
  143OSM    H7S15686   2.810   3.425   7.095 -0.9003  0.0029  0.2350
  143OSM    H7T15687   2.816   3.253   7.085  1.5082  0.4703  0.8290
  143OSM    C8S15688   2.699   3.297   7.257  0.5629  0.2907 -0.2878
  143OSM    H8S15689   2.635   3.206   7.260  0.4215  0.4258  1.0364
  143OSM    H8T15690   2.646   3.381   7.308  0.0968 -1.6363  2.4874
  143OSM    C9S15691   2.815   3.264   7.348 -0.5827  0.7707  0.2747
  143OSM    H9S15692   2.888   3.348   7.354 -0.4534  0.6391  0.5310
  143OSM    H9T15693   2.865   3.175   7.305  0.9640  1.5265  0.5031
  143OSM   C10S15694   2.781   3.236   7.498  0.3071 -0.1904  0.3686
  143OSM   H10S15695   2.748   3.131   7.483  0.7173 -0.5126  1.6529
  143OSM   H10T15696   2.696   3.295   7.541 -1.2287 -2.5449  0.6540
  143OSM   C11S15697   2.906   3.235   7.590  0.6352 -0.6934 -0.2307
  143OSM   H11S15698   2.989   3.218   7.518  2.3105  0.4874  1.3549
  143OSM   H11T15699   2.901   3.147   7.657 -2.0997 -2.8354 -3.1021
  143OSM   C12S15700   2.936   3.354   7.681  0.0502 -0.2551 -0.3313
  143OSM   H12S15701   2.884   3.445   7.645 -0.1464 -0.4726 -0.6020
  143OSM   H12T15702   3.047   3.363   7.679  0.0984 -0.9354 -1.4457
  143OSM   C13S15703   2.894   3.338   7.827  0.1992 -1.0968  0.0402
  143OSM   H13S15704   2.947   3.250   7.869  1.2033 -1.5749 -2.1717
  143OSM   H13T15705   2.784   3.326   7.825 -0.0096  0.6224 -3.5766
  143OSM   C14S15706   2.925   3.459   7.907  0.2426 -0.1097 -0.5667
  143OSM   H14S15707   2.863   3.549   7.887  0.4185 -0.0013 -0.6286
  143OSM   H14T15708   3.031   3.492   7.897  0.2462  0.9230  2.3908
  143OSM   C15S15709   2.915   3.418   8.060  0.1996 -0.1185 -0.1418
  143OSM   H15S15710   2.962   3.319   8.074 -0.4934 -0.2781  1.0532
  143OSM   H15T15711   2.806   3.406   8.076  0.2960 -0.1567  0.4711
  143OSM   C16S15712   2.983   3.524   8.162 -0.3947  0.0755 -0.0432
  143OSM   H16S15713   2.947   3.623   8.126 -0.0841 -0.2737 -1.3402
  143OSM   H16T15714   3.093   3.517   8.150 -0.3305  0.1353  0.4744
  143OSM   C17S15715   2.947   3.495   8.309  0.3940 -0.3458  0.6760
  143OSM   H17S15716   2.991   3.395   8.329  0.2731 -0.5667 -0.1354
  143OSM   H17T15717   2.836   3.491   8.314  0.3598  0.5229  0.6785
  143OSM   C18S15718   2.996   3.600   8.401  0.1715 -0.1564 -0.4814
  143OSM   H18S15719   2.942   3.694   8.379  0.8058  1.0146  2.6733
  143OSM   H18T15720   3.106   3.619   8.396  0.3975 -1.6503 -1.5062
  143OSM   H18U15721   2.989   3.566   8.507  1.6272  0.1282 -0.2716
  143OSM    C1F15722   3.152   3.296   6.735 -0.4291  0.0825  0.2447
  143OSM     OF15723   3.168   3.416   6.708 -0.3723  0.0882 -0.0575
  143OSM    C2F15724   3.262   3.205   6.790  0.8344  0.6177  0.1774
  143OSM    H2F15725   3.346   3.190   6.720  0.5574 -0.4312  0.0536
  143OSM    H2G15726   3.232   3.099   6.804  1.5675  0.2973 -0.6782
  143OSM    C3F15727   3.307   3.261   6.922 -0.6046 -0.0798  0.3144
  143OSM    H3F15728   3.330   3.367   6.898 -1.3779 -0.1585 -0.8056
  143OSM    H3G15729   3.403   3.209   6.942 -0.5185  0.4094  1.1581
  143OSM    C4F15730   3.205   3.243   7.036  0.3402 -0.5720 -1.1088
  143OSM    H4F15731   3.162   3.141   7.051  0.5964 -0.2747  2.0236
  143OSM    H4G15732   3.132   3.326   7.021 -0.8799 -1.0580  1.6804
  143OSM    C5F15733   3.271   3.265   7.173  0.2701 -0.9574 -0.1925
  143OSM    H5F15734   3.334   3.355   7.157  0.7033 -1.2900 -0.4059
  143OSM    H5G15735   3.340   3.181   7.199  2.5445 -0.3629 -3.9322
  143OSM    C6F15736   3.181   3.304   7.291  0.2106  0.4732 -0.5173
  143OSM    H6F15737   3.114   3.219   7.312  0.1266  1.3467  3.0811
  143OSM    H6G15738   3.115   3.391   7.270 -1.0905  0.0376  1.6350
  143OSM    C7F15739   3.257   3.339   7.421  0.3378  0.5685  0.0611
  143OSM    H7F15740   3.180   3.381   7.489  0.4764  0.8950  0.0158
  143OSM    H7G15741   3.326   3.424   7.402  1.0136 -0.1147 -0.5698
  143OSM    C8F15742   3.326   3.222   7.486 -0.1923 -0.1400  0.1009
  143OSM    H8F15743   3.384   3.163   7.411  0.4646  0.5014  0.0983
  143OSM    H8G15744   3.254   3.144   7.520  0.4662 -0.6765  0.2856
  143OSM    C9F15745   3.423   3.274   7.592  0.7323  0.1430 -0.2377
  143OSM    H9F15746   3.509   3.320   7.541 -1.2973  2.2177 -1.9493
  143OSM   C10F15747   3.417   3.270   7.726  0.1887  0.7244 -0.0122
  143OSM   H10F15748   3.505   3.312   7.778  0.6562  0.8700 -0.9137
  143OSM   C11F15749   3.307   3.205   7.809  0.3877 -0.0932 -0.3145
  143OSM   H11F15750   3.247   3.129   7.754 -0.5851  0.7558 -0.4290
  143OSM   H11G15751   3.231   3.283   7.828  1.7796  1.5429 -1.3348
  143OSM   C12F15752   3.328   3.144   7.954  0.6893 -0.5963 -0.3707
  143OSM   H12F15753   3.379   3.227   8.008 -0.7844 -1.6697  2.7541
  143OSM   H12G15754   3.398   3.057   7.953  1.3426 -0.1872  3.2144
  143OSM   C13F15755   3.195   3.132   8.025  0.1663 -0.2258  0.1210
  143OSM   H13F15756   3.125   3.074   7.961 -0.3740  1.4917 -0.8565
  143OSM   H13G15757   3.145   3.230   8.038  2.4847  0.7922  1.8867
  143OSM   C14F15758   3.202   3.060   8.162 -0.0006 -0.4253  0.0925
  143OSM   H14F15759   3.289   3.113   8.206 -0.4449  1.3293 -1.0837
  143OSM   H14G15760   3.216   2.949   8.162 -2.0094 -0.7041  2.6107
  143OSM   C15F15761   3.087   3.089   8.264 -0.6710  0.2983 -0.1688
  143OSM   H15F15762   2.996   3.089   8.200  0.0119 -0.0043 -1.1634
  143OSM   H15G15763   3.098   3.191   8.308 -0.1966  0.8644 -1.5708
  143OSM   C16F15764   3.072   2.979   8.368 -0.1811  0.3318 -0.2649
  143OSM   H16F15765   3.168   2.965   8.422  0.1205  1.4600 -0.4818
  143OSM   H16G15766   3.031   2.884   8.329 -0.2695 -0.1151  0.9000
  143OSM   C17F15767   2.973   3.032   8.464 -0.5079 -0.7743 -0.0802
  143OSM   H17F15768   2.872   3.032   8.417 -1.0056  0.9423  0.9206
  143OSM   H17G15769   2.992   3.139   8.488  1.0431 -0.8689 -0.8294
  143OSM   C18F15770   2.962   2.953   8.596 -0.8285  0.1075  0.2803
  143OSM   H18F15771   3.057   2.950   8.652 -0.1971 -0.6747 -0.7990
  143OSM   H18G15772   2.951   2.845   8.573 -0.6199  0.0351  0.5322
  143OSM   H18H15773   2.888   2.991   8.669  1.6992  0.6283  2.6272
  144OSM      N15774   1.452   3.130   5.938 -0.0770 -0.3325 -0.4705
  144OSM    C1515775   1.381   3.020   5.861  0.6598  0.0843  0.0086
  144OSM   H15A15776   1.425   2.924   5.881  2.5676  0.9246 -0.0528
  144OSM   H15B15777   1.382   3.042   5.755  0.5248  0.0313 -0.0039
  144OSM   H15C15778   1.277   3.005   5.885  0.1917  1.6051 -0.9624
  144OSM    C1415779   1.587   3.148   5.880 -0.6887 -0.6950 -0.2860
  144OSM   H14A15780   1.593   3.168   5.774  1.1358 -1.6736 -0.3803
  144OSM   H14B15781   1.643   3.057   5.893 -1.8368 -1.3937 -0.1371
  144OSM   H14C15782   1.637   3.224   5.938 -0.9907 -1.2279  0.6771
  144OSM    C1315783   1.376   3.258   5.914  0.0242 -0.0159  0.4880
  144OSM   H13A15784   1.277   3.254   5.957  0.1776  0.0734  0.8500
  144OSM   H13B15785   1.342   3.273   5.813  1.7913 -2.9467 -0.6342
  144OSM   H13C15786   1.430   3.344   5.952  1.1801 -1.0069  1.1592
  144OSM    C1215787   1.467   3.097   6.084  0.0780 -0.6822  0.1591
  144OSM   H12A15788   1.368   3.095   6.127  0.1081 -1.8279  0.1879
  144OSM   H12B15789   1.536   3.173   6.120  0.7246 -0.8709 -0.6780
  144OSM    C1115790   1.543   2.963   6.112 -0.3307  0.0559  1.2850
  144OSM   H11A15791   1.518   2.891   6.032 -1.7553  1.0642  0.7938
  144OSM   H11B15792   1.504   2.927   6.210 -2.6064 -0.1289  0.3394
  144OSM      P15793   1.788   2.884   6.092  0.4987 -0.1199 -0.1050
  144OSM    O1315794   1.760   2.801   5.973  0.2520  0.2975  0.3029
  144OSM    O1415795   1.925   2.937   6.106  0.2923  0.3265  0.3641
  144OSM    O1115796   1.765   2.790   6.217  0.2547  0.1155 -0.3067
  144OSM    O1215797   1.685   2.998   6.110 -0.6128 -0.0413  0.6843
  144OSM    C1S15798   1.781   2.820   6.356 -0.4197  0.8266 -0.2315
  144OSM    H1S15799   1.693   2.879   6.391 -0.6215  0.1346  0.4391
  144OSM    H1T15800   1.870   2.884   6.371  0.0436 -0.1959  1.4554
  144OSM     NF15801   1.802   2.740   6.585 -0.2941 -0.3502 -0.2577
  144OSM    HNF15802   1.894   2.743   6.625 -0.2431 -1.4595 -0.2836
  144OSM    C2S15803   1.793   2.696   6.442 -0.6454 -0.5640 -0.4960
  144OSM    H2S15804   1.698   2.638   6.443 -0.4254 -0.9217  0.0069
  144OSM    C3S15805   1.901   2.593   6.394 -0.5585 -0.1724 -0.3593
  144OSM    H3S15806   2.001   2.640   6.389  0.6340 -2.4622  0.9571
  144OSM     O315807   1.869   2.552   6.253 -0.1819 -0.0748  0.4760
  144OSM    HO315808   1.809   2.620   6.221 -1.7615 -0.7157  1.9947
  144OSM    C4S15809   1.909   2.464   6.478  0.2979  0.3129  0.1828
  144OSM    H4S15810   1.818   2.409   6.506  0.4968 -0.9417 -1.5860
  144OSM    C5S15811   2.023   2.419   6.535 -0.3001  0.2210 -0.1331
  144OSM    H5S15812   2.115   2.477   6.522  0.8884 -1.8878 -1.3012
  144OSM    C6S15813   2.036   2.293   6.618 -0.1473  0.1498 -0.6419
  144OSM    H6S15814   2.121   2.231   6.581 -1.1043 -1.5147 -0.0831
  144OSM    H6T15815   1.950   2.223   6.613  0.7489 -0.8812 -2.1042
  144OSM    C7S15816   2.085   2.325   6.760 -0.4648  0.2393  0.5881
  144OSM    H7S15817   2.017   2.382   6.826  0.4087  0.9393  0.9033
  144OSM    H7T15818   2.185   2.374   6.760 -0.2870 -0.1252  0.2092
  144OSM    C8S15819   2.106   2.191   6.841  0.0663  0.0289  0.9875
  144OSM    H8S15820   2.170   2.130   6.774 -0.3761  1.4273 -0.7334
  144OSM    H8T15821   2.010   2.136   6.853  0.2211 -0.6468 -0.6853
  144OSM    C9S15822   2.174   2.229   6.974  0.1431  0.2318  0.1618
  144OSM    H9S15823   2.108   2.293   7.036 -2.2260 -0.9930 -1.0029
  144OSM    H9T15824   2.268   2.282   6.950 -0.3544  0.5602 -1.1680
  144OSM   C10S15825   2.216   2.109   7.057  0.3351  0.5662  0.1530
  144OSM   H10S15826   2.314   2.071   7.021  0.6169  1.2940  0.1448
  144OSM   H10T15827   2.153   2.019   7.072 -0.5954  1.4775  1.8420
  144OSM   C11S15828   2.234   2.159   7.203 -0.4050  0.1287 -0.6769
  144OSM   H11S15829   2.133   2.174   7.247 -0.5150  2.1512 -1.5750
  144OSM   H11T15830   2.299   2.249   7.209  2.7976 -2.2241  1.9343
  144OSM   C12S15831   2.303   2.051   7.284  0.3163 -0.1133  0.4921
  144OSM   H12S15832   2.393   2.014   7.231  0.8316  0.8474  0.6853
  144OSM   H12T15833   2.229   1.969   7.299  1.2474 -0.9525  0.5356
  144OSM   C13S15834   2.348   2.095   7.423  0.1222  0.8296 -0.1535
  144OSM   H13S15835   2.396   2.193   7.407  1.8160 -0.2597 -2.0140
  144OSM   H13T15836   2.427   2.030   7.468 -0.4931 -0.2594 -0.6301
  144OSM   C14S15837   2.233   2.105   7.525 -0.1181 -0.2153 -0.7968
  144OSM   H14S15838   2.199   2.001   7.543  1.4483 -0.3585  1.5197
  144OSM   H14T15839   2.149   2.150   7.469 -0.0073  1.7022  0.5455
  144OSM   C15S15840   2.259   2.188   7.652 -0.2120 -0.0750  0.1604
  144OSM   H15S15841   2.164   2.186   7.710 -1.6253  3.8126 -1.8295
  144OSM   H15T15842   2.282   2.293   7.623  1.0689 -0.4772 -0.3226
  144OSM   C16S15843   2.366   2.122   7.730 -0.3847  0.4414  0.2198
  144OSM   H16S15844   2.463   2.169   7.705  1.4406 -1.2637  3.7666
  144OSM   H16T15845   2.368   2.014   7.705 -4.5250 -0.6451  3.9038
  144OSM   C17S15846   2.367   2.131   7.889 -0.8720  0.2383  0.0372
  144OSM   H17S15847   2.463   2.081   7.917 -1.3421 -0.5877  0.1742
  144OSM   H17T15848   2.283   2.067   7.924  0.2283 -0.7078  0.9992
  144OSM   C18S15849   2.370   2.269   7.955 -0.9148 -0.1659 -0.2985
  144OSM   H18S15850   2.468   2.316   7.936 -1.5303  0.7326 -1.3158
  144OSM   H18T15851   2.360   2.259   8.065  3.1355 -2.0231 -0.0422
  144OSM   H18U15852   2.301   2.350   7.923 -1.3067 -0.6118 -0.5919
  144OSM    C1F15853   1.711   2.813   6.645  0.0028  0.0823 -0.2095
  144OSM     OF15854   1.606   2.831   6.591  0.1954 -0.3926 -1.5366
  144OSM    C2F15855   1.741   2.867   6.778  0.0630 -0.7916 -0.5465
  144OSM    H2F15856   1.773   2.973   6.777 -1.0683 -0.4499 -0.5902
  144OSM    H2G15857   1.832   2.815   6.818 -0.2346 -0.8974  0.0035
  144OSM    C3F15858   1.623   2.866   6.878 -0.0050 -0.0950  0.5164
  144OSM    H3F15859   1.587   2.761   6.873 -0.1379 -0.0336  0.2077
  144OSM    H3G15860   1.540   2.937   6.855 -0.2166 -0.7917 -0.8817
  144OSM    C4F15861   1.675   2.904   7.018 -0.2946 -0.0491 -0.0935
  144OSM    H4F15862   1.753   2.829   7.045  0.5524  0.8176 -0.1308
  144OSM    H4G15863   1.587   2.882   7.082 -1.0251 -0.1147 -1.1087
  144OSM    C5F15864   1.722   3.048   7.035  0.0285 -0.0134 -0.0649
  144OSM    H5F15865   1.642   3.121   7.009  2.4703  1.9744 -2.3060
  144OSM    H5G15866   1.801   3.075   6.961 -1.1539 -0.5637 -1.5347
  144OSM    C6F15867   1.781   3.081   7.173 -0.0173  0.4066  0.0626
  144OSM    H6F15868   1.804   3.190   7.171 -0.0180  0.3892 -2.8441
  144OSM    H6G15869   1.878   3.030   7.191 -1.8695 -2.8302  1.2019
  144OSM    C7F15870   1.684   3.049   7.279 -0.1078 -0.1824 -0.2938
  144OSM    H7F15871   1.698   2.940   7.296  1.5548 -0.0885 -0.9375
  144OSM    H7G15872   1.581   3.067   7.241  0.2428  1.8611 -0.3297
  144OSM    C8F15873   1.702   3.123   7.419  0.0090  0.4324 -1.0396
  144OSM    H8F15874   1.617   3.096   7.484  0.3409  1.1589 -0.2910
  144OSM    H8G15875   1.694   3.232   7.397  0.9089  0.7200  0.0035
  144OSM    C9F15876   1.828   3.089   7.494  0.2601  0.2188  0.2163
  144OSM    H9F15877   1.883   3.005   7.449  0.2590 -0.7571  2.0035
  144OSM   C10F15878   1.845   3.141   7.617  0.2002  0.9199 -0.0836
  144OSM   H10F15879   1.941   3.124   7.668 -0.6669 -1.2078  0.8656
  144OSM   C11F15880   1.749   3.234   7.682 -0.4939 -0.2546 -0.5760
  144OSM   H11F15881   1.700   3.191   7.772 -1.3115  0.2209 -0.7939
  144OSM   H11G15882   1.661   3.252   7.618 -2.9075  0.2175  2.7525
  144OSM   C12F15883   1.803   3.361   7.731  0.7606 -1.1434  1.0599
  144OSM   H12F15884   1.876   3.399   7.656  0.0290 -1.9541 -0.0890
  144OSM   H12G15885   1.872   3.340   7.815  0.9369 -3.1703  0.4363
  144OSM   C13F15886   1.706   3.476   7.763 -0.3849  0.0631  0.5496
  144OSM   H13F15887   1.753   3.565   7.811 -2.5797  0.1523  2.6160
  144OSM   H13G15888   1.633   3.435   7.836 -1.3468  1.3163  0.3028
  144OSM   C14F15889   1.625   3.525   7.639 -0.3671 -0.3923  0.4633
  144OSM   H14F15890   1.583   3.624   7.667  0.6551  0.5371 -1.1777
  144OSM   H14G15891   1.543   3.453   7.618 -0.0865 -0.1526 -1.5779
  144OSM   C15F15892   1.700   3.550   7.504  0.1905 -0.5326  0.3088
  144OSM   H15F15893   1.750   3.453   7.484 -1.3876 -0.8065 -2.5090
  144OSM   H15G15894   1.766   3.639   7.512 -0.3073 -0.0430 -0.9305
  144OSM   C16F15895   1.604   3.586   7.389  0.0322  0.5643 -0.0076
  144OSM   H16F15896   1.567   3.689   7.406  0.9669  0.8641  0.2368
  144OSM   H16G15897   1.526   3.507   7.392  0.4388  0.2264  1.7515
  144OSM   C17F15898   1.675   3.583   7.257 -0.4863  0.1188  0.8122
  144OSM   H17F15899   1.760   3.654   7.250 -1.4195  1.1266 -0.8244
  144OSM   H17G15900   1.595   3.621   7.191 -1.1057  3.1253  3.1684
  144OSM   C18F15901   1.739   3.445   7.216  0.2814  0.2190 -0.1024
  144OSM   H18F15902   1.785   3.384   7.296  1.5444  1.4847  0.1642
  144OSM   H18G15903   1.821   3.456   7.142  0.5534  0.7736  0.2794
  144OSM   H18H15904   1.658   3.389   7.164 -0.8935  0.0373  1.8819
  145SAPE     N15905   1.025   3.605  10.940 -0.2681  0.4815  0.1859
  145SAPE   HN115906   0.991   3.539  11.013 -1.4673  0.1231 -0.6754
  145SAPE   HN215907   1.037   3.559  10.848 -1.9645  1.4422 -0.5383
  145SAPE   HN315908   1.113   3.649  10.973 -1.0780  0.8357  1.9801
  145SAPE   C1215909   0.917   3.706  10.911  0.2196  0.3534  0.6748
  145SAPE  H12A15910   0.901   3.774  10.998  1.1304  0.9262  0.4086
  145SAPE  H12B15911   0.823   3.653  10.886 -0.0962  1.1048  0.2578
  145SAPE   C1115912   0.960   3.795  10.797 -0.5173 -0.1471  0.0661
  145SAPE  H11A15913   0.997   3.735  10.711 -1.7764 -1.1284  0.1881
  145SAPE  H11B15914   1.045   3.853  10.838  0.1348 -0.0208 -1.4299
  145SAPE     P15915   0.743   3.872  10.666 -0.0731  0.0796  0.0036
  145SAPE   O1315916   0.748   3.733  10.619 -0.0075 -0.2325 -0.1521
  145SAPE   O1415917   0.618   3.907  10.734 -0.3495 -0.2422  0.1123
  145SAPE   O1215918   0.864   3.894  10.774 -0.1077  0.4387  0.0155
  145SAPE   O1115919   0.780   3.970  10.557  0.5199 -0.1733  0.3387
  145SAPE    C115920   0.913   3.995  10.502  0.5718 -0.1164 -0.0660
  145SAPE    HA15921   0.944   4.098  10.528 -0.2293  0.6329 -2.0004
  145SAPE    HB15922   0.994   3.935  10.549  0.3257  2.6098  4.0703
  145SAPE    C215923   0.911   4.000  10.346  0.0506 -0.4609 -0.2406
  145SAPE    HS15924   1.007   4.032  10.300  0.0569  0.7452  0.5699
  145SAPE   O2115925   0.808   4.089  10.301  0.2689 -0.5369  0.4954
  145SAPE   C2115926   0.837   4.223  10.297 -0.9180 -0.5358 -0.2368
  145SAPE   O2215927   0.951   4.269  10.302  0.5034 -0.7015 -0.3025
  145SAPE   C2215928   0.712   4.306  10.274 -0.2582  0.3321 -0.4603
  145SAPE   H2R15929   0.623   4.241  10.264 -0.2990  0.6872 -2.6174
  145SAPE   H2S15930   0.690   4.363  10.367  0.9933  0.1936 -0.0691
  145SAPE    C315931   0.871   3.856  10.300 -0.1206  0.0871  0.0468
  145SAPE    HX15932   0.770   3.836  10.342  0.7161 -0.6017  1.7860
  145SAPE    HY15933   0.947   3.783  10.335 -2.8472 -2.6411  0.3777
  145SAPE   O3115934   0.860   3.842  10.160 -0.1333  0.0135  0.0253
  145SAPE   C3115935   0.976   3.849  10.094  0.1136  0.1624  0.3737
  145SAPE   O3215936   1.087   3.866  10.143  0.1531 -0.5548 -0.6546
  145SAPE   C3215937   0.948   3.835   9.944  0.8383 -0.3877 -0.5094
  145SAPE   H2X15938   0.875   3.915   9.917  0.1221 -1.1122 -0.7129
  145SAPE   H2Y15939   0.910   3.732   9.931  0.9221 -0.7857  2.1113
  145SAPE   C2315940   0.716   4.405  10.152 -0.1169 -0.6403  0.5911
  145SAPE   H3R15941   0.800   4.477  10.154 -1.3030  0.9579 -3.0862
  145SAPE   H3S15942   0.621   4.459  10.171 -0.8106 -2.3743  2.1824
  145SAPE   C2415943   0.707   4.335  10.015  0.2117 -0.5705  0.0566
  145SAPE   H4R15944   0.694   4.417   9.941 -0.3156  1.4803  2.3581
  145SAPE   H4S15945   0.622   4.263  10.016 -0.4495  0.1761 -1.3670
  145SAPE   C2515946   0.840   4.270   9.978 -0.0139 -0.3888  0.3810
  145SAPE   H5R15947   0.918   4.284  10.054 -2.0362 -0.5052  2.5149
  145SAPE   C2615948   0.863   4.206   9.864 -0.6535 -0.3768 -0.0346
  145SAPE   H6R15949   0.966   4.176   9.838 -0.0141  1.5672  0.1865
  145SAPE   C2715950   0.766   4.193   9.752 -0.0977  0.0280  0.4437
  145SAPE   H7R15951   0.668   4.223   9.793 -0.7803 -2.9486  1.1202
  145SAPE   H7S15952   0.753   4.086   9.724  1.3832 -0.2438  0.7420
  145SAPE   C2815953   0.796   4.290   9.642 -0.1315  0.1275  0.2301
  145SAPE   H8R15954   0.830   4.392   9.665 -0.9600  0.9180 -1.9048
  145SAPE   C2915955   0.783   4.262   9.515  0.4237 -0.2613  0.2926
  145SAPE   H9R15956   0.820   4.337   9.444  1.1178 -0.0311  0.8866
  145SAPE  C21015957   0.736   4.132   9.450 -0.3181  0.2904 -0.2071
  145SAPE  H10R15958   0.674   4.147   9.360 -0.6342  0.1175 -0.0197
  145SAPE  H10S15959   0.682   4.063   9.518 -1.3635  0.5999 -0.7168
  145SAPE  C21115960   0.866   4.065   9.415 -0.4600 -0.5581  0.8655
  145SAPE  H11R15961   0.939   4.038   9.493  0.4498 -1.2580 -0.2157
  145SAPE  C21215962   0.895   4.009   9.296 -0.4052  0.0990 -0.3440
  145SAPE  H12R15963   0.997   3.969   9.299 -1.1064 -1.7138 -0.2504
  145SAPE  C21315964   0.822   3.999   9.166 -0.1780 -0.3422  0.0450
  145SAPE  H13R15965   0.727   4.055   9.173  1.1900  2.0900 -0.5182
  145SAPE  H13S15966   0.775   3.899   9.154  0.5454 -1.0954  2.9374
  145SAPE  C21415967   0.903   4.060   9.045  0.6968  0.3786  0.1690
  145SAPE  H14R15968   0.901   4.170   9.050 -1.6204  0.3370  0.4054
  145SAPE  C21515969   0.964   3.991   8.948 -0.1475 -0.0003 -0.4067
  145SAPE  H15R15970   1.028   4.045   8.877 -0.5180  0.0613 -0.6959
  145SAPE  C21615971   0.964   3.851   8.934 -0.1547  0.5650 -0.0543
  145SAPE  H16R15972   0.962   3.793   9.028 -0.7673 -2.2960 -1.7579
  145SAPE  H16S15973   1.064   3.815   8.903 -0.2939  0.5681 -0.5102
  145SAPE  C21715974   0.869   3.794   8.833  1.3520 -0.1994  0.4030
  145SAPE  H17R15975   0.893   3.688   8.810 -1.8653 -0.9134  0.0835
  145SAPE  H17S15976   0.889   3.839   8.733  0.6933 -0.5050  0.1271
  145SAPE  C21815977   0.719   3.810   8.878 -0.5043  0.4311  1.0976
  145SAPE  H18R15978   0.693   3.917   8.892  0.7264  0.7728  0.8211
  145SAPE  H18S15979   0.718   3.764   8.980  2.0064 -0.7346  0.6307
  145SAPE  C21915980   0.630   3.729   8.790  0.6645  0.5438  0.2059
  145SAPE  H19R15981   0.652   3.622   8.812 -1.3770  0.0112 -0.2624
  145SAPE  H19S15982   0.661   3.741   8.684  3.1370 -1.5877  0.6243
  145SAPE  C22015983   0.483   3.763   8.812  0.3258  0.1301 -0.2466
  145SAPE  H20R15984   0.421   3.713   8.735 -0.0249 -0.4765  0.4225
  145SAPE  H20S15985   0.458   3.871   8.812 -0.8046 -0.1192  0.6384
  145SAPE  H20T15986   0.453   3.705   8.902 -2.9074 -1.4975 -2.2747
  145SAPE   C3315987   1.084   3.845   9.864 -0.2295 -0.5301 -0.0936
  145SAPE   H3X15988   1.155   3.770   9.905 -1.4985 -0.9573  1.3649
  145SAPE   H3Y15989   1.129   3.946   9.868  0.4788 -0.7449 -2.2459
  145SAPE   C3415990   1.066   3.812   9.716  0.6495 -0.2387  0.8939
  145SAPE   H4X15991   1.014   3.895   9.664  1.4087  0.7255  1.6495
  145SAPE   H4Y15992   1.009   3.717   9.713  0.1492  0.0047  2.2448
  145SAPE   C3515993   1.198   3.774   9.652 -0.0680 -0.3203 -0.2995
  145SAPE   H5X15994   1.224   3.675   9.695 -0.5359 -0.2780  0.0784
  145SAPE   H5Y15995   1.270   3.855   9.675 -0.2995 -0.6701  1.7239
  145SAPE   C3615996   1.160   3.766   9.502  0.3159  0.2006 -0.3207
  145SAPE   H6X15997   1.131   3.868   9.471 -2.4690 -0.4545 -0.0640
  145SAPE   H6Y15998   1.075   3.696   9.486  1.9921 -1.3449 -2.6819
  145SAPE   C3715999   1.273   3.721   9.409 -0.0778 -0.4098 -0.4120
  145SAPE   H7X16000   1.314   3.622   9.440 -2.3200 -1.0005  0.7532
  145SAPE   H7Y16001   1.351   3.798   9.422  2.1149 -2.5219 -0.6625
  145SAPE   C3816002   1.224   3.711   9.261  0.2553  0.0513 -0.6950
  145SAPE   H8X16003   1.193   3.813   9.229 -0.9607  0.4653  1.7424
  145SAPE   H8Y16004   1.138   3.641   9.252  0.0444  0.5131 -2.6641
  145SAPE   C3916005   1.327   3.672   9.157 -0.2337 -0.1137  0.0296
  145SAPE   H9X16006   1.358   3.567   9.177 -3.2266 -1.1400 -0.3673
  145SAPE   H9Y16007   1.412   3.742   9.169 -0.3802  0.0028  0.3640
  145SAPE  C31016008   1.292   3.678   9.008 -0.3468 -0.0434  0.6614
  145SAPE  H10X16009   1.279   3.786   8.984 -0.3448 -0.6321 -2.2346
  145SAPE  H10Y16010   1.205   3.610   8.995  0.4639 -1.6983  3.4469
  145SAPE  C31116011   1.410   3.626   8.918  0.1206 -0.0606  1.4001
  145SAPE  H11X16012   1.434   3.520   8.943  4.5131 -0.1572 -2.4786
  145SAPE  H11Y16013   1.493   3.690   8.956  0.5795  1.2544 -1.6003
  145SAPE  C31216014   1.380   3.632   8.767 -0.3555 -0.2298 -0.0634
  145SAPE  H12X16015   1.336   3.731   8.743  2.0187  0.4176 -1.8615
  145SAPE  H12Y16016   1.305   3.560   8.727  1.2128 -2.2695  0.5799
  145SAPE  C31316017   1.506   3.601   8.686  0.0065 -0.7755  0.2365
  145SAPE  H13X16018   1.560   3.531   8.753 -0.5635 -0.2226  1.2739
  145SAPE  H13Y16019   1.562   3.694   8.662 -0.7151 -0.2093  0.7115
  145SAPE  C31416020   1.475   3.549   8.552 -0.5268 -0.2895  0.4131
  145SAPE  H14X16021   1.420   3.628   8.495 -0.1064 -0.4165 -0.1646
  145SAPE  H14Y16022   1.401   3.466   8.561 -1.1788  0.5149  3.0353
  145SAPE  C31516023   1.596   3.490   8.484  0.3615 -0.1498 -0.6381
  145SAPE  H15X16024   1.619   3.400   8.545  1.1612  1.9930  2.3420
  145SAPE  H15Y16025   1.678   3.565   8.493 -0.4800  1.3275 -4.2986
  145SAPE  C31616026   1.583   3.447   8.337  0.1556 -0.1797  0.9340
  145SAPE  H16X16027   1.545   3.534   8.279  1.8809 -1.0850 -1.6515
  145SAPE  H16Y16028   1.499   3.375   8.326 -1.3354  1.8385 -1.3441
  145SAPE  C31716029   1.708   3.409   8.262 -0.7260  0.1079  0.2765
  145SAPE  H17X16030   1.744   3.308   8.289  0.3230 -0.7061 -3.8395
  145SAPE  H17Y16031   1.790   3.475   8.300 -0.5602 -0.1195  0.3129
  145SAPE  C31816032   1.705   3.420   8.109 -0.6651  0.2892 -0.1039
  145SAPE  H18X16033   1.722   3.526   8.077  0.1414 -0.3302 -1.7957
  145SAPE  H18Y16034   1.608   3.384   8.068 -1.0609  1.4514 -0.2344
  145SAPE  H18Z16035   1.791   3.365   8.067 -1.1456  1.0115 -2.0947
  146SAPE     N16036   0.110   5.725  11.056 -0.5668  0.4583  0.4742
  146SAPE   HN116037   0.035   5.754  11.122 -2.3532 -5.2845  1.2583
  146SAPE   HN216038   0.101   5.625  11.028  0.6657 -0.8954  4.4690
  146SAPE   HN316039   0.197   5.733  11.113 -1.1918 -0.9943  1.6968
  146SAPE   C1216040   0.108   5.817  10.938  0.7423  0.0767 -0.4243
  146SAPE  H12A16041   0.208   5.805  10.892  0.5743 -2.1103 -0.3032
  146SAPE  H12B16042   0.106   5.924  10.966  0.3837 -0.2485  0.7944
  146SAPE   C1116043  -0.009   5.776  10.843  0.3237 -0.1655  0.2924
  146SAPE  H11A16044  -0.016   5.845  10.756 -0.2533  1.1865  1.4019
  146SAPE  H11B16045  -0.103   5.783  10.901  0.3644 -0.2866  0.3740
  146SAPE     P16046   0.064   5.581  10.673  0.1583 -0.3497 -0.1732
  146SAPE   O1316047   0.208   5.590  10.687 -0.5974  0.0292 -0.0230
  146SAPE   O1416048   0.005   5.450  10.648 -0.8500 -0.1293  0.6837
  146SAPE   O1216049  -0.005   5.642  10.804  1.1238  0.3180 -0.1282
  146SAPE   O1116050   0.026   5.684  10.562 -0.0382 -0.3755 -0.0767
  146SAPE    C116051  -0.103   5.716  10.516  0.7446 -0.1461 -0.0194
  146SAPE    HA16052  -0.180   5.641  10.545  1.1013 -1.5158 -2.4332
  146SAPE    HB16053  -0.135   5.811  10.564  0.2191  1.4969 -3.4317
  146SAPE    C216054  -0.113   5.748  10.364 -0.1574  0.4033 -0.0778
  146SAPE    HS16055  -0.216   5.787  10.355 -0.6768 -1.2016 -1.3861
  146SAPE   O2116056  -0.089   5.638  10.275 -0.2670  0.4073 -0.0920
  146SAPE   C2116057  -0.175   5.539  10.284  0.4170  0.1244  0.1099
  146SAPE   O2216058  -0.285   5.543  10.337  0.5452 -0.6813  0.0793
  146SAPE   C2216059  -0.123   5.417  10.209  0.7367  0.1776 -0.0419
  146SAPE   H2R16060  -0.019   5.443  10.182  0.1178  1.0562 -1.6174
  146SAPE   H2S16061  -0.126   5.337  10.286 -1.7468 -0.3688 -0.6473
  146SAPE    C316062  -0.022   5.869  10.326 -0.1857 -0.1455  0.6699
  146SAPE    HX16063   0.081   5.854  10.363 -0.3909 -0.0830  1.2647
  146SAPE    HY16064  -0.057   5.960  10.380  0.1267  0.1973  0.3009
  146SAPE   O3116065  -0.032   5.892  10.185  0.8121 -0.2010 -0.4406
  146SAPE   C3116066   0.039   5.827  10.096 -0.2615 -0.3763  0.3362
  146SAPE   O3216067   0.136   5.758  10.127  0.3820 -0.5174  0.3404
  146SAPE   C3216068  -0.011   5.863   9.955 -0.0755  0.3047 -0.3506
  146SAPE   H2X16069  -0.022   5.974   9.952  1.6560  0.5050  0.1713
  146SAPE   H2Y16070  -0.112   5.819   9.945 -0.2081  0.5018  0.1063
  146SAPE   C2316071  -0.226   5.382  10.098 -0.1195  0.6262 -0.7162
  146SAPE   H3R16072  -0.327   5.363  10.139 -0.2999 -0.6053 -1.6980
  146SAPE   H3S16073  -0.182   5.291  10.052  1.8544  1.6071 -0.8040
  146SAPE   C2416074  -0.242   5.483   9.994 -0.6171 -0.5596  0.3029
  146SAPE   H4R16075  -0.277   5.581  10.033  0.3112 -0.6340  1.3442
  146SAPE   H4S16076  -0.333   5.445   9.942  0.0224 -1.7697  0.0495
  146SAPE   C2516077  -0.116   5.498   9.917 -0.1020  0.3155  0.1808
  146SAPE   H5R16078  -0.037   5.525   9.988  0.6801 -1.1914 -0.0959
  146SAPE   C2616079  -0.102   5.508   9.788 -0.3699 -0.2589  0.7183
  146SAPE   H6R16080  -0.000   5.511   9.747 -0.2525 -0.1465  1.0146
  146SAPE   C2716081  -0.199   5.491   9.672  0.6275  0.5725 -0.4219
  146SAPE   H7R16082  -0.299   5.492   9.720  2.0866  0.8474  2.7087
  146SAPE   H7S16083  -0.178   5.391   9.630  0.7040  1.0072 -1.4444
  146SAPE   C2816084  -0.198   5.585   9.555  0.3545  0.5926  0.2006
  146SAPE   H8R16085  -0.239   5.686   9.568  0.9070  0.9254 -0.6124
  146SAPE   C2916086  -0.150   5.560   9.432  0.2076  0.0794 -0.2272
  146SAPE   H9R16087  -0.171   5.629   9.349  1.9332  0.9596  0.0416
  146SAPE  C21016088  -0.080   5.434   9.388  0.9198 -0.6180  0.2631
  146SAPE  H10R16089  -0.033   5.387   9.476  2.2022  0.8399  0.3653
  146SAPE  H10S16090   0.008   5.456   9.324  1.0240 -0.2624  0.5280
  146SAPE  C21116091  -0.170   5.339   9.313  0.1987 -0.5004 -0.7321
  146SAPE  H11R16092  -0.253   5.301   9.375  0.2719  2.0940  1.0191
  146SAPE  C21216093  -0.141   5.277   9.197 -0.4449  0.0455 -0.2136
  146SAPE  H12R16094  -0.194   5.194   9.149  0.7115  0.8673 -3.0299
  146SAPE  C21316095  -0.014   5.300   9.108  0.5963  0.5106 -0.9767
  146SAPE  H13R16096   0.013   5.206   9.055 -3.3871 -0.6307 -1.1593
  146SAPE  H13S16097   0.070   5.331   9.173 -2.0927  3.9507  1.0173
  146SAPE  C21416098  -0.042   5.415   9.016 -0.3695 -0.0671 -0.2859
  146SAPE  H14R16099  -0.086   5.497   9.075  2.0169  0.2803  1.0448
  146SAPE  C21516100  -0.037   5.426   8.879  0.1914  0.5734 -0.0113
  146SAPE  H15R16101  -0.041   5.527   8.836  0.1692  0.4722 -0.2520
  146SAPE  C21616102  -0.000   5.303   8.797  0.2652 -0.1648 -0.1022
  146SAPE  H16R16103  -0.070   5.216   8.807 -0.6548  0.6773  0.9237
  146SAPE  H16S16104   0.095   5.261   8.835  0.9608 -0.1931 -1.8102
  146SAPE  C21716105   0.008   5.334   8.648  0.2999  0.3279 -0.2193
  146SAPE  H17R16106   0.079   5.416   8.626  2.0824 -0.6059  1.8283
  146SAPE  H17S16107  -0.085   5.375   8.605  0.1656 -2.2853 -2.6240
  146SAPE  C21816108   0.042   5.216   8.553 -0.4290  0.0993  0.0077
  146SAPE  H18R16109  -0.027   5.131   8.571 -0.4634  0.5971  2.4335
  146SAPE  H18S16110   0.143   5.183   8.586  0.5988  2.7464 -0.3186
  146SAPE  C21916111   0.047   5.253   8.405 -0.5682 -0.4094  0.1590
  146SAPE  H19R16112   0.104   5.345   8.382 -0.7751 -0.2494  0.2892
  146SAPE  H19S16113  -0.056   5.278   8.372  0.3659  1.2305 -1.5523
  146SAPE  C22016114   0.116   5.160   8.300 -0.0294 -0.3374 -0.1747
  146SAPE  H20R16115   0.104   5.206   8.200  0.5085 -0.9345 -0.5220
  146SAPE  H20S16116   0.057   5.066   8.300  0.3553 -0.5826  0.1176
  146SAPE  H20T16117   0.223   5.137   8.320 -0.1546 -0.6665  0.1219
  146SAPE   C3316118   0.080   5.820   9.837 -0.2219  0.3493  0.0694
  146SAPE   H3X16119   0.093   5.710   9.842 -0.0717  0.4362  1.9716
  146SAPE   H3Y16120   0.177   5.874   9.850  0.9541 -1.7479  0.1580
  146SAPE   C3416121   0.039   5.868   9.702  0.1995 -0.0845 -0.2247
  146SAPE   H4X16122   0.043   5.979   9.705 -2.2138 -0.0136  2.9967
  146SAPE   H4Y16123  -0.069   5.844   9.688 -0.0043 -0.1584  1.4488
  146SAPE   C3516124   0.121   5.820   9.585 -0.7711  0.8122 -0.4524
  146SAPE   H5X16125   0.089   5.714   9.574  0.9322 -0.0396  2.4164
  146SAPE   H5Y16126   0.228   5.846   9.598 -0.7071  0.1444  0.3568
  146SAPE   C3616127   0.073   5.892   9.460  0.4979 -0.4012 -0.8504
  146SAPE   H6X16128   0.075   6.002   9.471 -0.9500 -0.7486  3.7134
  146SAPE   H6Y16129  -0.036   5.874   9.448  0.8290 -1.5676 -2.2920
  146SAPE   C3716130   0.151   5.825   9.341  0.0899  0.6322 -0.0705
  146SAPE   H7X16131   0.136   5.715   9.336  1.1108  0.5601 -1.7168
  146SAPE   H7Y16132   0.260   5.845   9.346  0.6333 -1.6343 -2.0332
  146SAPE   C3816133   0.110   5.875   9.201  0.3619 -0.0084 -0.7654
  146SAPE   H8X16134   0.104   5.986   9.203 -1.9984 -0.0369 -3.1698
  146SAPE   H8Y16135   0.006   5.850   9.172  0.6000  0.1533 -1.7756
  146SAPE   C3916136   0.208   5.811   9.112 -0.4799 -0.3866 -0.3123
  146SAPE   H9X16137   0.216   5.701   9.129 -1.9757 -0.6462 -1.2419
  146SAPE   H9Y16138   0.301   5.869   9.129 -2.4458  2.3304  1.5925
  146SAPE  C31016139   0.157   5.820   8.966 -0.1095  0.4031  0.1238
  146SAPE  H10X16140   0.154   5.923   8.924 -1.1280 -0.1032 -1.0851
  146SAPE  H10Y16141   0.057   5.771   8.961  0.1595 -0.1166 -0.2034
  146SAPE  C31116142   0.251   5.745   8.868 -0.1805  0.2068 -0.0847
  146SAPE  H11X16143   0.272   5.647   8.916  1.1228 -0.4229 -1.9060
  146SAPE  H11Y16144   0.344   5.804   8.860  0.8334 -1.1504  1.4619
  146SAPE  C31216145   0.197   5.724   8.727 -0.2143  0.3270  0.1266
  146SAPE  H12X16146   0.122   5.642   8.729  0.9828 -0.7757  0.8183
  146SAPE  H12Y16147   0.269   5.662   8.669  0.2630  0.8275  0.1738
  146SAPE  C31316148   0.129   5.845   8.659  0.3166  0.0565  0.6468
  146SAPE  H13X16149   0.194   5.934   8.676 -2.1419  1.7798  1.5100
  146SAPE  H13Y16150   0.028   5.863   8.704  1.0793 -2.1412  3.3480
  146SAPE  C31416151   0.099   5.811   8.510 -0.0883  0.3104 -0.4414
  146SAPE  H14X16152   0.028   5.726   8.508 -0.3704  0.4969  0.9723
  146SAPE  H14Y16153   0.191   5.769   8.463  0.9235  2.8237 -0.7939
  146SAPE  C31516154   0.034   5.923   8.424 -0.2508  0.3554 -0.4517
  146SAPE  H15X16155   0.108   6.005   8.414  0.3196 -0.3186 -1.9391
  146SAPE  H15Y16156  -0.055   5.965   8.476  0.7426  1.7691  0.1246
  146SAPE  C31616157  -0.012   5.871   8.286  0.1011 -0.2270 -0.1099
  146SAPE  H16X16158  -0.025   5.761   8.301 -0.6437  0.0465  1.3360
  146SAPE  H16Y16159   0.073   5.888   8.217 -1.1337  2.6475 -0.9790
  146SAPE  C31716160  -0.135   5.943   8.244 -0.4746 -0.0467 -0.5037
  146SAPE  H17X16161  -0.126   6.052   8.261 -0.0055 -0.1643  0.0070
  146SAPE  H17Y16162  -0.216   5.920   8.316 -0.2383 -2.6406 -1.0128
  146SAPE  C31816163  -0.178   5.918   8.101 -0.0322  0.6889 -0.2329
  146SAPE  H18X16164  -0.135   5.988   8.026  0.7207  0.2051 -0.2551
  146SAPE  H18Y16165  -0.287   5.929   8.083 -0.2388 -0.2852  0.3737
  146SAPE  H18Z16166  -0.167   5.812   8.070 -0.2806  0.0846  1.7202
  147SAPE     N16167   1.736   2.371  10.779 -0.3612 -0.3988  0.4117
  147SAPE   HN116168   1.742   2.305  10.859 -1.5404  1.0469  1.7251
  147SAPE   HN216169   1.769   2.321  10.694 -1.7310 -1.9184  0.7479
  147SAPE   HN316170   1.785   2.462  10.793 -0.0447 -0.2760 -1.3253
  147SAPE   C1216171   1.592   2.403  10.735  0.3147  0.1181  0.2598
  147SAPE  H12A16172   1.599   2.487  10.662 -1.6788  0.5431  0.5436
  147SAPE  H12B16173   1.534   2.442  10.821  1.0372  0.4659  0.5906
  147SAPE   C1116174   1.536   2.278  10.670 -0.2138 -0.3421  0.5330
  147SAPE  H11A16175   1.585   2.253  10.574 -0.0977 -2.2095  1.0714
  147SAPE  H11B16176   1.430   2.303  10.650 -0.2729 -0.3137  0.8731
  147SAPE     P16177   1.485   2.027  10.734  0.2507 -0.1314  0.4233
  147SAPE   O1316178   1.571   1.920  10.780 -0.1683  0.5116  0.1624
  147SAPE   O1416179   1.353   2.028  10.805  0.0095  1.1933  0.7549
  147SAPE   O1216180   1.557   2.167  10.755  0.1654  0.0864 -0.3239
  147SAPE   O1116181   1.454   2.007  10.579 -0.2408 -0.1193  0.1085
  147SAPE    C116182   1.568   1.986  10.491 -0.6246 -0.4522  0.1049
  147SAPE    HA16183   1.594   2.075  10.430  0.2985 -1.1787 -0.5846
  147SAPE    HB16184   1.660   1.961  10.548  0.2035 -0.3488 -1.1575
  147SAPE    C216185   1.544   1.871  10.389 -0.0810 -0.0019  0.9743
  147SAPE    HS16186   1.615   1.875  10.303  0.2754 -1.6495  1.1802
  147SAPE   O2116187   1.412   1.870  10.343 -0.0165 -0.2958 -0.6231
  147SAPE   C2116188   1.371   1.972  10.266  0.0967  0.7807  0.3194
  147SAPE   O2216189   1.435   2.073  10.239  0.4779 -0.1468  0.5928
  147SAPE   C2216190   1.222   1.944  10.235  1.1226 -0.1454 -0.0748
  147SAPE   H2R16191   1.200   1.836  10.224 -1.5318  0.4335 -0.6422
  147SAPE   H2S16192   1.156   1.975  10.319  1.2138 -0.5069  0.1306
  147SAPE    C316193   1.581   1.734  10.447 -0.1347  0.1940  0.0600
  147SAPE    HX16194   1.524   1.732  10.543  2.5187  1.6573  1.7319
  147SAPE    HY16195   1.690   1.737  10.466  0.0368  2.0202 -1.0430
  147SAPE   O3116196   1.561   1.615  10.361 -0.2371  0.0415 -0.1842
  147SAPE   C3116197   1.456   1.543  10.386 -0.3789 -0.1610 -0.6167
  147SAPE   O3216198   1.362   1.571  10.458  0.0173 -0.4138  0.1784
  147SAPE   C3216199   1.461   1.410  10.314 -0.6455 -0.0567  0.2018
  147SAPE   H2X16200   1.541   1.346  10.358 -1.7915 -0.8143  1.2281
  147SAPE   H2Y16201   1.482   1.433  10.208  0.1094 -1.8319 -0.0575
  147SAPE   C2316202   1.175   2.015  10.104  0.1108  0.0052 -0.1952
  147SAPE   H3R16203   1.173   2.125  10.116 -0.3805  0.0065 -0.2694
  147SAPE   H3S16204   1.071   1.986  10.078  0.3679 -0.2209 -0.9768
  147SAPE   C2416205   1.272   1.984   9.979 -0.3066  0.0695  0.3760
  147SAPE   H4R16206   1.377   2.012  10.000 -0.5403  1.5486 -0.2985
  147SAPE   H4S16207   1.236   2.061   9.907 -4.1667 -1.6232  0.3666
  147SAPE   C2516208   1.258   1.843   9.930 -0.8520 -0.1733  0.6027
  147SAPE   H5R16209   1.156   1.809   9.907 -0.9242  1.4915 -1.6592
  147SAPE   C2616210   1.356   1.757   9.897  0.0621  0.8603 -0.3498
  147SAPE   H6R16211   1.322   1.665   9.848 -0.9206 -0.0605  1.9500
  147SAPE   C2716212   1.509   1.783   9.906  0.7988  0.2247 -0.3364
  147SAPE   H7R16213   1.531   1.882   9.953 -2.9452  1.1909 -0.4399
  147SAPE   H7S16214   1.548   1.791   9.802  1.7457 -0.3363 -0.0310
  147SAPE   C2816215   1.569   1.668   9.989  0.7448  0.0202  0.1933
  147SAPE   H8R16216   1.553   1.654  10.097  3.7282  0.3197  0.6955
  147SAPE   C2916217   1.664   1.589   9.948 -0.4076  0.4981  0.1335
  147SAPE   H9R16218   1.702   1.516  10.021  1.6552 -0.4826 -1.8422
  147SAPE  C21016219   1.735   1.592   9.822  0.1668 -0.2280 -0.2440
  147SAPE  H10R16220   1.820   1.663   9.818 -0.0021  0.0342  0.8037
  147SAPE  H10S16221   1.672   1.628   9.738  0.4526 -0.0643 -0.3884
  147SAPE  C21116222   1.784   1.456   9.786  0.1949 -0.4874 -0.2155
  147SAPE  H11R16223   1.768   1.378   9.862 -3.2062  0.0865 -0.2280
  147SAPE  C21216224   1.856   1.422   9.678 -0.3369  0.3544  0.1701
  147SAPE  H12R16225   1.892   1.319   9.663 -1.4123  0.3223 -2.6006
  147SAPE  C21316226   1.894   1.509   9.563 -0.2591  0.0587  0.6432
  147SAPE  H13R16227   2.001   1.493   9.538  0.1582  1.9887  1.0481
  147SAPE  H13S16228   1.899   1.612   9.605 -0.1094 -0.4125  1.7981
  147SAPE  C21416229   1.802   1.504   9.444 -0.7543 -1.0655  0.2247
  147SAPE  H14R16230   1.693   1.503   9.460 -0.7144  0.7880  0.7581
  147SAPE  C21516231   1.839   1.494   9.316  0.0720  0.4534  0.3755
  147SAPE  H15R16232   1.762   1.480   9.239  2.4480  2.0776 -2.4511
  147SAPE  C21616233   1.975   1.488   9.248  0.3202  0.6819 -0.2139
  147SAPE  H16R16234   1.980   1.423   9.159  1.3019  1.7164 -0.9301
  147SAPE  H16S16235   2.056   1.463   9.320  0.3114 -0.6580 -0.6573
  147SAPE  C21716236   1.992   1.631   9.199  0.3690  0.0927 -0.0913
  147SAPE  H17R16237   1.997   1.703   9.283  3.1359 -0.9956  0.7349
  147SAPE  H17S16238   1.910   1.674   9.137 -0.7495 -2.7573 -0.6388
  147SAPE  C21816239   2.123   1.633   9.114 -0.2629 -0.4420 -0.6062
  147SAPE  H18R16240   2.102   1.569   9.026  2.1712 -3.0152  0.5847
  147SAPE  H18S16241   2.198   1.572   9.169 -0.1985 -1.9392 -2.3453
  147SAPE  C21916242   2.156   1.776   9.055  0.0659 -0.0635 -0.4026
  147SAPE  H19R16243   2.235   1.830   9.112 -1.9867 -0.8969  3.3454
  147SAPE  H19S16244   2.064   1.838   9.054 -0.2043 -0.4639 -1.1133
  147SAPE  C22016245   2.210   1.762   8.904  0.7915 -0.7193 -1.0383
  147SAPE  H20R16246   2.124   1.736   8.839 -1.1884 -0.7867  1.5285
  147SAPE  H20S16247   2.292   1.687   8.904  1.5457  0.0978 -1.1156
  147SAPE  H20T16248   2.251   1.861   8.874 -1.2761  0.0331 -1.5141
  147SAPE   C3316249   1.331   1.330  10.325  0.2161  0.4458  0.6774
  147SAPE   H3X16250   1.242   1.397  10.316 -0.8917 -0.9006  1.3208
  147SAPE   H3Y16251   1.328   1.280  10.424  2.3011  1.3209  1.1996
  147SAPE   C3416252   1.324   1.226  10.210 -0.8120 -0.2744 -0.2757
  147SAPE   H4X16253   1.414   1.161  10.206 -0.2981  0.1910  2.6712
  147SAPE   H4Y16254   1.312   1.286  10.117 -1.2946  0.5438  0.3001
  147SAPE   C3516255   1.194   1.148  10.222 -0.3168 -0.4295  0.3201
  147SAPE   H5X16256   1.100   1.201  10.198  0.0758 -0.6608 -1.8572
  147SAPE   H5Y16257   1.199   1.109  10.326  1.3931  1.6756  1.0779
  147SAPE   C3616258   1.200   1.029  10.121  1.8232  0.2245  0.1881
  147SAPE   H6X16259   1.287   0.962  10.134  1.2427 -0.6840 -0.5579
  147SAPE   H6Y16260   1.216   1.084  10.026  0.7178  0.7525  0.3000
  147SAPE   C3716261   1.067   0.954  10.122  0.0515 -0.6992  0.2498
  147SAPE   H7X16262   0.990   1.021  10.166  0.7448 -0.2100  0.7299
  147SAPE   H7Y16263   1.082   0.866  10.187  2.1510 -0.5867 -0.0488
  147SAPE   C3816264   1.015   0.906   9.985 -0.6606  0.2160 -0.1231
  147SAPE   H8X16265   0.938   0.830  10.008  2.2650 -2.8639 -0.1492
  147SAPE   H8Y16266   1.102   0.857   9.936 -0.9941  0.1201 -0.6237
  147SAPE   C3916267   0.951   1.022   9.904  0.3843  1.0405  0.6446
  147SAPE   H9X16268   1.026   1.104   9.897  2.0119 -0.3712  1.1462
  147SAPE   H9Y16269   0.866   1.062   9.964 -2.0069 -2.6386 -0.1458
  147SAPE  C31016270   0.892   0.982   9.767  0.0816 -0.8809  0.6270
  147SAPE  H10X16271   0.831   1.062   9.719  0.6571  0.7376  2.5154
  147SAPE  H10Y16272   0.829   0.890   9.764 -2.3184  0.7311  0.1149
  147SAPE  C31116273   1.011   0.937   9.679  0.4385  0.1456 -0.5569
  147SAPE  H11X16274   1.018   0.829   9.703  1.0386  0.8830  2.7189
  147SAPE  H11Y16275   1.113   0.978   9.694  0.7284 -0.5809 -0.4897
  147SAPE  C31216276   0.981   0.930   9.531  0.0965 -0.2991 -0.3459
  147SAPE  H12X16277   0.901   1.002   9.503 -0.2324 -0.4955  0.0814
  147SAPE  H12Y16278   0.932   0.832   9.517  1.6086 -0.9087 -1.5805
  147SAPE  C31316279   1.108   0.955   9.451 -0.0426  0.4357 -0.2519
  147SAPE  H13X16280   1.178   0.873   9.478 -0.9777 -0.3787 -0.2939
  147SAPE  H13Y16281   1.147   1.052   9.490  1.3735 -1.1278  2.3545
  147SAPE  C31416282   1.098   0.987   9.301 -0.2416  0.9067 -0.1745
  147SAPE  H14X16283   0.992   1.016   9.280 -0.6865  0.3891  1.2733
  147SAPE  H14Y16284   1.122   0.902   9.233  2.6668  0.0941  1.7958
  147SAPE  C31516285   1.179   1.112   9.267 -0.0343  0.3989  0.0424
  147SAPE  H15X16286   1.283   1.095   9.302 -0.2196  1.3612  1.0752
  147SAPE  H15Y16287   1.136   1.203   9.314 -0.1527  0.9504 -1.1037
  147SAPE  C31616288   1.185   1.132   9.115 -0.7740 -0.2718  0.1527
  147SAPE  H16X16289   1.226   1.234   9.097  1.1256 -0.8369  1.1705
  147SAPE  H16Y16290   1.082   1.116   9.076 -1.8164 -0.3676  2.8855
  147SAPE  C31716291   1.279   1.044   9.031  0.1201 -0.1490  0.1268
  147SAPE  H17X16292   1.264   0.936   9.050 -1.8792 -0.0058 -0.4943
  147SAPE  H17Y16293   1.384   1.063   9.063  0.1314 -0.3947  0.2324
  147SAPE  C31816294   1.253   1.086   8.881  0.0989  0.1817  0.0621
  147SAPE  H18X16295   1.269   1.196   8.869  1.5728 -0.1383 -1.0481
  147SAPE  H18Y16296   1.146   1.081   8.854 -0.2014 -0.3771  1.3366
  147SAPE  H18Z16297   1.317   1.036   8.804 -0.6638 -1.6131  0.5869
  148SAPE     N16298   3.243   4.492  10.569  0.6710 -0.1674 -0.0487
  148SAPE   HN116299   3.270   4.473  10.470  1.7479 -1.3603  0.4627
  148SAPE   HN216300   3.150   4.540  10.559 -0.3712 -2.3140 -0.9930
  148SAPE   HN316301   3.312   4.557  10.611  2.1986 -1.6284 -0.2711
  148SAPE   C1216302   3.235   4.367  10.649  0.3503  0.2325 -0.4406
  148SAPE  H12A16303   3.184   4.382  10.747  0.1656 -0.1248 -0.4795
  148SAPE  H12B16304   3.335   4.320  10.663  0.7895  0.9315 -1.2361
  148SAPE   C1116305   3.159   4.262  10.562  0.3005  0.3700  0.1766
  148SAPE  H11A16306   3.134   4.171  10.620 -0.7373  0.1397 -0.6133
  148SAPE  H11B16307   3.229   4.217  10.489  0.6168 -0.6645  1.0982
  148SAPE     P16308   2.908   4.255  10.475 -0.2811  0.0351 -0.3506
  148SAPE   O1316309   2.836   4.283  10.602 -0.0676  0.4639  0.3173
  148SAPE   O1416310   2.842   4.309  10.354  0.1045  0.2659 -0.0241
  148SAPE   O1216311   3.049   4.316  10.487  0.1246  0.0194 -0.0423
  148SAPE   O1116312   2.942   4.098  10.451 -0.1514  0.5310  0.6187
  148SAPE    C116313   2.920   4.029  10.329 -0.7309  0.1640  0.5451
  148SAPE    HA16314   2.844   3.949  10.345 -0.7085  0.4346  2.1387
  148SAPE    HB16315   2.888   4.091  10.243 -2.3404 -1.6808 -0.2248
  148SAPE    C216316   3.041   3.946  10.285 -0.2791 -0.1462  0.1031
  148SAPE    HS16317   3.128   4.015  10.292  1.2241 -2.0624  0.4763
  148SAPE   O2116318   3.026   3.900  10.153 -0.4239  0.4132 -0.3689
  148SAPE   C2116319   3.139   3.854  10.093 -0.2952  0.0086  0.2638
  148SAPE   O2216320   3.251   3.864  10.142  0.1478 -0.3102 -0.0754
  148SAPE   C2216321   3.109   3.796   9.955  0.3894 -0.3098 -0.7582
  148SAPE   H2R16322   3.207   3.760   9.918  0.3939 -2.8186  1.4947
  148SAPE   H2S16323   3.042   3.708   9.958 -1.6577  1.2643  0.5418
  148SAPE    C316324   3.066   3.832  10.382 -0.1427 -0.3653  0.0530
  148SAPE    HX16325   3.087   3.874  10.483 -1.7667  0.7454 -0.0624
  148SAPE    HY16326   3.163   3.779  10.366  2.4097  3.8194  0.9573
  148SAPE   O3116327   2.951   3.746  10.388 -0.2665 -0.5235  0.4594
  148SAPE   C3116328   2.938   3.640  10.306 -0.2343  0.0107 -0.2663
  148SAPE   O3216329   3.028   3.577  10.250 -0.0466 -0.2577  0.1166
  148SAPE   C3216330   2.792   3.590  10.301  0.3970  0.8652 -0.6047
  148SAPE   H2X16331   2.743   3.613  10.399 -0.5436 -0.6829 -0.6960
  148SAPE   H2Y16332   2.813   3.481  10.305  0.1543  0.8618  0.8215
  148SAPE   C2316333   3.042   3.899   9.863 -0.0277  0.4040  0.0908
  148SAPE   H3R16334   3.108   3.982   9.829 -1.7442  1.8667  0.2852
  148SAPE   H3S16335   2.962   3.948   9.922  1.5865  2.4480  0.6517
  148SAPE   C2416336   2.999   3.836   9.722 -0.1296  0.0881 -0.7554
  148SAPE   H4R16337   2.940   3.911   9.666  1.1787  0.7965 -1.1953
  148SAPE   H4S16338   2.925   3.757   9.746  1.6574 -1.4059 -0.0357
  148SAPE   C2516339   3.123   3.778   9.652 -0.1149 -0.3286  0.3790
  148SAPE   H5R16340   3.220   3.768   9.701 -0.6488  1.8738  1.9429
  148SAPE   C2616341   3.117   3.746   9.524  0.2359 -0.7220  0.6426
  148SAPE   H6R16342   3.209   3.705   9.480  1.4776 -1.0465  3.4245
  148SAPE   C2716343   2.994   3.750   9.439 -0.1846  0.5768 -0.0718
  148SAPE   H7R16344   3.014   3.827   9.361 -0.3682  1.0584  0.3527
  148SAPE   H7S16345   2.900   3.789   9.484 -1.6731 -0.1147 -2.4202
  148SAPE   C2816346   2.960   3.619   9.378  0.0260  0.5416 -0.4891
  148SAPE   H8R16347   2.898   3.557   9.444 -1.3510  0.6473 -1.6571
  148SAPE   C2916348   2.992   3.566   9.256  0.4603 -0.4005  0.1861
  148SAPE   H9R16349   2.945   3.471   9.225 -0.0950 -0.9790  2.7075
  148SAPE  C21016350   3.082   3.636   9.156 -0.3352  0.1841 -0.5442
  148SAPE  H10R16351   3.075   3.746   9.161  1.6619  0.3259 -0.6177
  148SAPE  H10S16352   3.059   3.626   9.047 -1.1230 -1.7157 -0.2282
  148SAPE  C21116353   3.227   3.598   9.182 -0.2067 -0.3663  0.4893
  148SAPE  H11R16354   3.253   3.581   9.288  1.5979 -1.7669 -0.1557
  148SAPE  C21216355   3.337   3.589   9.098  0.5622 -0.9089 -0.0378
  148SAPE  H12R16356   3.438   3.565   9.136  1.3367  0.5296 -1.1463
  148SAPE  C21316357   3.348   3.616   8.949 -0.3857 -0.4779 -0.3649
  148SAPE  H13R16358   3.296   3.712   8.925 -2.1357 -1.4705 -0.6704
  148SAPE  H13S16359   3.292   3.545   8.884  0.9542 -3.5015  1.6791
  148SAPE  C21416360   3.489   3.616   8.895  0.6296 -0.1118 -0.5011
  148SAPE  H14R16361   3.514   3.717   8.859 -0.5432 -0.3284 -2.0154
  148SAPE  C21516362   3.584   3.522   8.888  0.1271  0.4068 -0.6175
  148SAPE  H15R16363   3.680   3.546   8.840  0.8045 -3.5138 -1.3804
  148SAPE  C21616364   3.563   3.385   8.948  0.1094  0.2083  0.0504
  148SAPE  H16R16365   3.540   3.306   8.874 -0.4792  0.1507  0.2913
  148SAPE  H16S16366   3.483   3.389   9.024 -1.7643 -3.5241 -1.6053
  148SAPE  C21716367   3.700   3.334   9.009  0.3643 -0.2275  0.5181
  148SAPE  H17R16368   3.672   3.236   9.055  0.3612 -0.5196 -0.0987
  148SAPE  H17S16369   3.738   3.405   9.086 -1.4291  2.1105 -0.7221
  148SAPE  C21816370   3.810   3.305   8.917  0.1428 -0.0918  0.0605
  148SAPE  H18R16371   3.844   3.399   8.868 -0.0324  0.2765  0.6361
  148SAPE  H18S16372   3.768   3.246   8.832 -1.7349  1.6085 -0.2166
  148SAPE  C21916373   3.922   3.228   8.979  0.4940  0.4600 -0.0123
  148SAPE  H19R16374   3.890   3.124   9.001  1.9191  0.2050  0.9521
  148SAPE  H19S16375   3.944   3.272   9.079 -0.3936 -0.2883  0.5187
  148SAPE  C22016376   4.038   3.228   8.889 -0.6261  0.0782 -0.1337
  148SAPE  H20R16377   4.063   3.336   8.875 -1.0510  0.2500  0.4036
  148SAPE  H20S16378   4.022   3.183   8.789  0.6557 -1.1330  0.1974
  148SAPE  H20T16379   4.127   3.177   8.933 -0.4487 -1.7998 -2.5849
  148SAPE   C3316380   2.710   3.635  10.181  0.3581 -0.2885  0.4329
  148SAPE   H3X16381   2.703   3.745  10.163 -2.8175 -0.5607 -0.1556
  148SAPE   H3Y16382   2.604   3.609  10.198  0.7693 -2.4718 -0.2913
  148SAPE   C3416383   2.759   3.578  10.053 -0.3734  0.9119  0.2937
  148SAPE   H4X16384   2.759   3.470  10.079  1.6273  0.7300 -0.3288
  148SAPE   H4Y16385   2.868   3.601  10.042 -0.8155  1.2980 -4.4502
  148SAPE   C3516386   2.670   3.596   9.933  0.4347 -0.3155 -0.0828
  148SAPE   H5X16387   2.688   3.703   9.908 -0.9633  0.2340  1.1831
  148SAPE   H5Y16388   2.563   3.598   9.964  0.2856 -1.1864 -0.5164
  148SAPE   C3616389   2.704   3.505   9.823  0.1996  0.2099  0.2825
  148SAPE   H6X16390   2.685   3.402   9.860 -1.8189  0.1743 -0.7459
  148SAPE   H6Y16391   2.811   3.520   9.797  1.0527  1.0975  4.0626
  148SAPE   C3716392   2.628   3.530   9.699  0.2557 -0.2237  0.0764
  148SAPE   H7X16393   2.654   3.630   9.658  2.4540 -0.5494  0.6188
  148SAPE   H7Y16394   2.519   3.536   9.719  0.1240  0.5887 -0.8663
  148SAPE   C3816395   2.649   3.427   9.587 -0.4687  0.4240 -0.1199
  148SAPE   H8X16396   2.606   3.326   9.605 -0.6424  0.4182 -0.5702
  148SAPE   H8Y16397   2.755   3.406   9.562 -1.2930 -0.7683 -2.7883
  148SAPE   C3916398   2.586   3.479   9.461 -0.2488 -0.4269  0.1995
  148SAPE   H9X16399   2.665   3.526   9.398  0.5408 -2.0192 -0.0179
  148SAPE   H9Y16400   2.505   3.552   9.481 -1.2740 -0.8049 -2.4118
  148SAPE  C31016401   2.519   3.362   9.375  0.0758 -0.5746  0.1192
  148SAPE  H10X16402   2.446   3.328   9.452 -1.8847  4.7098  0.8289
  148SAPE  H10Y16403   2.601   3.289   9.358  0.2162 -0.7274  1.4325
  148SAPE  C31116404   2.465   3.414   9.241 -0.5234 -0.2406 -0.7196
  148SAPE  H11X16405   2.533   3.488   9.192  0.0003 -0.7683 -0.7976
  148SAPE  H11Y16406   2.365   3.457   9.265 -1.1922 -2.0835 -0.1817
  148SAPE  C31216407   2.437   3.296   9.144  0.3199  0.1218 -0.5788
  148SAPE  H12X16408   2.350   3.321   9.079 -0.1029  1.8338  0.6133
  148SAPE  H12Y16409   2.409   3.211   9.209 -0.2718 -0.0982 -1.1146
  148SAPE  C31316410   2.567   3.252   9.065 -0.3795  0.4913  0.1391
  148SAPE  H13X16411   2.551   3.149   9.028  1.0645 -0.5237  2.2313
  148SAPE  H13Y16412   2.657   3.232   9.128  0.5681  0.0571 -1.3409
  148SAPE  C31416413   2.606   3.346   8.949  0.0828  0.4136 -0.6932
  148SAPE  H14X16414   2.670   3.421   9.001  0.4526 -0.9653  0.9273
  148SAPE  H14Y16415   2.523   3.409   8.911 -1.2023 -0.6248  0.3542
  148SAPE  C31516416   2.677   3.263   8.845 -0.1706 -0.4596 -0.0153
  148SAPE  H15X16417   2.610   3.183   8.808  1.7039 -2.1800  0.1756
  148SAPE  H15Y16418   2.768   3.218   8.890  2.5473  3.4835 -1.2448
  148SAPE  C31616419   2.734   3.343   8.727 -1.1309 -0.6040  0.0931
  148SAPE  H16X16420   2.654   3.413   8.696 -0.9659 -1.3938 -2.2183
  148SAPE  H16Y16421   2.745   3.273   8.642  1.0834 -2.4819  1.8510
  148SAPE  C31716422   2.866   3.405   8.760 -0.1220 -0.5042 -0.0974
  148SAPE  H17X16423   2.857   3.444   8.864 -1.9578 -0.5750 -0.2093
  148SAPE  H17Y16424   2.876   3.491   8.690 -0.1509  1.6316  2.4262
  148SAPE  C31816425   2.986   3.311   8.746 -0.5996 -0.5935 -0.3547
  148SAPE  H18X16426   3.093   3.336   8.765 -0.7304 -1.6292  1.8793
  148SAPE  H18Y16427   2.986   3.266   8.644  3.1190 -1.2129 -0.1554
  148SAPE  H18Z16428   2.981   3.221   8.809  3.6163 -1.9461 -1.8032
  149SAPE     N16429   5.872   5.039  11.250  0.6228 -0.2679 -0.4681
  149SAPE   HN116430   5.819   4.954  11.223 -0.2185  0.3826 -0.8656
  149SAPE   HN216431   5.963   5.046  11.199  1.4445 -0.7876  0.8858
  149SAPE   HN316432   5.898   5.040  11.351  0.4735  1.5468 -0.4263
  149SAPE   C1216433   5.776   5.154  11.213 -0.5045 -0.0602  0.5419
  149SAPE  H12A16434   5.841   5.242  11.230 -0.4525  0.2612 -1.3157
  149SAPE  H12B16435   5.697   5.151  11.292  1.8620 -0.3485  2.9871
  149SAPE   C1116436   5.720   5.150  11.062 -0.7112 -0.2192 -0.5827
  149SAPE  H11A16437   5.815   5.154  11.004  1.0278 -3.2197  1.8845
  149SAPE  H11B16438   5.666   5.245  11.042  0.4496  0.3978 -0.8827
  149SAPE     P16439   5.499   5.014  11.042  0.0820  0.1852 -0.2251
  149SAPE   O1316440   5.457   4.880  11.085 -0.1303  0.4501 -0.1855
  149SAPE   O1416441   5.454   5.127  11.130  0.5475  0.3012 -0.2221
  149SAPE   O1216442   5.653   5.029  11.027 -0.3987 -0.1668  0.5766
  149SAPE   O1116443   5.435   5.041  10.899  0.2647  0.1570 -0.2422
  149SAPE    C116444   5.489   5.103  10.787  0.2665 -0.7878  0.1651
  149SAPE    HA16445   5.598   5.123  10.795  0.2447 -0.5091 -0.2386
  149SAPE    HB16446   5.459   5.052  10.693 -1.6400  0.6351 -0.0271
  149SAPE    C216447   5.426   5.245  10.766  1.0824 -0.3745  0.2510
  149SAPE    HS16448   5.401   5.289  10.865  1.0712  2.5376 -1.0056
  149SAPE   O2116449   5.305   5.233  10.679 -0.7674 -0.3514 -0.0232
  149SAPE   C2116450   5.222   5.329  10.698  0.1370  0.0433  0.0843
  149SAPE   O2216451   5.217   5.402  10.795 -0.0756  0.0483 -0.3065
  149SAPE   C2216452   5.123   5.325  10.585 -0.0112  0.3550  0.5582
  149SAPE   H2R16453   5.171   5.289  10.491 -0.0236 -0.8117  0.9897
  149SAPE   H2S16454   5.045   5.250  10.607 -0.9918  0.8875 -1.0143
  149SAPE    C316455   5.531   5.338  10.699  0.3647  0.1356 -0.3228
  149SAPE    HX16456   5.626   5.327  10.756  1.4108 -1.1279 -2.2198
  149SAPE    HY16457   5.506   5.446  10.700 -0.6606 -0.0661 -2.0098
  149SAPE   O3116458   5.569   5.286  10.569  0.2659 -0.3986 -0.1235
  149SAPE   C3116459   5.513   5.348  10.465  0.2620  0.0195 -0.3163
  149SAPE   O3216460   5.440   5.443  10.474 -0.0922 -0.1622  0.1577
  149SAPE   C3216461   5.550   5.279  10.326 -0.3479 -0.6296  0.6659
  149SAPE   H2X16462   5.472   5.203  10.307 -0.6853 -0.3311  0.8395
  149SAPE   H2Y16463   5.645   5.227  10.350 -0.5495 -1.1712  0.2747
  149SAPE   C2316464   5.060   5.466  10.562 -0.3802 -0.2614 -0.0718
  149SAPE   H3R16465   5.135   5.546  10.544  1.5316 -2.0242 -0.0502
  149SAPE   H3S16466   5.006   5.506  10.651  0.6521  2.4390 -0.6113
  149SAPE   C2416467   4.953   5.454  10.454  0.3554 -0.4640 -0.1790
  149SAPE   H4R16468   4.886   5.534  10.492  0.2600 -2.0586  3.2201
  149SAPE   H4S16469   4.890   5.363  10.465 -0.2387 -0.1650 -1.1041
  149SAPE   C2516470   5.006   5.480  10.316  0.8675  0.3960 -0.0534
  149SAPE   H5R16471   5.095   5.544  10.323  0.1979  1.1612  1.6302
  149SAPE   C2616472   4.952   5.422  10.207  0.2437 -0.0969  1.2294
  149SAPE   H6R16473   4.998   5.446  10.110 -1.6907 -0.2375  0.2621
  149SAPE   C2716474   4.830   5.333  10.192  0.7940 -0.2926 -0.8330
  149SAPE   H7R16475   4.778   5.387  10.110  0.4247  2.0250  0.8807
  149SAPE   H7S16476   4.754   5.346  10.273 -0.1199  2.7649 -2.1090
  149SAPE   C2816477   4.862   5.188  10.159 -0.1655  0.5025 -0.0792
  149SAPE   H8R16478   4.865   5.121  10.246 -2.9515  2.0442  1.2730
  149SAPE   C2916479   4.880   5.130  10.035 -0.2191  0.1457 -0.4195
  149SAPE   H9R16480   4.909   5.024  10.030 -1.5259 -0.1843 -1.4424
  149SAPE  C21016481   4.881   5.203   9.902 -0.4998 -0.5785 -0.1574
  149SAPE  H10R16482   4.835   5.304   9.912 -0.8653 -0.8561  1.0597
  149SAPE  H10S16483   4.803   5.150   9.844 -1.6398 -1.1359  1.8214
  149SAPE  C21116484   5.028   5.213   9.857  0.4870 -0.2039  0.4662
  149SAPE  H11R16485   5.096   5.139   9.902  0.3948 -0.0409  0.8699
  149SAPE  C21216486   5.069   5.299   9.761 -0.4076  0.7501  0.8268
  149SAPE  H12R16487   5.174   5.298   9.730  0.0296  0.1062  2.2973
  149SAPE  C21316488   4.984   5.399   9.682 -0.6979  0.1171 -0.6490
  149SAPE  H13R16489   5.049   5.464   9.619  0.3030  2.5719  2.7470
  149SAPE  H13S16490   4.943   5.470   9.758  1.4587  0.4058  0.2852
  149SAPE  C21416491   4.886   5.325   9.595 -0.1536  0.2046 -0.0076
  149SAPE  H14R16492   4.795   5.288   9.644 -0.6920 -2.6745 -3.0681
  149SAPE  C21516493   4.902   5.298   9.467  0.3471 -0.3906  0.7550
  149SAPE  H15R16494   4.820   5.249   9.413  0.2892 -0.1699  0.6414
  149SAPE  C21616495   5.025   5.339   9.388  0.2220 -0.4285 -0.5207
  149SAPE  H16R16496   5.118   5.344   9.449 -0.5462  0.9371  0.5722
  149SAPE  H16S16497   5.004   5.433   9.334 -1.7944 -2.7429 -3.9850
  149SAPE  C21716498   5.043   5.236   9.277  0.1874 -0.0808  0.1224
  149SAPE  H17R16499   4.954   5.240   9.211 -1.7267 -0.0419  2.6577
  149SAPE  H17S16500   5.051   5.137   9.327 -0.1481 -0.2045 -0.0708
  149SAPE  C21816501   5.183   5.245   9.215 -0.2414 -0.5010 -0.3549
  149SAPE  H18R16502   5.250   5.229   9.302 -2.2103 -2.7189  0.8327
  149SAPE  H18S16503   5.207   5.350   9.188 -1.1305 -0.0019  0.7380
  149SAPE  C21916504   5.205   5.133   9.113 -0.2242 -0.1293 -0.0147
  149SAPE  H19R16505   5.149   5.173   9.026  2.6615 -0.9101 -2.2904
  149SAPE  H19S16506   5.157   5.038   9.144  1.7362 -0.6290  1.5105
  149SAPE  C22016507   5.350   5.111   9.089  0.3110  0.2522  0.4756
  149SAPE  H20R16508   5.405   5.193   9.037  0.5153 -0.1038  0.1247
  149SAPE  H20S16509   5.376   5.023   9.025 -1.7548  0.0405 -0.1088
  149SAPE  H20T16510   5.403   5.099   9.186 -0.2932 -1.4005  0.6165
  149SAPE   C3316511   5.562   5.387  10.217  0.5920 -0.6924 -0.1608
  149SAPE   H3X16512   5.653   5.446  10.240  0.8440 -0.3969 -1.8442
  149SAPE   H3Y16513   5.479   5.461  10.219 -0.6311 -2.0070 -0.9099
  149SAPE   C3416514   5.563   5.328  10.076 -0.1787 -0.5632  0.3868
  149SAPE   H4X16515   5.486   5.248  10.079 -1.4681  0.6154 -0.6389
  149SAPE   H4Y16516   5.663   5.280  10.076  0.6348  1.0531  2.1514
  149SAPE   C3516517   5.562   5.432   9.965 -0.1629 -0.2049  0.8499
  149SAPE   H5X16518   5.658   5.487   9.961  0.6260 -1.5693  0.6502
  149SAPE   H5Y16519   5.481   5.503   9.992  1.8784  2.4231  0.2908
  149SAPE   C3616520   5.526   5.377   9.824 -0.1755 -0.2152 -1.0699
  149SAPE   H6X16521   5.467   5.285   9.840 -1.1339  0.4318 -0.8137
  149SAPE   H6Y16522   5.615   5.337   9.770  0.1603 -0.7545 -0.1230
  149SAPE   C3716523   5.454   5.474   9.740  0.5815  0.0388 -0.1084
  149SAPE   H7X16524   5.509   5.570   9.752 -0.7875  0.8156  0.1244
  149SAPE   H7Y16525   5.347   5.488   9.768  0.5829  0.7689 -0.4474
  149SAPE   C3816526   5.463   5.434   9.595  0.0661 -0.3319  0.3034
  149SAPE   H8X16527   5.432   5.328   9.580 -0.0442  0.1356 -3.2071
  149SAPE   H8Y16528   5.570   5.443   9.565 -0.4570  3.0198 -0.7392
  149SAPE   C3916529   5.383   5.525   9.499  0.4388 -0.0811 -0.3084
  149SAPE   H9X16530   5.397   5.633   9.524  0.3786 -0.4516  1.3812
  149SAPE   H9Y16531   5.278   5.501   9.522  0.6683  0.0373  0.8890
  149SAPE  C31016532   5.422   5.503   9.351  0.3115  0.8236  0.0354
  149SAPE  H10X16533   5.417   5.393   9.332  1.5246  0.4616  1.6284
  149SAPE  H10Y16534   5.528   5.534   9.335  0.4809  0.0754 -0.3159
  149SAPE  C31116535   5.332   5.586   9.262  0.0962  0.1559  0.0681
  149SAPE  H11X16536   5.351   5.690   9.296  0.2148  0.3823 -0.6737
  149SAPE  H11Y16537   5.230   5.553   9.288  0.2854 -2.3365 -2.0521
  149SAPE  C31216538   5.358   5.572   9.111 -0.0349  0.0808 -0.6544
  149SAPE  H12X16539   5.276   5.622   9.057 -1.8157 -1.7401  0.2737
  149SAPE  H12Y16540   5.351   5.463   9.090  0.6242  0.1255 -1.1282
  149SAPE  C31316541   5.495   5.613   9.062  0.0898  0.2655  0.5317
  149SAPE  H13X16542   5.507   5.578   8.958  0.2084  2.3657 -0.1683
  149SAPE  H13Y16543   5.562   5.550   9.124  1.3763  2.2839  1.2206
  149SAPE  C31416544   5.532   5.756   9.074 -0.3512 -0.1230 -0.1852
  149SAPE  H14X16545   5.510   5.801   9.173 -0.9129 -1.9539  0.5417
  149SAPE  H14Y16546   5.479   5.816   8.997  0.2463 -0.9271 -1.2445
  149SAPE  C31516547   5.682   5.780   9.064  0.4361  0.3123  0.2489
  149SAPE  H15X16548   5.743   5.723   9.138 -3.0663 -0.9288  2.3248
  149SAPE  H15Y16549   5.700   5.889   9.076 -1.8007  0.5922  1.2545
  149SAPE  C31616550   5.735   5.745   8.932  0.1682 -0.0022  0.1317
  149SAPE  H16X16551   5.669   5.785   8.853  1.0358 -2.2774 -1.8011
  149SAPE  H16Y16552   5.720   5.638   8.907 -1.7499  0.6934 -1.7868
  149SAPE  C31716553   5.879   5.789   8.907  0.7198  1.2509  0.4758
  149SAPE  H17X16554   5.940   5.749   8.991 -0.6248 -2.2874 -0.1522
  149SAPE  H17Y16555   5.883   5.899   8.891  2.8459  1.3227  1.3361
  149SAPE  C31816556   5.932   5.725   8.777  0.2705 -0.2598  1.3284
  149SAPE  H18X16557   5.939   5.614   8.777  0.2737 -0.2590  1.0029
  149SAPE  H18Y16558   6.031   5.773   8.760  0.0781  0.5544  2.4429
  149SAPE  H18Z16559   5.864   5.755   8.695  0.6781  0.7995  1.3615
  150SAPE     N16560   6.726   4.845  11.181  0.1018 -0.5031  0.1634
  150SAPE   HN116561   6.689   4.924  11.125  2.0343  0.8048  0.6618
  150SAPE   HN216562   6.674   4.758  11.159 -0.4376 -0.5003  1.3836
  150SAPE   HN316563   6.718   4.870  11.282 -0.2701 -1.2358  0.3195
  150SAPE   C1216564   6.867   4.825  11.139  0.4965  0.1593  0.1985
  150SAPE  H12A16565   6.910   4.727  11.169 -0.6952 -0.3643  0.2223
  150SAPE  H12B16566   6.937   4.899  11.183 -0.1495 -0.2197  1.8864
  150SAPE   C1116567   6.895   4.841  10.978  0.0627  0.2131 -0.0773
  150SAPE  H11A16568   6.999   4.802  10.968  1.0775  2.1584  2.2311
  150SAPE  H11B16569   6.895   4.951  10.962 -0.3668  0.5047  1.8472
  150SAPE     P16570   6.839   4.648  10.815  0.6081  0.2423  0.3592
  150SAPE   O1316571   6.872   4.543  10.912 -0.1100  0.4695  0.2111
  150SAPE   O1416572   6.737   4.608  10.719  0.3311 -0.2614 -0.5260
  150SAPE   O1216573   6.794   4.769  10.900 -0.6045 -0.5280 -0.0142
  150SAPE   O1116574   6.958   4.702  10.724 -0.6154  0.1063 -0.0127
  150SAPE    C116575   6.967   4.827  10.665 -0.0468 -0.0065  0.4389
  150SAPE    HA16576   6.875   4.890  10.664 -0.7983 -1.0758  1.2714
  150SAPE    HB16577   7.038   4.876  10.736 -2.3252  0.0344  2.7877
  150SAPE    C216578   7.025   4.822  10.529 -0.1940 -0.1050  0.7992
  150SAPE    HS16579   7.022   4.925  10.488  1.8064  0.4329  1.9315
  150SAPE   O2116580   6.951   4.740  10.445 -0.5915  0.8098 -0.2001
  150SAPE   C2116581   6.831   4.775  10.398 -0.7782 -0.0275  0.4894
  150SAPE   O2216582   6.785   4.888  10.411  0.1934 -0.2878  0.4011
  150SAPE   C2216583   6.784   4.664  10.304  0.0135 -0.4585  0.0368
  150SAPE   H2R16584   6.865   4.652  10.229 -0.2800 -0.7684 -0.2265
  150SAPE   H2S16585   6.783   4.571  10.365  0.7085 -0.7956 -0.4615
  150SAPE    C316586   7.167   4.765  10.547  0.5200 -0.7804  0.7353
  150SAPE    HX16587   7.151   4.657  10.563 -2.1297 -1.0476 -3.1698
  150SAPE    HY16588   7.211   4.816  10.636  0.1772 -1.2492  1.1761
  150SAPE   O3116589   7.245   4.805  10.436  0.7268  0.2356  0.3077
  150SAPE   C3116590   7.330   4.714  10.400 -0.2111 -0.0153  0.7109
  150SAPE   O3216591   7.354   4.609  10.457 -0.1793 -0.1301 -0.4955
  150SAPE   C3216592   7.401   4.753  10.272 -0.2460  0.1436 -0.1937
  150SAPE   H2X16593   7.480   4.684  10.236 -0.9713 -0.9596  0.2838
  150SAPE   H2Y16594   7.439   4.855  10.292  2.5693 -0.9312  0.2600
  150SAPE   C2316595   6.643   4.701  10.245 -0.0609 -0.3590 -0.3317
  150SAPE   H3R16596   6.643   4.805  10.204  1.2744 -0.8255 -1.5587
  150SAPE   H3S16597   6.573   4.686  10.330 -1.9621 -2.4285 -2.2369
  150SAPE   C2416598   6.601   4.601  10.133  0.0593 -0.0556 -0.6534
  150SAPE   H4R16599   6.509   4.649  10.093 -0.8552  0.4834  2.0451
  150SAPE   H4S16600   6.567   4.508  10.182 -0.0920 -0.8398 -2.1910
  150SAPE   C2516601   6.709   4.563  10.033  0.5935 -0.1883 -0.3488
  150SAPE   H5R16602   6.796   4.507  10.068 -0.7256 -1.3932  1.0884
  150SAPE   C2616603   6.721   4.609   9.907 -0.2361 -1.1819 -0.4074
  150SAPE   H6R16604   6.820   4.598   9.861  0.3626  1.5595  0.1473
  150SAPE   C2716605   6.638   4.698   9.834  0.7465 -0.0537  0.4296
  150SAPE   H7R16606   6.699   4.779   9.788  3.1247 -2.6790 -1.2221
  150SAPE   H7S16607   6.580   4.759   9.906 -0.8819  0.6709 -1.4649
  150SAPE   C2816608   6.557   4.618   9.735 -0.0737 -0.5703 -0.3204
  150SAPE   H8R16609   6.484   4.555   9.788 -0.3464 -0.1988 -0.2434
  150SAPE   C2916610   6.567   4.616   9.604 -0.6345  0.0224  0.1735
  150SAPE   H9R16611   6.504   4.550   9.542  1.7513  0.1941 -2.5537
  150SAPE  C21016612   6.654   4.698   9.511  0.0499 -0.2635 -0.4608
  150SAPE  H10R16613   6.714   4.632   9.445  2.0128  0.7517  0.2583
  150SAPE  H10S16614   6.724   4.760   9.572  0.9994  0.3615 -2.1685
  150SAPE  C21116615   6.585   4.805   9.431 -0.4306  0.2294 -0.1374
  150SAPE  H11R16616   6.576   4.909   9.466 -1.5956  0.2923 -0.6088
  150SAPE  C21216617   6.531   4.766   9.309 -0.8288 -0.1924 -0.0657
  150SAPE  H12R16618   6.476   4.838   9.247 -1.3190  1.3954  2.1387
  150SAPE  C21316619   6.541   4.630   9.242 -0.1028  0.7058 -0.3370
  150SAPE  H13R16620   6.608   4.562   9.300  0.2608  1.0938 -0.2958
  150SAPE  H13S16621   6.603   4.647   9.151 -0.8092 -3.4256 -1.7044
  150SAPE  C21416622   6.412   4.565   9.201  0.0140  0.1234  0.1817
  150SAPE  H14R16623   6.329   4.569   9.273  0.8158 -0.2836  1.1416
  150SAPE  C21516624   6.378   4.515   9.082  0.5771  0.2400 -0.0937
  150SAPE  H15R16625   6.272   4.498   9.060  0.2981  0.0722  1.3375
  150SAPE  C21616626   6.463   4.501   8.957 -0.1443 -0.7936  0.5646
  150SAPE  H16R16627   6.469   4.391   8.943 -0.3232 -0.5201 -1.7672
  150SAPE  H16S16628   6.572   4.522   8.962 -0.2608 -0.0415 -0.0216
  150SAPE  C21716629   6.414   4.548   8.820 -0.4767 -0.4115  0.2600
  150SAPE  H17R16630   6.453   4.650   8.798  0.0238 -0.9490 -1.3610
  150SAPE  H17S16631   6.305   4.569   8.812  0.3866  5.1809  1.1774
  150SAPE  C21816632   6.465   4.456   8.712 -0.4540 -0.0654  0.1166
  150SAPE  H18R16633   6.573   4.430   8.715 -0.3063  0.7102  2.2169
  150SAPE  H18S16634   6.457   4.499   8.609  0.9490 -1.7505 -0.7313
  150SAPE  C21916635   6.393   4.320   8.705 -0.0305  0.4048  0.0684
  150SAPE  H19R16636   6.294   4.345   8.749  0.6742 -1.0428  2.5821
  150SAPE  H19S16637   6.439   4.233   8.756 -1.6357 -0.9580 -0.7369
  150SAPE  C22016638   6.372   4.258   8.563 -0.5255  0.3676  0.0805
  150SAPE  H20R16639   6.341   4.339   8.494  0.4763  0.1670 -0.6017
  150SAPE  H20S16640   6.298   4.176   8.578 -1.4147  1.2635  0.6918
  150SAPE  H20T16641   6.464   4.215   8.518 -0.4457  0.0133  0.5656
  150SAPE   C3316642   7.303   4.786  10.157  0.3091 -0.1103  0.3052
  150SAPE   H3X16643   7.297   4.897  10.158 -2.4068 -0.1374 -3.4367
  150SAPE   H3Y16644   7.203   4.749  10.189  1.4023 -0.9699  2.8712
  150SAPE   C3416645   7.344   4.727  10.025 -0.6892 -0.6934  0.7241
  150SAPE   H4X16646   7.326   4.618  10.035  0.3667 -0.8110  1.4866
  150SAPE   H4Y16647   7.453   4.749  10.018 -0.5672 -1.3026  0.6900
  150SAPE   C3516648   7.267   4.778   9.906 -0.4161 -0.6120 -0.6606
  150SAPE   H5X16649   7.283   4.887   9.895  1.0512 -0.3316  3.2593
  150SAPE   H5Y16650   7.163   4.758   9.939 -0.2686  1.4689  1.2228
  150SAPE   C3616651   7.299   4.714   9.774 -0.2270 -0.5983  0.5718
  150SAPE   H6X16652   7.211   4.720   9.706  0.3741 -0.5472 -0.1987
  150SAPE   H6Y16653   7.327   4.607   9.773  0.9048 -0.3010  0.2709
  150SAPE   C3716654   7.427   4.771   9.703  0.4807  0.0865  0.4176
  150SAPE   H7X16655   7.521   4.752   9.759  1.0901  2.1355  0.1335
  150SAPE   H7Y16656   7.426   4.881   9.694  0.3045  0.2445  2.0949
  150SAPE   C3816657   7.449   4.711   9.562 -0.6243  0.6845 -0.3698
  150SAPE   H8X16658   7.473   4.603   9.564  1.0058  1.0433  0.7077
  150SAPE   H8Y16659   7.533   4.780   9.538  0.0792  0.8724  2.4807
  150SAPE   C3916660   7.335   4.739   9.469 -0.0375  0.6600  0.5723
  150SAPE   H9X16661   7.329   4.850   9.476  2.3659  0.6938  3.1314
  150SAPE   H9Y16662   7.244   4.688   9.506  0.3406  0.8110  1.7439
  150SAPE  C31016663   7.356   4.698   9.323 -0.1336  0.8243  0.4536
  150SAPE  H10X16664   7.451   4.740   9.282  1.4420 -2.6966  0.3350
  150SAPE  H10Y16665   7.267   4.731   9.265 -0.0631 -0.9945 -0.7021
  150SAPE  C31116666   7.374   4.545   9.308  0.0009  0.1414 -0.1964
  150SAPE  H11X16667   7.316   4.491   9.386 -0.6142 -2.3655 -2.3109
  150SAPE  H11Y16668   7.479   4.534   9.342  0.3077 -0.4584 -1.3084
  150SAPE  C31216669   7.351   4.484   9.164 -0.1343 -0.6051 -0.1078
  150SAPE  H12X16670   7.404   4.534   9.081 -3.6090  2.7552 -0.4978
  150SAPE  H12Y16671   7.242   4.493   9.140  0.0703  0.3945 -0.6747
  150SAPE  C31316672   7.374   4.330   9.165 -0.0833 -0.1539  0.1264
  150SAPE  H13X16673   7.285   4.285   9.214  1.2112 -2.9197  0.0198
  150SAPE  H13Y16674   7.466   4.323   9.227  0.1733  0.7398 -0.1515
  150SAPE  C31416675   7.398   4.263   9.026 -0.4342 -0.2068  0.8415
  150SAPE  H14X16676   7.374   4.155   9.039  1.6563 -0.5287  2.3426
  150SAPE  H14Y16677   7.501   4.275   8.986 -0.0937  0.9784  2.0560
  150SAPE  C31516678   7.294   4.306   8.922  0.5552 -0.1554 -0.6689
  150SAPE  H15X16679   7.329   4.403   8.880  0.9023  1.0230  2.1841
  150SAPE  H15Y16680   7.192   4.324   8.963  0.4486 -0.8399 -0.6322
  150SAPE  C31616681   7.282   4.202   8.804  0.3679 -0.2416 -0.2078
  150SAPE  H16X16682   7.198   4.228   8.737 -1.2490 -0.0216  1.8648
  150SAPE  H16Y16683   7.242   4.111   8.852 -2.0858  0.7220 -0.3641
  150SAPE  C31716684   7.406   4.179   8.718  0.0661 -0.8688  0.4616
  150SAPE  H17X16685   7.491   4.138   8.777 -0.0274  1.3700  2.2159
  150SAPE  H17Y16686   7.452   4.271   8.677 -3.1707  1.5101  1.9156
  150SAPE  C31816687   7.391   4.075   8.602 -0.6700 -0.1399 -0.1995
  150SAPE  H18X16688   7.488   4.031   8.569 -0.0608  0.4120  0.8152
  150SAPE  H18Y16689   7.344   4.127   8.516 -1.3125  2.0281  1.3842
  150SAPE  H18Z16690   7.326   3.993   8.638 -1.0090  0.5954  0.9281
  151SAPE     N16691   3.769   2.264  10.775  0.2776  0.2657  0.2527
  151SAPE   HN116692   3.798   2.346  10.832 -0.5821  1.2285 -0.6584
  151SAPE   HN216693   3.725   2.183  10.823  0.1094  0.0360 -0.2851
  151SAPE   HN316694   3.858   2.225  10.739  0.2589  1.1588 -0.7979
  151SAPE   C1216695   3.696   2.285  10.645  0.7328 -0.4429  1.5882
  151SAPE  H12A16696   3.720   2.381  10.595 -0.6734  0.3523  2.3981
  151SAPE  H12B16697   3.590   2.273  10.678  0.6963  0.1738  1.6993
  151SAPE   C1116698   3.717   2.167  10.539 -0.3231  0.5245  0.1322
  151SAPE  H11A16699   3.668   2.205  10.447  4.0557 -0.0837 -2.5949
  151SAPE  H11B16700   3.663   2.075  10.569  3.3541 -1.5185  0.8378
  151SAPE     P16701   3.957   2.215  10.426 -0.2180  0.1374  0.3690
  151SAPE   O1316702   3.966   2.356  10.456  0.2209  0.1905 -0.0356
  151SAPE   O1416703   4.080   2.135  10.414 -0.2410 -0.0216  0.5910
  151SAPE   O1216704   3.854   2.140  10.520 -0.8972  0.0564  0.4181
  151SAPE   O1116705   3.884   2.197  10.284 -0.1061  0.1345 -0.3884
  151SAPE    C116706   3.826   2.070  10.252  0.1099 -0.0044  0.2093
  151SAPE    HA16707   3.838   1.990  10.328 -1.1766 -0.6958 -0.2897
  151SAPE    HB16708   3.717   2.091  10.245  0.9171  3.8121 -2.1369
  151SAPE    C216709   3.854   2.018  10.118  0.1673 -0.7184 -0.1280
  151SAPE    HS16710   3.960   1.985  10.114  0.2720 -0.3988 -0.0222
  151SAPE   O2116711   3.836   2.120  10.012 -0.4445  0.2218 -0.3495
  151SAPE   C2116712   3.941   2.199   9.996 -0.3020  0.8276 -0.2244
  151SAPE   O2216713   4.054   2.186  10.035  0.3595  0.0497 -0.4271
  151SAPE   C2216714   3.897   2.303   9.894 -0.5419 -0.2326 -0.1683
  151SAPE   H2R16715   3.809   2.353   9.940 -1.3135  0.6654 -2.5424
  151SAPE   H2S16716   3.981   2.373   9.873  0.2289 -1.5876 -1.6785
  151SAPE    C316717   3.769   1.887  10.091 -0.3992 -0.4244  0.4252
  151SAPE    HX16718   3.664   1.916  10.114 -0.2500  1.6644 -1.3297
  151SAPE    HY16719   3.794   1.807  10.163  2.5804  0.4922  0.4385
  151SAPE   O3116720   3.793   1.856   9.950 -0.5603 -0.0203 -0.2625
  151SAPE   C3116721   3.908   1.809   9.916 -0.2397 -0.1723  0.3170
  151SAPE   O3216722   4.010   1.792   9.987  0.4287  0.6496  0.0477
  151SAPE   C3216723   3.907   1.787   9.757 -0.1954  0.7960 -0.0492
  151SAPE   H2X16724   3.803   1.779   9.719  0.6509  2.0655 -2.8289
  151SAPE   H2Y16725   3.953   1.687   9.743 -1.4926  0.2003 -0.1795
  151SAPE   C2316726   3.862   2.235   9.761  0.4173  0.5753  0.2566
  151SAPE   H3R16727   3.799   2.143   9.766 -0.1744  0.9644  0.0920
  151SAPE   H3S16728   3.951   2.203   9.704 -1.0690 -2.0540 -0.6957
  151SAPE   C2416729   3.777   2.333   9.671 -0.0315  0.9952 -0.6105
  151SAPE   H4R16730   3.791   2.440   9.700 -0.6574  0.3461  2.1952
  151SAPE   H4S16731   3.673   2.310   9.702 -0.2355  0.8729 -1.3768
  151SAPE   C2516732   3.804   2.328   9.524  0.6413 -0.1501  1.0840
  151SAPE   H5R16733   3.900   2.373   9.497  0.7014  0.7900  2.8444
  151SAPE   C2616734   3.743   2.263   9.425  0.6647  0.0126  0.2634
  151SAPE   H6R16735   3.781   2.274   9.322  0.3651  4.2036  0.5009
  151SAPE   C2716736   3.613   2.186   9.438  0.4919  0.5279 -0.0974
  151SAPE   H7R16737   3.550   2.227   9.355  0.3404 -0.3447 -0.4162
  151SAPE   H7S16738   3.564   2.206   9.535  0.6589  0.3170  0.0298
  151SAPE   C2816739   3.642   2.041   9.432 -0.6110  0.8144 -0.2552
  151SAPE   H8R16740   3.690   1.994   9.519 -1.8489 -0.3825 -0.2095
  151SAPE   C2916741   3.629   1.960   9.325  0.0725 -0.3737 -0.4423
  151SAPE   H9R16742   3.632   1.850   9.334 -1.7079 -0.3683  0.3696
  151SAPE  C21016743   3.588   2.006   9.187  0.2545 -0.0394  0.0617
  151SAPE  H10R16744   3.588   2.117   9.177 -0.2383 -0.1682 -1.5180
  151SAPE  H10S16745   3.482   1.978   9.167 -0.0296  2.7182 -2.8079
  151SAPE  C21116746   3.677   1.947   9.077  0.8165  0.0654 -0.7164
  151SAPE  H11R16747   3.761   1.892   9.122 -0.5496 -2.2231 -0.9018
  151SAPE  C21216748   3.657   1.967   8.942 -0.5336 -0.2641 -0.5571
  151SAPE  H12R16749   3.746   1.938   8.886  0.6364  0.0995  1.0719
  151SAPE  C21316750   3.545   2.041   8.882 -0.3654  0.7274 -0.9160
  151SAPE  H13R16751   3.493   2.098   8.962  1.8403 -2.9850  3.4599
  151SAPE  H13S16752   3.473   1.964   8.848  0.2896  0.5317 -1.8868
  151SAPE  C21416753   3.580   2.125   8.759  0.3603  1.1991  0.5038
  151SAPE  H14R16754   3.679   2.169   8.745  0.5431  0.3439 -0.9549
  151SAPE  C21516755   3.491   2.142   8.652  0.4117  0.3337  0.0514
  151SAPE  H15R16756   3.517   2.198   8.561  1.2453  1.1504  0.7757
  151SAPE  C21616757   3.349   2.083   8.634  0.7133 -0.7073  0.0879
  151SAPE  H16R16758   3.316   2.012   8.713  0.9035 -0.7459  0.1326
  151SAPE  H16S16759   3.359   2.024   8.540  0.1162 -1.2703  0.3679
  151SAPE  C21716760   3.240   2.188   8.620 -0.3846  0.4931 -0.0740
  151SAPE  H17R16761   3.272   2.292   8.597 -2.6335  1.1204 -0.4628
  151SAPE  H17S16762   3.195   2.202   8.721  1.6328  1.0544  0.7832
  151SAPE  C21816763   3.133   2.167   8.515 -0.3179  0.6464 -0.3175
  151SAPE  H18R16764   3.116   2.058   8.516 -2.4577  0.9647  0.1385
  151SAPE  H18S16765   3.164   2.201   8.414  3.8487  4.6128  2.0665
  151SAPE  C21916766   2.995   2.228   8.549 -0.4693 -0.2094  0.4094
  151SAPE  H19R16767   3.001   2.339   8.547 -2.0424 -0.1179  0.3345
  151SAPE  H19S16768   2.955   2.193   8.647  2.3028 -1.9735  0.9887
  151SAPE  C22016769   2.899   2.191   8.430  0.0166 -0.1072 -0.2858
  151SAPE  H20R16770   2.892   2.080   8.420 -0.6982  0.0252 -1.3827
  151SAPE  H20S16771   2.949   2.217   8.334  0.7261 -0.0591  0.0922
  151SAPE  H20T16772   2.795   2.228   8.444  0.8527  2.1616  0.1617
  151SAPE   C3316773   3.979   1.891   9.673 -0.8609 -0.1420 -0.1353
  151SAPE   H3X16774   4.086   1.874   9.696 -0.5768  0.0477 -1.3241
  151SAPE   H3Y16775   3.945   1.996   9.684  0.1717  0.3509 -1.6720
  151SAPE   C3416776   3.962   1.866   9.526  0.2092 -0.3153 -0.2067
  151SAPE   H4X16777   3.856   1.851   9.498 -0.3826  2.1515  0.5697
  151SAPE   H4Y16778   4.008   1.769   9.499 -2.2141 -1.3197 -0.7933
  151SAPE   C3516779   4.031   1.964   9.428  0.0792  0.1341 -0.2859
  151SAPE   H5X16780   4.139   1.978   9.452  0.4742  1.1030 -2.5266
  151SAPE   H5Y16781   3.989   2.066   9.421 -1.0990 -0.0916  2.7320
  151SAPE   C3616782   4.031   1.897   9.282  0.2502  0.0470  0.2823
  151SAPE   H6X16783   3.928   1.884   9.242  0.5739 -0.8151 -0.2733
  151SAPE   H6Y16784   4.093   1.805   9.289  2.0273  0.9558 -2.7108
  151SAPE   C3716785   4.098   1.986   9.178 -0.8600  0.2864  0.0366
  151SAPE   H7X16786   4.206   1.997   9.201 -1.0850  1.8475  0.4540
  151SAPE   H7Y16787   4.057   2.089   9.179  0.5308  0.8697 -0.7168
  151SAPE   C3816788   4.100   1.938   9.033  0.3161  0.2874  0.1153
  151SAPE   H8X16789   3.996   1.930   8.994  0.1914  1.3967  0.2075
  151SAPE   H8Y16790   4.138   1.834   9.036  2.0257  0.9280  1.7560
  151SAPE   C3916791   4.173   2.030   8.941 -0.6115 -0.3681  0.8618
  151SAPE   H9X16792   4.271   2.047   8.991  0.0005 -2.1318  0.3127
  151SAPE   H9Y16793   4.121   2.127   8.931  3.2866  1.6030 -1.5952
  151SAPE  C31016794   4.203   1.976   8.804  0.0317 -0.1831 -0.6180
  151SAPE  H10X16795   4.275   1.892   8.809 -2.4975 -2.4036  0.1065
  151SAPE  H10Y16796   4.260   2.054   8.749  0.1177  0.0699 -0.1743
  151SAPE  C31116797   4.071   1.934   8.729  0.4992 -0.3587 -0.1316
  151SAPE  H11X16798   4.007   2.025   8.724 -1.4569 -1.7911 -2.4482
  151SAPE  H11Y16799   4.008   1.855   8.774 -2.2662  0.6391 -2.0945
  151SAPE  C31216800   4.097   1.881   8.582 -0.1980 -1.3133 -0.3087
  151SAPE  H12X16801   4.166   1.959   8.543 -0.3669 -1.5223 -1.0461
  151SAPE  H12Y16802   4.000   1.882   8.527 -0.7599  0.4659  0.6696
  151SAPE  C31316803   4.170   1.743   8.574  0.5366 -0.5206 -0.0711
  151SAPE  H13X16804   4.271   1.736   8.619  0.5141 -3.8375 -0.4247
  151SAPE  H13Y16805   4.176   1.719   8.466  0.8727  0.2086 -0.2139
  151SAPE  C31416806   4.092   1.632   8.650 -0.2157  0.3867  0.8404
  151SAPE  H14X16807   3.984   1.640   8.626 -0.3726 -0.2370  1.3319
  151SAPE  H14Y16808   4.119   1.642   8.757  0.7276  2.2389  0.4387
  151SAPE  C31516809   4.120   1.491   8.590 -0.0583  0.1855 -0.5422
  151SAPE  H15X16810   4.099   1.483   8.481 -2.0650  2.3638 -0.3632
  151SAPE  H15Y16811   4.052   1.412   8.626 -1.6875  1.7706 -0.0979
  151SAPE  C31616812   4.265   1.442   8.608 -0.1004  0.6426 -0.4831
  151SAPE  H16X16813   4.283   1.405   8.711 -1.9645 -0.9523 -0.7082
  151SAPE  H16Y16814   4.343   1.518   8.585  0.0721  0.1952 -1.3952
  151SAPE  C31716815   4.323   1.326   8.512  0.4921  0.1289 -0.2119
  151SAPE  H17X16816   4.295   1.364   8.411  2.6037  4.4345  0.7434
  151SAPE  H17Y16817   4.267   1.233   8.536  0.6387  0.6440  2.2284
  151SAPE  C31816818   4.471   1.306   8.525 -0.1742  0.2334 -0.1859
  151SAPE  H18X16819   4.497   1.232   8.604  0.3216 -1.6645 -2.0786
  151SAPE  H18Y16820   4.524   1.404   8.529 -0.3709  0.3208  0.2907
  151SAPE  H18Z16821   4.505   1.260   8.430 -2.6367  0.0731 -1.0320
  152SAPE     N16822   5.576   1.714  10.890 -0.3543 -0.3297 -0.1568
  152SAPE   HN116823   5.620   1.795  10.938  1.5385 -0.7365 -1.1299
  152SAPE   HN216824   5.481   1.733  10.854  0.5972  3.6408 -0.7363
  152SAPE   HN316825   5.568   1.639  10.961 -0.9423 -0.0076  0.1145
  152SAPE   C1216826   5.678   1.676  10.785  0.5026  0.1444 -0.8353
  152SAPE  H12A16827   5.760   1.629  10.843 -1.3901 -0.5172  1.4117
  152SAPE  H12B16828   5.714   1.775  10.749 -0.7085  0.5911 -0.8601
  152SAPE   C1116829   5.629   1.584  10.677  1.0061  0.0464 -0.2042
  152SAPE  H11A16830   5.576   1.496  10.719  2.0970  0.4922  2.1809
  152SAPE  H11B16831   5.723   1.559  10.623  2.9458  0.0297  3.0916
  152SAPE     P16832   5.397   1.666  10.582 -0.0871 -0.2794 -0.4078
  152SAPE   O1316833   5.359   1.670  10.725  0.4744  0.1035  0.3731
  152SAPE   O1416834   5.362   1.787  10.512 -0.1564 -0.1957  0.6180
  152SAPE   O1216835   5.554   1.660  10.578 -0.1624  0.0782  0.1711
  152SAPE   O1116836   5.342   1.538  10.510 -0.3140 -0.2392  0.0873
  152SAPE    C116837   5.417   1.445  10.433  0.2912  0.4542 -0.3814
  152SAPE    HA16838   5.510   1.490  10.394  1.4186 -0.6582  0.9525
  152SAPE    HB16839   5.444   1.368  10.509  0.4105  0.2026 -0.6768
  152SAPE    C216840   5.334   1.378  10.321  0.0183 -0.8952  0.1039
  152SAPE    HS16841   5.392   1.293  10.277  2.3551  0.1549  1.0620
  152SAPE   O2116842   5.294   1.470  10.216 -0.2340  0.3460 -0.2298
  152SAPE   C2116843   5.390   1.507  10.131 -0.0156  0.5383 -1.0536
  152SAPE   O2216844   5.504   1.479  10.146  0.3258 -0.2886 -0.1454
  152SAPE   C2216845   5.329   1.577  10.010 -0.1953  0.4453 -0.4912
  152SAPE   H2R16846   5.219   1.565  10.012 -0.0945 -0.5210 -0.5641
  152SAPE   H2S16847   5.351   1.685  10.024 -0.2483  0.2737  1.0341
  152SAPE    C316848   5.209   1.308  10.384  0.0407 -0.7896 -0.2485
  152SAPE    HX16849   5.140   1.378  10.436  0.7652 -0.7165  0.6270
  152SAPE    HY16850   5.232   1.239  10.467 -0.8180  1.8780  2.2982
  152SAPE   O3116851   5.132   1.245  10.279  0.0993 -0.2081 -0.3740
  152SAPE   C3116852   5.172   1.123  10.246  0.9029 -0.1852  0.0746
  152SAPE   O3216853   5.269   1.065  10.294 -0.0693  0.3108 -0.3958
  152SAPE   C3216854   5.074   1.066  10.144  0.1355 -0.0585  0.3621
  152SAPE   H2X16855   4.970   1.074  10.184  0.4737 -1.1289  1.4906
  152SAPE   H2Y16856   5.082   0.955  10.132  0.9692 -0.0370  0.7476
  152SAPE   C2316857   5.404   1.534   9.876  0.7236  0.0950  0.0022
  152SAPE   H3R16858   5.400   1.423   9.882 -1.3372  0.0551 -1.6297
  152SAPE   H3S16859   5.511   1.560   9.863  0.8377  0.6228  1.8280
  152SAPE   C2416860   5.331   1.576   9.748 -0.3666  0.0382  0.3427
  152SAPE   H4R16861   5.222   1.556   9.758 -0.6430  0.2598 -1.9152
  152SAPE   H4S16862   5.354   1.497   9.673  1.9557  1.1130 -0.1294
  152SAPE   C2516863   5.358   1.714   9.697 -0.1799 -0.0124 -0.3678
  152SAPE   H5R16864   5.345   1.805   9.757 -3.1199 -0.6625  0.0401
  152SAPE   C2616865   5.388   1.728   9.565 -0.0202 -0.7877 -0.1017
  152SAPE   H6R16866   5.385   1.829   9.521  0.4036 -0.3170  0.9365
  152SAPE   C2716867   5.399   1.622   9.456  0.8518 -0.8236  0.0012
  152SAPE   H7R16868   5.403   1.672   9.356  0.5037 -1.0722 -0.1357
  152SAPE   H7S16869   5.309   1.560   9.444  1.4827 -1.9089  0.8316
  152SAPE   C2816870   5.516   1.534   9.455  0.1592 -0.5419 -0.8336
  152SAPE   H8R16871   5.572   1.524   9.549 -0.8575  1.5351  0.0284
  152SAPE   C2916872   5.574   1.479   9.344  0.0394  0.0516 -0.5910
  152SAPE   H9R16873   5.662   1.417   9.368  1.9957  2.4077 -1.4004
  152SAPE  C21016874   5.535   1.503   9.199  0.2866 -0.1703  0.3656
  152SAPE  H10R16875   5.449   1.571   9.188  2.0787  2.0930 -0.0455
  152SAPE  H10S16876   5.510   1.399   9.170 -1.2627  0.4120 -0.4006
  152SAPE  C21116877   5.652   1.573   9.113 -0.4407 -0.1025  0.3933
  152SAPE  H11R16878   5.704   1.662   9.150 -2.3782  0.5602  1.6420
  152SAPE  C21216879   5.693   1.528   8.991 -0.4147  0.1281  0.4539
  152SAPE  H12R16880   5.783   1.575   8.949 -0.1632 -1.8959 -1.3681
  152SAPE  C21316881   5.641   1.402   8.916  0.1497  0.0845 -0.2082
  152SAPE  H13R16882   5.633   1.417   8.806 -2.2592 -0.3265 -0.1175
  152SAPE  H13S16883   5.538   1.378   8.948  0.3052 -0.7269 -0.2824
  152SAPE  C21416884   5.727   1.284   8.950  0.0137 -0.0164 -0.1408
  152SAPE  H14R16885   5.768   1.279   9.052 -0.7417  3.1684  0.3609
  152SAPE  C21516886   5.780   1.201   8.859  0.6926 -0.6365  0.6364
  152SAPE  H15R16887   5.838   1.114   8.894 -0.2156 -1.6965 -0.4371
  152SAPE  C21616888   5.759   1.205   8.715  0.1185 -0.6116  0.4022
  152SAPE  H16R16889   5.655   1.240   8.695  0.6062  0.7097  0.1534
  152SAPE  H16S16890   5.771   1.105   8.669 -0.5659 -0.6406  0.2809
  152SAPE  C21716891   5.852   1.301   8.649 -0.1519 -0.2701  0.1433
  152SAPE  H17R16892   5.956   1.283   8.685  0.4424  2.6194  0.0030
  152SAPE  H17S16893   5.821   1.400   8.689  2.3885  0.6291 -0.0175
  152SAPE  C21816894   5.858   1.314   8.502  0.3572  0.1679 -0.8461
  152SAPE  H18R16895   5.754   1.314   8.465  0.7584 -0.5667 -2.0079
  152SAPE  H18S16896   5.907   1.223   8.462  0.0298 -0.8796  1.0714
  152SAPE  C21916897   5.938   1.435   8.460 -0.1017 -0.1685  0.2331
  152SAPE  H19R16898   5.883   1.526   8.494 -1.7040 -2.1823  3.2549
  152SAPE  H19S16899   5.934   1.443   8.349 -0.3233 -1.5139  0.1359
  152SAPE  C22016900   6.091   1.440   8.498  0.2809 -0.3248  0.0620
  152SAPE  H20R16901   6.131   1.539   8.465 -1.5729  0.4332  0.0309
  152SAPE  H20S16902   6.157   1.356   8.468  0.4014  0.7370 -2.9074
  152SAPE  H20T16903   6.096   1.435   8.609  0.6705  0.1914  0.0743
  152SAPE   C3316904   5.080   1.145   9.999  0.4976  0.0791 -0.0680
  152SAPE   H3X16905   5.036   1.246  10.008 -2.9514 -1.4550  1.5709
  152SAPE   H3Y16906   5.009   1.094   9.930  1.1741  1.4676 -1.8053
  152SAPE   C3416907   5.213   1.138   9.926 -0.1345 -0.5463 -0.4766
  152SAPE   H4X16908   5.274   1.046   9.942  0.0747 -0.8506 -2.8592
  152SAPE   H4Y16909   5.278   1.217   9.970 -1.1275 -1.0911  2.1006
  152SAPE   C3516910   5.189   1.144   9.770  0.3805 -0.3174  0.5734
  152SAPE   H5X16911   5.137   1.239   9.745 -1.5560 -0.5985  3.2931
  152SAPE   H5Y16912   5.108   1.071   9.748 -1.6023  1.7253  0.9371
  152SAPE   C3616913   5.312   1.122   9.676 -0.0763 -0.0372 -0.1657
  152SAPE   H6X16914   5.353   1.024   9.709 -0.4378 -0.4857 -1.0455
  152SAPE   H6Y16915   5.388   1.203   9.684 -2.2706  2.0940 -0.4136
  152SAPE   C3716916   5.274   1.115   9.523  0.0668  0.2389  0.0076
  152SAPE   H7X16917   5.226   1.213   9.499 -2.1823 -0.7652  0.2762
  152SAPE   H7Y16918   5.202   1.032   9.510 -1.7820  0.9639  4.5750
  152SAPE   C3816919   5.403   1.100   9.441 -0.3579 -0.9375 -0.3774
  152SAPE   H8X16920   5.446   0.998   9.447  0.5111 -0.6176 -0.9012
  152SAPE   H8Y16921   5.481   1.169   9.481 -1.7561 -0.9674  2.4935
  152SAPE   C3916922   5.378   1.138   9.297 -0.2871 -0.6969 -0.3390
  152SAPE   H9X16923   5.366   1.249   9.301 -0.7418 -0.7247 -0.8024
  152SAPE   H9Y16924   5.293   1.086   9.248 -0.0567  1.0214 -2.6671
  152SAPE  C31016925   5.507   1.102   9.218  0.5408  0.7903  0.1213
  152SAPE  H10X16926   5.598   1.115   9.281  1.0014  1.8124 -0.7240
  152SAPE  H10Y16927   5.513   1.170   9.129 -0.5063  0.4717 -0.1948
  152SAPE  C31116928   5.530   0.962   9.160  0.1749 -0.0361 -0.6307
  152SAPE  H11X16929   5.509   0.881   9.233 -0.9512 -0.7362 -1.6974
  152SAPE  H11Y16930   5.633   0.962   9.120  1.0228 -0.4768  1.5133
  152SAPE  C31216931   5.449   0.939   9.029  0.4254 -0.2123  0.2760
  152SAPE  H12X16932   5.455   1.032   8.968 -1.0478 -0.5792 -0.4376
  152SAPE  H12Y16933   5.342   0.939   9.057  0.4362 -0.6856  0.3233
  152SAPE  C31316934   5.482   0.824   8.937  0.4543 -0.9758 -0.0471
  152SAPE  H13X16935   5.441   0.731   8.981 -1.0452 -0.0514  0.5135
  152SAPE  H13Y16936   5.592   0.809   8.924  0.3328 -0.5016 -1.7445
  152SAPE  C31416937   5.413   0.828   8.803  0.2573  0.1773  0.1081
  152SAPE  H14X16938   5.482   0.789   8.725  0.0892  1.3489 -0.6414
  152SAPE  H14Y16939   5.411   0.937   8.780  0.1789  0.3491  0.9033
  152SAPE  C31516940   5.273   0.775   8.785 -0.6588 -0.4395  0.5804
  152SAPE  H15X16941   5.213   0.799   8.875 -1.7239 -0.4044 -0.1381
  152SAPE  H15Y16942   5.271   0.665   8.767 -0.4626 -0.2599 -0.6042
  152SAPE  C31616943   5.213   0.834   8.664 -0.6985  0.2791 -0.9776
  152SAPE  H16X16944   5.206   0.945   8.673 -2.3898 -0.0335  2.3734
  152SAPE  H16Y16945   5.110   0.792   8.672  0.6592 -2.8967  0.9950
  152SAPE  C31716946   5.277   0.801   8.531  0.1569  0.2614  0.1681
  152SAPE  H17X16947   5.379   0.839   8.508 -1.1700  3.4702 -0.6468
  152SAPE  H17Y16948   5.212   0.851   8.456 -0.1007 -1.3774 -0.7213
  152SAPE  C31816949   5.273   0.653   8.484  0.7620 -0.1867  0.7091
  152SAPE  H18X16950   5.337   0.585   8.544 -1.2280 -3.6317 -0.9031
  152SAPE  H18Y16951   5.310   0.637   8.381 -1.6266  0.2598 -0.2575
  152SAPE  H18Z16952   5.170   0.612   8.487  1.5936 -2.4145 -0.0591
  153SAPE     N16953   5.044   2.113  10.609 -0.2751  0.2868  0.1437
  153SAPE   HN116954   5.135   2.096  10.563  0.5459 -1.5924  2.3533
  153SAPE   HN216955   4.976   2.034  10.606 -0.1559  0.0859  1.8950
  153SAPE   HN316956   4.988   2.193  10.573 -1.4121 -0.8832 -0.7167
  153SAPE   C1216957   5.077   2.152  10.745  0.4851  0.4379 -0.4339
  153SAPE  H12A16958   5.116   2.066  10.802 -3.0096 -1.1225 -0.2739
  153SAPE  H12B16959   4.994   2.202  10.798 -0.3773  1.7649 -2.9184
  153SAPE   C1116960   5.187   2.257  10.740  0.5162  0.4979 -0.0587
  153SAPE  H11A16961   5.274   2.220  10.682  0.3402 -0.1385  0.0805
  153SAPE  H11B16962   5.231   2.258  10.842  0.0587 -0.6678  0.1591
  153SAPE     P16963   5.243   2.513  10.723 -0.4598  0.3705  0.1435
  153SAPE   O1316964   5.167   2.621  10.781 -0.3927 -0.1013  0.1324
  153SAPE   O1416965   5.356   2.461  10.805 -0.0104 -0.6136  0.8229
  153SAPE   O1216966   5.143   2.391  10.707  0.2972  0.0480  0.1118
  153SAPE   O1116967   5.289   2.547  10.573 -0.2915  0.2801  0.3315
  153SAPE    C116968   5.343   2.451  10.487 -0.4237 -0.1087 -0.1005
  153SAPE    HA16969   5.414   2.381  10.536  0.3977 -0.1815 -1.4000
  153SAPE    HB16970   5.261   2.392  10.441 -0.3038 -0.9224  0.7081
  153SAPE    C216971   5.426   2.523  10.370  0.9243  0.1090  0.4686
  153SAPE    HS16972   5.509   2.576  10.421  0.3040  1.4109  0.1449
  153SAPE   O2116973   5.337   2.614  10.294  0.0242  0.1971 -0.0283
  153SAPE   C2116974   5.352   2.737  10.312 -1.0356 -0.3583  0.1602
  153SAPE   O2216975   5.432   2.800  10.379  0.2755 -0.3943  0.3006
  153SAPE   C2216976   5.247   2.809  10.223 -0.0890  0.8409 -0.5570
  153SAPE   H2R16977   5.148   2.793  10.271 -0.6407 -0.4319 -2.0723
  153SAPE   H2S16978   5.273   2.917  10.228 -0.5442  1.1209 -3.2890
  153SAPE    C316979   5.487   2.424  10.264 -0.1154  0.1070  0.7460
  153SAPE    HX16980   5.396   2.417  10.200  0.0020 -1.6224  0.7699
  153SAPE    HY16981   5.524   2.326  10.299 -0.7832 -0.2219  0.5437
  153SAPE   O3116982   5.587   2.495  10.191  0.4138  0.0073 -0.2369
  153SAPE   C3116983   5.586   2.483  10.056 -0.5516  0.0517 -0.6539
  153SAPE   O3216984   5.493   2.423  10.000  0.2412 -0.5450 -0.2175
  153SAPE   C3216985   5.693   2.567   9.986 -0.3883  0.1243  0.8509
  153SAPE   H2X16986   5.795   2.559  10.028  1.3106  1.7668 -2.7884
  153SAPE   H2Y16987   5.663   2.674   9.993 -0.4063  0.0331  2.2036
  153SAPE   C2316988   5.233   2.750  10.078 -0.1485 -0.4645  1.0338
  153SAPE   H3R16989   5.133   2.787  10.049 -0.0556 -0.9546  0.0588
  153SAPE   H3S16990   5.248   2.640  10.067 -0.3886 -0.4826  0.8907
  153SAPE   C2416991   5.345   2.816   9.990 -0.1964  1.0839  0.5729
  153SAPE   H4R16992   5.362   2.747   9.905 -0.1381  0.7702  0.8415
  153SAPE   H4S16993   5.445   2.820  10.038 -0.1866 -0.8477  0.7415
  153SAPE   C2516994   5.315   2.947   9.930 -0.5339 -0.1716  0.3100
  153SAPE   H5R16995   5.288   3.014  10.012 -2.0966 -1.8580  1.2015
  153SAPE   C2616996   5.325   2.996   9.801 -0.2604  0.3114 -0.2472
  153SAPE   H6R16997   5.303   3.102   9.783 -0.7947  0.5630  1.7820
  153SAPE   C2716998   5.371   2.918   9.673  0.5056 -0.1693 -0.0642
  153SAPE   H7R16999   5.387   2.809   9.689 -2.4161 -0.8371 -1.3787
  153SAPE   H7S17000   5.462   2.965   9.631  1.6724 -0.1259  2.4845
  153SAPE   C2817001   5.255   2.941   9.573 -0.4703  0.0665 -0.1444
  153SAPE   H8R17002   5.157   2.927   9.620 -0.7382  1.7858 -0.1358
  153SAPE   C2917003   5.265   2.955   9.441 -0.1977 -0.3852  0.2056
  153SAPE   H9R17004   5.175   2.959   9.377 -0.3299 -1.2034  0.3384
  153SAPE  C21017005   5.394   2.953   9.368 -0.2442  0.7571  0.7324
  153SAPE  H10R17006   5.430   2.847   9.367 -0.4783  0.6644 -1.7693
  153SAPE  H10S17007   5.472   3.002   9.430  1.6397 -0.3183 -0.7455
  153SAPE  C21117008   5.398   3.008   9.229 -0.5352  0.6631 -0.1736
  153SAPE  H11R17009   5.407   3.117   9.224 -2.0229  1.0597  3.9350
  153SAPE  C21217010   5.388   2.943   9.117 -0.0607  0.4107 -0.2581
  153SAPE  H12R17011   5.394   3.001   9.023 -2.9058 -0.3203 -0.9390
  153SAPE  C21317012   5.381   2.797   9.092 -0.0634  0.0503 -0.0533
  153SAPE  H13R17013   5.341   2.750   9.185  1.9905 -0.4789  0.5787
  153SAPE  H13S17014   5.485   2.764   9.075  0.2262  0.4958  0.8608
  153SAPE  C21417015   5.294   2.761   8.972  0.7399 -0.0702  0.1367
  153SAPE  H14R17016   5.186   2.783   8.974  0.4044 -1.4613 -1.6515
  153SAPE  C21517017   5.315   2.709   8.844  0.3768  0.1011 -0.0924
  153SAPE  H15R17018   5.226   2.700   8.781 -0.1849 -1.8116  0.9320
  153SAPE  C21617019   5.441   2.659   8.789 -0.3755  0.4215 -0.0593
  153SAPE  H16R17020   5.430   2.555   8.752  0.3555  0.3124  0.0252
  153SAPE  H16S17021   5.510   2.640   8.873 -0.3670 -3.0181 -0.7700
  153SAPE  C21717022   5.517   2.758   8.692 -0.2039  0.5884 -0.5365
  153SAPE  H17R17023   5.488   2.861   8.721 -2.2288 -0.6583  2.0963
  153SAPE  H17S17024   5.488   2.731   8.588  1.1466 -0.6947 -0.6094
  153SAPE  C21817025   5.669   2.757   8.709  0.2801  0.5486 -0.4706
  153SAPE  H18R17026   5.695   2.650   8.695 -2.0364 -0.3965  2.1653
  153SAPE  H18S17027   5.700   2.777   8.814 -3.1871 -0.8102  0.8935
  153SAPE  C21917028   5.755   2.848   8.622 -0.5865  0.1123 -0.5832
  153SAPE  H19R17029   5.739   2.953   8.655  0.5203  0.0407  0.2385
  153SAPE  H19S17030   5.738   2.837   8.513  1.3594  0.2791 -0.9189
  153SAPE  C22017031   5.909   2.809   8.640 -0.4220  0.3575  0.1536
  153SAPE  H20R17032   5.930   2.713   8.691  0.9512  0.0783 -0.9118
  153SAPE  H20S17033   5.946   2.895   8.699 -0.0214 -0.0665  0.5208
  153SAPE  H20T17034   5.955   2.809   8.539 -0.2278 -1.6556  0.2186
  153SAPE   C3317035   5.723   2.529   9.838 -0.1342 -0.3436  1.5595
  153SAPE   H3X17036   5.714   2.420   9.821  1.9005 -0.1444 -1.1612
  153SAPE   H3Y17037   5.821   2.569   9.804  0.1538 -0.1214  2.6268
  153SAPE   C3417038   5.615   2.589   9.742  0.8599  0.3942  0.4379
  153SAPE   H4X17039   5.606   2.700   9.745  0.8734  0.5380 -2.8768
  153SAPE   H4Y17040   5.517   2.551   9.780  1.0574  2.3759  3.0788
  153SAPE   C3517041   5.628   2.555   9.588  0.0091  0.0860 -0.5538
  153SAPE   H5X17042   5.736   2.535   9.572  0.0649  0.7480 -1.0282
  153SAPE   H5Y17043   5.593   2.639   9.525  1.0410 -0.3664 -1.7553
  153SAPE   C3617044   5.543   2.437   9.551  0.4181 -0.5957 -0.1559
  153SAPE   H6X17045   5.437   2.466   9.537  0.7953  1.0822  0.3593
  153SAPE   H6Y17046   5.554   2.356   9.627  0.1590  0.6680  1.2339
  153SAPE   C3717047   5.592   2.370   9.421  0.4349 -0.1399 -0.1009
  153SAPE   H7X17048   5.548   2.269   9.409  1.1747 -0.5797  0.7183
  153SAPE   H7Y17049   5.703   2.361   9.418  0.6171  2.4105 -2.6212
  153SAPE   C3817050   5.559   2.435   9.291  0.3991 -0.1630 -0.6159
  153SAPE   H8X17051   5.593   2.540   9.295 -0.6070  0.1915 -1.1556
  153SAPE   H8Y17052   5.449   2.427   9.278  0.4824  0.3387 -1.7228
  153SAPE   C3917053   5.618   2.352   9.175 -0.3440  0.8711 -0.3653
  153SAPE   H9X17054   5.600   2.244   9.193  0.1810  1.0130  1.1037
  153SAPE   H9Y17055   5.728   2.361   9.188 -0.6702  0.9723  2.7013
  153SAPE  C31017056   5.587   2.392   9.034  0.3920  0.2626  0.1610
  153SAPE  H10X17057   5.625   2.496   9.019  0.1706  0.7240  2.5156
  153SAPE  H10Y17058   5.477   2.403   9.018  0.1562 -0.8117  0.9990
  153SAPE  C31117059   5.649   2.289   8.941  0.8073  0.4587  0.6359
  153SAPE  H11X17060   5.597   2.196   8.972  1.2681  0.9087  2.8536
  153SAPE  H11Y17061   5.754   2.262   8.969  0.1780 -0.5127  2.1261
  153SAPE  C31217062   5.637   2.310   8.791  0.3126  0.5803 -0.1628
  153SAPE  H12X17063   5.700   2.398   8.765  0.5853  0.9935  1.7875
  153SAPE  H12Y17064   5.532   2.326   8.757 -0.1642 -2.1903 -0.1303
  153SAPE  C31317065   5.707   2.203   8.715 -0.7654  0.8709 -0.0461
  153SAPE  H13X17066   5.648   2.112   8.739  0.2946 -0.0648 -0.9144
  153SAPE  H13Y17067   5.811   2.190   8.752 -1.2210 -1.6473  0.4987
  153SAPE  C31417068   5.717   2.225   8.568  0.2680 -0.6952  0.1307
  153SAPE  H14X17069   5.753   2.329   8.555  0.6654 -0.9476 -0.8403
  153SAPE  H14Y17070   5.622   2.211   8.512  1.3452 -1.4390 -1.5544
  153SAPE  C31517071   5.827   2.131   8.504 -0.0321 -0.1130  0.2086
  153SAPE  H15X17072   5.810   2.026   8.534  0.5209 -0.1936  0.2357
  153SAPE  H15Y17073   5.930   2.162   8.532 -0.2566 -0.1859  1.1401
  153SAPE  C31617074   5.822   2.129   8.349 -0.3507  0.3273 -0.0386
  153SAPE  H16X17075   5.845   2.229   8.306 -2.4282  1.1014  0.5663
  153SAPE  H16Y17076   5.725   2.084   8.321 -0.6367  0.1851  1.1703
  153SAPE  C31717077   5.924   2.043   8.287  0.5712  0.6056 -1.0226
  153SAPE  H17X17078   5.892   1.937   8.293  1.0609  0.5144  0.0728
  153SAPE  H17Y17079   6.012   2.054   8.354 -0.4550  0.2414  0.4180
  153SAPE  C31817080   5.957   2.088   8.144  0.5615  0.5137 -0.1019
  153SAPE  H18X17081   5.989   2.009   8.072 -2.8203 -0.5497 -0.5142
  153SAPE  H18Y17082   6.031   2.171   8.134 -1.2766  1.8725 -3.1511
  153SAPE  H18Z17083   5.870   2.126   8.088  0.2616  1.2380  0.8563
  154SAPE     N17084   6.258   1.982  11.031 -0.0196  0.6637  0.9352
  154SAPE   HN117085   6.315   1.967  11.117  1.4965  1.2505  0.0497
  154SAPE   HN217086   6.193   2.052  11.071  0.7737  0.8242  1.9790
  154SAPE   HN317087   6.200   1.897  11.016  0.1520  0.6058  0.6016
  154SAPE   C1217088   6.325   2.008  10.902  0.5467 -0.4810 -0.1643
  154SAPE  H12A17089   6.380   1.914  10.879 -1.1339 -1.4131 -0.4491
  154SAPE  H12B17090   6.404   2.085  10.916 -1.2215  1.4634 -0.5864
  154SAPE   C1117091   6.221   2.063  10.799 -0.4242 -1.0153  0.0684
  154SAPE  H11A17092   6.140   1.988  10.811  1.7768 -3.3430  0.9152
  154SAPE  H11B17093   6.259   2.078  10.696 -1.8936 -2.7681 -0.7493
  154SAPE     P17094   6.212   2.326  10.799  0.6530  0.2517 -0.2277
  154SAPE   O1317095   6.123   2.435  10.851 -0.3401  0.2068  0.0562
  154SAPE   O1417096   6.357   2.334  10.814 -0.4921  0.6526 -0.5500
  154SAPE   O1217097   6.153   2.181  10.839  0.1149  1.0375  0.0396
  154SAPE   O1117098   6.182   2.326  10.643 -0.2981 -0.5745 -0.2775
  154SAPE    C117099   6.051   2.290  10.586 -0.0908  0.3832 -0.5404
  154SAPE    HA17100   6.055   2.181  10.566  0.3118 -0.2838  2.8658
  154SAPE    HB17101   5.971   2.318  10.657 -0.0179  0.2699 -0.4141
  154SAPE    C217102   6.019   2.368  10.457  0.0399 -0.4141 -0.3516
  154SAPE    HS17103   5.916   2.343  10.422  1.0046 -1.6700 -2.3876
  154SAPE   O2117104   6.122   2.354  10.347 -0.3960  0.3531 -0.0513
  154SAPE   C2117105   6.096   2.243  10.286  0.5460  0.2286 -0.3666
  154SAPE   O2217106   6.001   2.168  10.312  0.5818  0.3604 -0.2237
  154SAPE   C2217107   6.203   2.206  10.178 -0.9199  0.2895 -0.0052
  154SAPE   H2R17108   6.283   2.153  10.235 -2.8715 -2.0769  0.6357
  154SAPE   H2S17109   6.154   2.127  10.116  0.4629 -1.8607  1.5581
  154SAPE    C317110   6.015   2.518  10.486 -0.4935  0.5987  0.1633
  154SAPE    HX17111   6.115   2.564  10.471 -1.5849  3.0128  0.0452
  154SAPE    HY17112   5.993   2.553  10.589  0.1513 -1.1942  0.9119
  154SAPE   O3117113   5.949   2.590  10.379  0.5035 -0.0489 -0.4820
  154SAPE   C3117114   5.826   2.638  10.420 -1.1289  0.1338 -0.5440
  154SAPE   O3217115   5.776   2.612  10.527 -0.3731 -0.0214 -0.3981
  154SAPE   C3217116   5.768   2.743  10.321 -0.3745  1.0685  0.0422
  154SAPE   H2X17117   5.659   2.724  10.334  0.0046 -0.7241  0.9307
  154SAPE   H2Y17118   5.813   2.718  10.223 -0.9966 -1.9490  0.4493
  154SAPE   C2317119   6.249   2.328  10.098  0.2681 -0.3266  0.4350
  154SAPE   H3R17120   6.323   2.291  10.023  0.9274 -0.2355  1.0303
  154SAPE   H3S17121   6.311   2.397  10.160 -0.6527 -0.9768  2.0988
  154SAPE   C2417122   6.141   2.410  10.028 -0.2790  0.5231 -0.1921
  154SAPE   H4R17123   6.176   2.497   9.969 -0.6481  1.1487  0.5003
  154SAPE   H4S17124   6.087   2.463  10.110 -3.0460 -0.2672 -1.4366
  154SAPE   C2517125   6.031   2.341   9.955 -0.0477 -0.0177  0.0334
  154SAPE   H5R17126   5.935   2.345  10.009  0.3508  1.0332  0.6914
  154SAPE   C2617127   6.042   2.277   9.837 -1.0538  0.4110 -0.1644
  154SAPE   H6R17128   5.947   2.247   9.789 -0.2821 -1.4953 -0.5442
  154SAPE   C2717129   6.164   2.247   9.752  0.0499 -1.5078 -0.1369
  154SAPE   H7R17130   6.251   2.313   9.773 -0.6056 -0.9387  0.8713
  154SAPE   H7S17131   6.128   2.259   9.648  0.9316  2.7620 -0.0348
  154SAPE   C2817132   6.209   2.112   9.793 -0.6935  0.0628  0.0292
  154SAPE   H8R17133   6.191   2.094   9.900  0.7095 -2.7347 -0.1507
  154SAPE   C2917134   6.266   2.014   9.714 -0.3289 -0.2425 -0.2266
  154SAPE   H9R17135   6.302   1.926   9.768 -2.3603 -0.6260  0.5615
  154SAPE  C21017136   6.288   2.030   9.560 -0.3765  0.6083 -0.0655
  154SAPE  H10R17137   6.390   2.067   9.539  0.2503 -0.2751  1.3521
  154SAPE  H10S17138   6.212   2.102   9.522 -0.0187  1.6050  1.0658
  154SAPE  C21117139   6.257   1.897   9.498 -0.0880 -0.3844 -0.0343
  154SAPE  H11R17140   6.173   1.842   9.542  0.7062 -1.2466  0.4472
  154SAPE  C21217141   6.329   1.831   9.405  0.3574  0.8266  0.0383
  154SAPE  H12R17142   6.290   1.735   9.369  1.7972  0.1615  0.2329
  154SAPE  C21317143   6.457   1.880   9.340 -0.0538 -0.4366 -0.1554
  154SAPE  H13R17144   6.442   1.989   9.327 -1.3076 -0.7675 -1.6582
  154SAPE  H13S17145   6.453   1.834   9.239  0.2397 -1.0708  0.1141
  154SAPE  C21417146   6.581   1.847   9.407  0.1955 -0.2630 -0.3667
  154SAPE  H14R17147   6.593   1.897   9.504 -0.0992  3.0764 -1.9658
  154SAPE  C21517148   6.688   1.780   9.358  0.0484 -0.9996  0.5499
  154SAPE  H15R17149   6.772   1.760   9.426 -0.3240 -0.4896  1.1623
  154SAPE  C21617150   6.695   1.718   9.219 -0.0878 -0.4189  0.4783
  154SAPE  H16R17151   6.597   1.691   9.173  1.3850 -3.8250 -0.8659
  154SAPE  H16S17152   6.745   1.619   9.226  1.0208  0.0113 -0.9557
  154SAPE  C21717153   6.774   1.802   9.115  0.2788 -0.2126 -0.2491
  154SAPE  H17R17154   6.725   1.902   9.106 -0.6913 -0.5604  0.9742
  154SAPE  H17S17155   6.767   1.753   9.016 -2.0135 -2.2235  0.8614
  154SAPE  C21817156   6.924   1.819   9.131  0.0081  0.7305 -0.3522
  154SAPE  H18R17157   6.972   1.722   9.154  3.6906  1.9818 -2.4268
  154SAPE  H18S17158   6.934   1.885   9.219  0.8347  0.5790 -0.3280
  154SAPE  C21917159   7.003   1.892   9.019 -0.5130 -0.7785 -0.3249
  154SAPE  H19R17160   6.952   1.985   8.988 -0.3570 -0.2944  0.8539
  154SAPE  H19S17161   6.998   1.823   8.932 -0.8910 -2.2762  0.8551
  154SAPE  C22017162   7.155   1.920   9.051  0.3140  0.2550  1.1738
  154SAPE  H20R17163   7.217   1.827   9.047 -2.5449 -1.6725 -0.9242
  154SAPE  H20S17164   7.164   1.959   9.154  0.8227 -0.7844  1.5272
  154SAPE  H20T17165   7.200   1.986   8.974 -1.8854 -0.3971 -0.7298
  154SAPE   C3317166   5.788   2.894  10.356  1.7057  0.7076 -0.4026
  154SAPE   H3X17167   5.895   2.921  10.344  2.2888 -0.5064  1.7440
  154SAPE   H3Y17168   5.754   2.918  10.459  0.6644  0.4811 -0.6910
  154SAPE   C3417169   5.720   2.993  10.252  1.0030 -0.4771 -0.4119
  154SAPE   H4X17170   5.718   3.099  10.286  0.6976 -0.7419  0.4136
  154SAPE   H4Y17171   5.612   2.968  10.245  0.6879  0.6362  0.3090
  154SAPE   C3517172   5.794   3.006  10.118 -0.5376 -0.5220 -0.2578
  154SAPE   H5X17173   5.810   2.903  10.080  0.3848 -0.9661  1.3013
  154SAPE   H5Y17174   5.896   3.041  10.142 -0.9018  1.0360 -0.9277
  154SAPE   C3617175   5.747   3.114  10.020 -0.2871 -0.0018  0.2444
  154SAPE   H6X17176   5.769   3.209  10.072 -0.3959  1.1269 -1.7487
  154SAPE   H6Y17177   5.637   3.118  10.008 -0.1122  2.0007 -0.7770
  154SAPE   C3717178   5.818   3.114   9.886  0.2912  0.2339 -0.3043
  154SAPE   H7X17179   5.928   3.108   9.902 -0.0462 -2.4096  1.3518
  154SAPE   H7Y17180   5.788   3.204   9.829  1.4282  0.8402  0.0374
  154SAPE   C3817181   5.776   2.989   9.810  0.1592  0.1201  0.9909
  154SAPE   H8X17182   5.666   2.975   9.822 -0.0325  1.3867  0.7603
  154SAPE   H8Y17183   5.829   2.901   9.853 -0.0171 -1.2653 -1.5666
  154SAPE   C3917184   5.828   2.993   9.671  0.1756 -0.2268 -0.0043
  154SAPE   H9X17185   5.937   2.970   9.669  0.4567  1.1198 -0.2989
  154SAPE   H9Y17186   5.813   3.092   9.624  0.2103 -0.2980 -0.1674
  154SAPE  C31017187   5.754   2.900   9.563 -0.5613  0.0328  0.3218
  154SAPE  H10X17188   5.645   2.917   9.572 -0.4549  1.1545 -0.4885
  154SAPE  H10Y17189   5.778   2.798   9.601 -2.7081  0.1008  1.9839
  154SAPE  C31117190   5.810   2.916   9.428  0.5144 -0.0634 -0.8292
  154SAPE  H11X17191   5.919   2.905   9.446  0.4705  1.5855  0.5911
  154SAPE  H11Y17192   5.805   3.016   9.381  2.2636  0.4196 -0.0214
  154SAPE  C31217193   5.759   2.812   9.319 -0.1074 -0.5010 -0.6015
  154SAPE  H12X17194   5.655   2.837   9.291 -0.7246  1.3018  3.0306
  154SAPE  H12Y17195   5.763   2.706   9.351 -0.1904  0.2162  1.8854
  154SAPE  C31317196   5.845   2.831   9.187  0.2496  0.2245  0.9536
  154SAPE  H13X17197   5.950   2.802   9.212  0.7173  0.7000 -0.3801
  154SAPE  H13Y17198   5.832   2.932   9.142 -1.3172  0.4517  1.9004
  154SAPE  C31417199   5.817   2.713   9.094  0.3585  0.3576 -0.9496
  154SAPE  H14X17200   5.720   2.730   9.042  0.1965 -0.6198 -0.9752
  154SAPE  H14Y17201   5.789   2.626   9.158  1.5161  0.3680 -0.4086
  154SAPE  C31517202   5.936   2.682   9.001 -0.4744  0.4755 -0.3211
  154SAPE  H15X17203   6.032   2.686   9.057 -1.1528 -1.6913  1.0636
  154SAPE  H15Y17204   5.931   2.761   8.924  3.2552 -0.1123 -1.2628
  154SAPE  C31617205   5.930   2.544   8.937 -0.7592  0.4741 -0.1157
  154SAPE  H16X17206   5.856   2.531   8.855  0.5172 -0.3174 -1.1597
  154SAPE  H16Y17207   5.898   2.474   9.017 -0.6870 -0.3648 -0.8145
  154SAPE  C31717208   6.062   2.497   8.874 -0.3787 -0.3970 -0.1434
  154SAPE  H17X17209   6.146   2.511   8.945  0.0321  2.3243 -1.1249
  154SAPE  H17Y17210   6.082   2.559   8.785  0.8785 -0.0593  0.3572
  154SAPE  C31817211   6.057   2.349   8.834  0.4319 -0.1674  0.3746
  154SAPE  H18X17212   6.002   2.316   8.744  0.8941  0.1809 -0.0423
  154SAPE  H18Y17213   6.019   2.289   8.919 -0.2599 -0.0313  0.1646
  154SAPE  H18Z17214   6.158   2.310   8.811  0.0087 -0.1371 -1.5972
  155SAPE     N17215   6.776   3.390  10.948  0.0182 -0.3883  0.1105
  155SAPE   HN117216   6.758   3.291  10.923  1.4262 -0.5652 -0.2417
  155SAPE   HN217217   6.714   3.415  11.027  0.4136 -1.9271  0.9276
  155SAPE   HN317218   6.751   3.452  10.868  1.4959 -1.2918 -1.0721
  155SAPE   C1217219   6.930   3.403  10.969  0.3433  0.5570 -0.4089
  155SAPE  H12A17220   6.974   3.354  10.879 -2.1710  0.2728 -1.5360
  155SAPE  H12B17221   6.945   3.347  11.064 -0.0082  2.3904  0.7605
  155SAPE   C1117222   6.983   3.542  10.990  0.6272 -0.4323 -0.2336
  155SAPE  H11A17223   7.094   3.542  11.000  0.8058  1.1571 -1.9622
  155SAPE  H11B17224   6.948   3.573  11.091 -1.2887  0.5122 -1.1499
  155SAPE     P17225   7.039   3.664  10.764  0.4366  0.2788  0.2643
  155SAPE   O1317226   6.983   3.771  10.675 -0.2083  0.1871  0.2252
  155SAPE   O1417227   7.179   3.675  10.816 -0.5327 -0.6222  0.1535
  155SAPE   O1217228   6.944   3.627  10.882 -0.5426  0.1261  0.9305
  155SAPE   O1117229   7.039   3.534  10.673 -1.5329 -0.7088 -0.4711
  155SAPE    C117230   6.938   3.496  10.581  0.5105  0.3371  0.0295
  155SAPE    HA17231   6.855   3.427  10.609  0.0733  0.0101 -2.0007
  155SAPE    HB17232   6.888   3.590  10.550  0.7480  0.8568  1.1971
  155SAPE    C217233   6.995   3.446  10.452 -0.4253 -0.0710  0.4158
  155SAPE    HS17234   7.082   3.377  10.461 -0.3581 -0.2233 -1.2364
  155SAPE   O2117235   7.041   3.560  10.372  0.0004 -0.2448 -0.2549
  155SAPE   C2117236   7.171   3.589  10.394  0.4127 -1.0950 -0.3940
  155SAPE   O2217237   7.257   3.522  10.450  0.2741  0.9471  0.0351
  155SAPE   C2217238   7.203   3.720  10.325 -0.2817 -0.0678 -0.6430
  155SAPE   H2R17239   7.309   3.749  10.336 -0.7532  1.2650  0.7345
  155SAPE   H2S17240   7.184   3.715  10.216  2.2278 -0.3288 -1.0954
  155SAPE    C317241   6.881   3.372  10.370  0.4416 -0.2989  0.5569
  155SAPE    HX17242   6.787   3.430  10.384  1.5666  1.2672  1.8655
  155SAPE    HY17243   6.872   3.276  10.426  0.3457 -0.3236  0.4985
  155SAPE   O3117244   6.906   3.354  10.230  0.1001 -0.2587  0.0228
  155SAPE   C3117245   6.891   3.460  10.157  0.4630  0.0848  0.0579
  155SAPE   O3217246   6.818   3.559  10.178  0.1585  0.1113  0.1189
  155SAPE   C3217247   6.963   3.435  10.033 -0.8666  0.1334  0.1696
  155SAPE   H2X17248   6.900   3.375   9.963 -1.1361  1.3870 -0.6674
  155SAPE   H2Y17249   7.048   3.364  10.051  0.4579  2.2123  2.4576
  155SAPE   C2317250   7.130   3.840  10.398  0.2948 -0.6814  0.2890
  155SAPE   H3R17251   7.165   3.855  10.503  0.3141  0.2460  0.1609
  155SAPE   H3S17252   7.024   3.812  10.414  0.1154 -0.5345 -0.5968
  155SAPE   C2417253   7.136   3.976  10.320 -0.2711 -0.2712 -0.0045
  155SAPE   H4R17254   7.097   4.056  10.387 -2.5385  0.1646 -1.7893
  155SAPE   H4S17255   7.067   3.974  10.234  2.3587  1.4526 -2.2368
  155SAPE   C2517256   7.278   3.999  10.284  0.5224  0.3594 -0.2974
  155SAPE   H5R17257   7.349   4.039  10.358 -1.7262  2.0400  1.0486
  155SAPE   C2617258   7.313   4.008  10.158 -0.0083  0.0203 -0.4058
  155SAPE   H6R17259   7.419   4.023  10.135  0.1289 -1.8853 -1.0686
  155SAPE   C2717260   7.219   3.980  10.037 -0.2844 -0.4826 -0.9664
  155SAPE   H7R17261   7.157   4.072  10.026 -0.1603 -0.4613 -1.5181
  155SAPE   H7S17262   7.153   3.892  10.048 -0.5899 -0.2255 -0.7610
  155SAPE   C2817263   7.310   3.981   9.914  0.6535  0.3209  0.2540
  155SAPE   H8R17264   7.418   3.965   9.916  0.9779  2.2304 -0.7239
  155SAPE   C2917265   7.259   3.996   9.785  0.3847  0.0293  0.2039
  155SAPE   H9R17266   7.331   4.006   9.702  2.7356 -2.6101  1.8485
  155SAPE  C21017267   7.116   4.023   9.743 -0.6863 -0.4615  0.1918
  155SAPE  H10R17268   7.110   4.111   9.675 -1.5590 -0.3001  0.4824
  155SAPE  H10S17269   7.051   4.043   9.831 -2.2864 -0.0059 -1.0862
  155SAPE  C21117270   7.045   3.909   9.676 -0.4345 -0.0638 -0.3102
  155SAPE  H11R17271   6.962   3.873   9.739  2.0593  1.1446  3.8389
  155SAPE  C21217272   7.053   3.864   9.547 -0.7118 -0.2607  0.0744
  155SAPE  H12R17273   6.987   3.784   9.511  0.1206 -0.6570 -0.5937
  155SAPE  C21317274   7.143   3.935   9.450  0.0393 -0.2798 -0.0009
  155SAPE  H13R17275   7.204   4.010   9.504 -0.3791  0.3790 -0.4210
  155SAPE  H13S17276   7.082   4.001   9.383  1.3462 -1.0262 -1.9787
  155SAPE  C21417277   7.232   3.849   9.369  0.4305 -0.0649  0.0021
  155SAPE  H14R17278   7.291   3.784   9.435  0.7863 -0.3445 -0.5921
  155SAPE  C21517279   7.234   3.824   9.238 -0.2215  0.8936 -0.8452
  155SAPE  H15R17280   7.304   3.751   9.196 -0.1011  0.0835  0.7224
  155SAPE  C21617281   7.142   3.888   9.134  0.2166 -0.5240 -0.1285
  155SAPE  H16R17282   7.203   3.915   9.045  0.1662  2.7709  0.7794
  155SAPE  H16S17283   7.087   3.977   9.173  0.2363 -1.6440  2.5300
  155SAPE  C21717284   7.041   3.791   9.066 -0.0280 -0.5785  0.4500
  155SAPE  H17R17285   6.975   3.745   9.144  0.1070 -1.9378 -0.2203
  155SAPE  H17S17286   7.094   3.702   9.025 -0.5486 -0.5051 -0.3834
  155SAPE  C21817287   6.956   3.874   8.965 -0.9573 -0.6916 -0.1935
  155SAPE  H18R17288   7.021   3.927   8.891  0.7666  0.5356  2.1414
  155SAPE  H18S17289   6.907   3.952   9.027 -1.0684 -0.6093 -0.3810
  155SAPE  C21917290   6.848   3.804   8.887 -0.4885  0.4553 -0.2753
  155SAPE  H19R17291   6.774   3.875   8.843 -1.3048 -0.4050 -0.2917
  155SAPE  H19S17292   6.793   3.733   8.951 -1.8140  2.1495  0.5107
  155SAPE  C22017293   6.900   3.718   8.771  0.2341  0.3788  0.1956
  155SAPE  H20R17294   6.973   3.649   8.820  1.2853  0.2221 -1.5484
  155SAPE  H20S17295   6.948   3.782   8.694 -0.9603 -0.4919 -1.2775
  155SAPE  H20T17296   6.816   3.658   8.732 -1.1377  1.8214  0.8927
  155SAPE   C3317297   7.028   3.559   9.962 -0.1819  0.2354  0.5390
  155SAPE   H3X17298   7.082   3.628  10.031  0.1244 -1.3778  1.9398
  155SAPE   H3Y17299   6.941   3.626   9.942  0.9666  1.8448  0.8891
  155SAPE   C3417300   7.114   3.530   9.836  0.0173 -0.1683  0.4228
  155SAPE   H4X17301   7.192   3.451   9.843  0.9803  0.4379 -2.6692
  155SAPE   H4Y17302   7.173   3.620   9.812 -0.4414  0.1876  0.6065
  155SAPE   C3517303   7.028   3.497   9.714 -0.5601 -0.4316  0.1983
  155SAPE   H5X17304   6.963   3.586   9.700 -1.0222 -0.9341 -0.9408
  155SAPE   H5Y17305   6.984   3.396   9.722 -0.0184 -0.5052  2.4526
  155SAPE   C3617306   7.117   3.501   9.592 -0.2773  0.1801  0.3699
  155SAPE   H6X17307   7.209   3.439   9.599 -1.3658 -1.2801  2.0515
  155SAPE   H6Y17308   7.163   3.597   9.562 -0.4688 -0.2939 -1.5464
  155SAPE   C3717309   7.031   3.448   9.475  0.0805  0.0707  0.4316
  155SAPE   H7X17310   6.952   3.523   9.453  1.3635  1.2453 -0.2973
  155SAPE   H7Y17311   6.989   3.351   9.509 -0.0018  0.5322  1.7083
  155SAPE   C3817312   7.123   3.431   9.355  0.3958  0.4136  0.8981
  155SAPE   H8X17313   7.206   3.361   9.379  0.9751  1.0600  0.7893
  155SAPE   H8Y17314   7.166   3.531   9.335 -1.2641  0.5811 -2.0851
  155SAPE   C3917315   7.050   3.381   9.234  0.6045  0.3193 -0.8450
  155SAPE   H9X17316   6.974   3.460   9.210  0.9297  0.4597 -1.4221
  155SAPE   H9Y17317   6.989   3.290   9.250  0.8118  0.2083 -0.6953
  155SAPE  C31017318   7.138   3.352   9.110  0.3983 -0.1792 -0.4486
  155SAPE  H10X17319   7.174   3.249   9.130  0.7381 -0.0905 -0.5966
  155SAPE  H10Y17320   7.220   3.427   9.114  0.4972 -0.2674 -0.8073
  155SAPE  C31117321   7.070   3.351   8.973  0.1313  0.5602  0.2125
  155SAPE  H11X17322   7.018   3.449   8.966  2.2805  1.6611 -1.0632
  155SAPE  H11Y17323   6.994   3.271   8.970 -1.5132  2.0822  0.0118
  155SAPE  C31217324   7.179   3.332   8.865  0.0016  0.1818 -0.1907
  155SAPE  H12X17325   7.235   3.238   8.882 -0.3769  0.0081  0.0953
  155SAPE  H12Y17326   7.252   3.416   8.875 -1.7422  1.7966 -0.7416
  155SAPE  C31317327   7.126   3.335   8.724  0.0812 -0.0976  0.1949
  155SAPE  H13X17328   7.058   3.423   8.719  1.1795  0.7299 -0.4221
  155SAPE  H13Y17329   7.069   3.244   8.697 -1.6670  0.7571  0.9227
  155SAPE  C31417330   7.237   3.368   8.624 -0.0408 -0.1253  0.8174
  155SAPE  H14X17331   7.306   3.281   8.617 -1.6174 -1.3957  0.9114
  155SAPE  H14Y17332   7.293   3.451   8.671 -1.0462  0.8919  0.2312
  155SAPE  C31517333   7.192   3.402   8.481 -0.0518 -0.2215  0.5758
  155SAPE  H15X17334   7.123   3.489   8.484  0.7199  0.4447 -0.3759
  155SAPE  H15Y17335   7.126   3.317   8.455 -0.9538  0.6388 -0.0284
  155SAPE  C31617336   7.304   3.412   8.380  0.0059 -0.7292  0.3885
  155SAPE  H16X17337   7.254   3.433   8.283 -1.0510  0.7834  1.2590
  155SAPE  H16Y17338   7.345   3.308   8.381 -0.2335 -0.8212  0.6788
  155SAPE  C31717339   7.420   3.513   8.388  0.1266 -0.0052  0.2146
  155SAPE  H17X17340   7.468   3.506   8.488  3.0030  1.4320 -1.0195
  155SAPE  H17Y17341   7.379   3.616   8.395 -0.3679 -0.2545  0.9817
  155SAPE  C31817342   7.515   3.504   8.270 -0.2039 -0.5605  0.0417
  155SAPE  H18X17343   7.596   3.579   8.259 -1.4012  0.6261 -0.8609
  155SAPE  H18Y17344   7.460   3.520   8.175 -2.7141 -0.0379  1.5370
  155SAPE  H18Z17345   7.565   3.405   8.256 -3.3929 -2.3335  0.6238
  156SAPE     N17346   4.171   1.660  10.517 -0.3633 -0.0157  0.4254
  156SAPE   HN117347   4.168   1.672  10.413  2.5193 -2.4605 -0.0185
  156SAPE   HN217348   4.165   1.756  10.555 -0.1589  0.6222 -1.0963
  156SAPE   HN317349   4.270   1.633  10.537 -0.3068 -0.4263 -0.3457
  156SAPE   C1217350   4.068   1.566  10.566  0.3382  0.2729 -0.0738
  156SAPE  H12A17351   3.972   1.616  10.540  0.0300 -1.3080 -2.0627
  156SAPE  H12B17352   4.067   1.565  10.678 -0.8389 -1.3702 -0.0736
  156SAPE   C1117353   4.072   1.437  10.491  0.2991 -0.0989  0.3139
  156SAPE  H11A17354   4.103   1.445  10.385  0.0101 -1.2477  0.1288
  156SAPE  H11B17355   3.964   1.414  10.476 -0.0441  1.0987  0.8917
  156SAPE     P17356   4.292   1.317  10.550  0.0916  0.1277  0.2925
  156SAPE   O1317357   4.352   1.451  10.578 -0.0375  0.1301 -0.5289
  156SAPE   O1417358   4.323   1.200  10.638 -0.4407 -0.6573 -0.3467
  156SAPE   O1217359   4.136   1.330  10.562  0.4243 -0.3487 -0.0615
  156SAPE   O1117360   4.309   1.296  10.396  0.4532 -0.8124 -0.2859
  156SAPE    C117361   4.250   1.185  10.324  0.1274 -0.7080  0.8214
  156SAPE    HA17362   4.298   1.092  10.360  0.2812 -0.6752  0.6990
  156SAPE    HB17363   4.141   1.186  10.345 -0.1140 -1.4339 -0.3775
  156SAPE    C217364   4.271   1.195  10.171 -0.1424  0.1125  0.9301
  156SAPE    HS17365   4.218   1.282  10.127  1.3197 -0.2395 -1.5725
  156SAPE   O2117366   4.228   1.068  10.108  0.2777  0.6028 -0.4671
  156SAPE   C2117367   4.100   1.034  10.126 -0.0978 -0.1869  0.0371
  156SAPE   O2217368   4.012   1.102  10.177 -0.4939  0.0937  0.1918
  156SAPE   C2217369   4.077   0.887  10.100  1.2698  0.3728 -0.5400
  156SAPE   H2R17370   4.172   0.838  10.068 -0.0738 -1.5135 -1.7182
  156SAPE   H2S17371   4.043   0.844  10.196 -1.2218  0.0542 -1.5311
  156SAPE    C317372   4.426   1.203  10.140  0.2640  0.1460  0.1096
  156SAPE    HX17373   4.468   1.107  10.174 -0.4691 -0.4866 -0.7312
  156SAPE    HY17374   4.458   1.291  10.199  0.9101 -0.2423  0.3341
  156SAPE   O3117375   4.446   1.233   9.998 -0.2253 -0.2019 -0.1514
  156SAPE   C3117376   4.574   1.230   9.957 -0.0979  0.3917 -0.0017
  156SAPE   O3217377   4.670   1.209  10.022 -0.0796  0.6181 -0.6018
  156SAPE   C3217378   4.584   1.296   9.820 -0.1258  0.6664 -0.0820
  156SAPE   H2X17379   4.511   1.379   9.823 -2.0981 -1.0373 -0.0034
  156SAPE   H2Y17380   4.549   1.226   9.741  0.2610 -0.7509  0.9929
  156SAPE   C2317381   3.960   0.845   9.998  1.1726 -0.2438 -0.1145
  156SAPE   H3R17382   3.866   0.891  10.035  0.5338 -2.8605  1.6512
  156SAPE   H3S17383   3.939   0.736  10.004 -0.1354  0.0861  1.6113
  156SAPE   C2417384   3.997   0.874   9.856 -0.0857  0.1544 -0.2642
  156SAPE   H4R17385   4.038   0.976   9.843 -2.9181  1.4955  1.1077
  156SAPE   H4S17386   3.906   0.863   9.794 -0.2892  0.1451  0.0347
  156SAPE   C2517387   4.101   0.787   9.801  0.6846 -0.8642  0.0838
  156SAPE   H5R17388   4.101   0.687   9.848  1.8146 -1.1167 -0.4479
  156SAPE   C2617389   4.200   0.820   9.710 -0.5891  0.7298 -0.6668
  156SAPE   H6R17390   4.274   0.741   9.686 -0.3929  0.5917  0.3731
  156SAPE   C2717391   4.227   0.955   9.638  0.1334  0.2726 -0.9043
  156SAPE   H7R17392   4.307   1.008   9.695 -0.3375 -0.0390  0.0644
  156SAPE   H7S17393   4.139   1.021   9.654 -0.5320 -0.6208 -0.8611
  156SAPE   C2817394   4.274   0.927   9.496 -0.2472  0.5649 -0.1419
  156SAPE   H8R17395   4.310   0.824   9.479 -0.8653  0.2718  0.2550
  156SAPE   C2917396   4.286   1.016   9.398  0.1508  0.0013  0.2967
  156SAPE   H9R17397   4.318   0.988   9.297  0.4343 -0.8186  0.6126
  156SAPE  C21017398   4.242   1.161   9.416 -0.2301 -0.0249  0.0309
  156SAPE  H10R17399   4.156   1.172   9.485 -0.0636 -1.1744  0.4377
  156SAPE  H10S17400   4.197   1.207   9.326 -1.0775 -0.2722  0.3259
  156SAPE  C21117401   4.368   1.249   9.437  0.7397 -1.0180 -0.3777
  156SAPE  H11R17402   4.461   1.200   9.407  0.8353 -1.3773  0.4928
  156SAPE  C21217403   4.379   1.372   9.490 -0.4402  0.1235 -0.2565
  156SAPE  H12R17404   4.482   1.410   9.496  0.5152 -2.3828 -0.2689
  156SAPE  C21317405   4.261   1.459   9.536  0.2934  0.4050  0.0282
  156SAPE  H13R17406   4.166   1.407   9.510 -0.6970  2.7712 -1.2512
  156SAPE  H13S17407   4.268   1.560   9.491  0.9358  1.0237  1.5062
  156SAPE  C21417408   4.273   1.490   9.687  0.5006 -0.3236 -0.6556
  156SAPE  H14R17409   4.339   1.577   9.697 -2.9991  2.3684  0.0597
  156SAPE  C21517410   4.211   1.424   9.788 -0.0069  0.0994  0.4427
  156SAPE  H15R17411   4.236   1.458   9.890 -0.2371  0.2577  0.4476
  156SAPE  C21617412   4.124   1.304   9.783  0.0785  0.2761 -0.8774
  156SAPE  H16R17413   4.147   1.236   9.868  1.0176 -0.7663 -1.9445
  156SAPE  H16S17414   4.135   1.253   9.685  0.2085 -1.1208 -0.1426
  156SAPE  C21717415   3.974   1.328   9.790  0.8049 -0.0390 -0.6724
  156SAPE  H17R17416   3.922   1.232   9.768  1.6880 -0.5200 -0.6506
  156SAPE  H17S17417   3.934   1.398   9.714  1.2218  0.0748 -0.7867
  156SAPE  C21817418   3.934   1.383   9.933 -0.4268  0.3584 -0.1531
  156SAPE  H18R17419   3.985   1.477   9.963 -1.4832 -0.0533  3.0663
  156SAPE  H18S17420   3.964   1.304  10.005  2.7885  3.4122  2.0094
  156SAPE  C21917421   3.776   1.398   9.966 -1.1334  0.3592  0.0781
  156SAPE  H19R17422   3.752   1.328  10.049  0.4273  0.2538  0.4540
  156SAPE  H19S17423   3.724   1.346   9.882  0.8582  0.6371 -1.3723
  156SAPE  C22017424   3.727   1.534   9.973 -0.0053 -0.4250 -0.5084
  156SAPE  H20R17425   3.774   1.585  10.060 -0.1893 -1.4086  0.1703
  156SAPE  H20S17426   3.617   1.537   9.990  0.1536 -0.7722  0.6073
  156SAPE  H20T17427   3.760   1.601   9.891  0.3562  1.7318  1.3467
  156SAPE   C3317428   4.721   1.351   9.774 -0.4109 -0.4329 -0.6118
  156SAPE   H3X17429   4.758   1.413   9.859  1.8027 -1.6789 -0.6064
  156SAPE   H3Y17430   4.703   1.418   9.688  1.1941  0.4897 -0.2521
  156SAPE   C3417431   4.838   1.248   9.744 -0.6577  0.2467 -0.6247
  156SAPE   H4X17432   4.843   1.161   9.813 -0.1116  1.2243  0.5896
  156SAPE   H4Y17433   4.937   1.296   9.756 -0.8589  0.6782 -0.6497
  156SAPE   C3517434   4.836   1.201   9.596  0.0377  0.5141 -0.6841
  156SAPE   H5X17435   4.729   1.175   9.585 -0.7400  1.6135  3.6176
  156SAPE   H5Y17436   4.900   1.110   9.590  1.0869  1.1444  0.6971
  156SAPE   C3617437   4.878   1.308   9.494  0.6072  0.2163  0.6548
  156SAPE   H6X17438   4.970   1.355   9.534  0.3274  0.6274  0.8138
  156SAPE   H6Y17439   4.800   1.382   9.465 -0.9331 -1.3365  0.7508
  156SAPE   C3717440   4.916   1.237   9.360  0.5884 -0.7947 -0.1335
  156SAPE   H7X17441   4.823   1.198   9.312  1.4564 -0.0239 -2.5359
  156SAPE   H7Y17442   4.984   1.154   9.387  2.5622  1.1605  1.1044
  156SAPE   C3817443   4.981   1.332   9.264 -0.1851 -0.1962 -0.2330
  156SAPE   H8X17444   5.062   1.375   9.327  1.2020 -2.8520 -0.1307
  156SAPE   H8Y17445   4.905   1.408   9.236  0.2050  0.0308 -0.6813
  156SAPE   C3917446   5.047   1.277   9.134 -0.2774 -0.2493 -0.2948
  156SAPE   H9X17447   5.118   1.199   9.169  2.1264  1.7521 -0.5702
  156SAPE   H9Y17448   5.104   1.362   9.091  3.0586 -0.6012  3.2079
  156SAPE  C31017449   4.941   1.222   9.038 -0.4646  0.1467  0.5673
  156SAPE  H10X17450   4.869   1.305   9.021  2.1226  2.3292 -0.1696
  156SAPE  H10Y17451   4.888   1.135   9.083  1.5198 -0.7440  1.2369
  156SAPE  C31117452   5.001   1.178   8.908 -0.1506 -0.1377  0.0530
  156SAPE  H11X17453   5.087   1.108   8.917 -0.2491 -0.4461 -1.2653
  156SAPE  H11Y17454   5.052   1.263   8.858  0.6610 -0.6051  0.0780
  156SAPE  C31217455   4.898   1.145   8.800  0.5038  0.1649  0.4436
  156SAPE  H12X17456   4.804   1.201   8.819 -0.0145 -1.1568  1.9019
  156SAPE  H12Y17457   4.876   1.036   8.803  0.3235  0.2218  1.3651
  156SAPE  C31317458   4.943   1.195   8.662 -0.2067 -0.5583 -0.8313
  156SAPE  H13X17459   5.047   1.160   8.644 -1.0270 -1.6161 -3.7676
  156SAPE  H13Y17460   4.938   1.306   8.661 -1.0933 -0.5942 -0.9640
  156SAPE  C31417461   4.845   1.144   8.558 -0.0920  0.2821 -0.2559
  156SAPE  H14X17462   4.747   1.130   8.608  0.6835  0.3765  1.3064
  156SAPE  H14Y17463   4.888   1.044   8.536  0.9640  0.8608 -0.8541
  156SAPE  C31517464   4.854   1.218   8.426 -0.2966 -0.0343  0.2277
  156SAPE  H15X17465   4.831   1.325   8.444  0.1185 -0.2041  1.8861
  156SAPE  H15Y17466   4.769   1.188   8.362  0.1164 -0.0678 -0.3068
  156SAPE  C31617467   4.989   1.195   8.352  0.0508 -0.1526 -0.2939
  156SAPE  H16X17468   4.997   1.089   8.322 -2.4339 -0.6872  0.7687
  156SAPE  H16Y17469   5.079   1.209   8.416  0.0478  0.9831 -0.5238
  156SAPE  C31717470   5.006   1.289   8.234 -0.8249  0.0971  1.0515
  156SAPE  H17X17471   5.110   1.272   8.199 -1.6716 -1.0622 -1.0134
  156SAPE  H17Y17472   5.002   1.393   8.272  0.6113  0.7293 -0.4598
  156SAPE  C31817473   4.892   1.266   8.124 -1.0978 -0.2005  0.5790
  156SAPE  H18X17474   4.894   1.158   8.099 -1.4576 -0.3297  1.0873
  156SAPE  H18Y17475   4.910   1.322   8.030 -0.9854  2.4238  2.0966
  156SAPE  H18Z17476   4.791   1.288   8.165 -0.9792 -2.3607  2.1424
  157SAPE     N17477   2.207   1.097  10.804  0.0547  0.3482  0.0485
  157SAPE   HN117478   2.113   1.059  10.827  0.3431  1.0165  2.5046
  157SAPE   HN217479   2.271   1.088  10.886  0.7307  0.8131 -0.4201
  157SAPE   HN317480   2.209   1.198  10.782  1.8219 -0.1891 -2.4050
  157SAPE   C1217481   2.255   1.030  10.683  0.2072  0.1166  0.5440
  157SAPE  H12A17482   2.173   1.031  10.608  1.9663  0.8874 -1.4046
  157SAPE  H12B17483   2.281   0.924  10.702 -3.0220 -1.2480 -2.0790
  157SAPE   C1117484   2.374   1.099  10.607  0.1237 -0.0588 -0.4542
  157SAPE  H11A17485   2.343   1.192  10.554  0.6227  0.0750 -0.5101
  157SAPE  H11B17486   2.396   1.025  10.527  1.2026  0.7471 -0.9217
  157SAPE     P17487   2.629   1.170  10.637  0.0531  0.2257  0.1710
  157SAPE   O1317488   2.652   1.289  10.721  0.2963  0.7326 -0.2692
  157SAPE   O1417489   2.731   1.065  10.649  0.1271 -0.0483 -0.1576
  157SAPE   O1217490   2.488   1.116  10.693  0.5201  0.3144  0.2625
  157SAPE   O1117491   2.593   1.217  10.484 -0.2302  0.0640  0.4306
  157SAPE    C117492   2.619   1.126  10.382 -0.1240  0.4149 -0.0970
  157SAPE    HA17493   2.608   1.019  10.408 -0.2501  0.3801 -0.2878
  157SAPE    HB17494   2.543   1.138  10.302 -2.8611  0.4993  2.4299
  157SAPE    C217495   2.759   1.154  10.320  0.3871 -1.0277 -0.1778
  157SAPE    HS17496   2.822   1.197  10.401  3.1730  0.1190 -2.8588
  157SAPE   O2117497   2.754   1.254  10.212 -0.0533  0.5478 -0.6136
  157SAPE   C2117498   2.868   1.320  10.184  0.2213  1.0284 -0.7752
  157SAPE   O2217499   2.969   1.313  10.251  0.2650  0.1334  0.0992
  157SAPE   C2217500   2.850   1.411  10.067 -0.3500  0.0433  0.4188
  157SAPE   H2R17501   2.785   1.494  10.102 -1.6100 -0.3949 -0.7921
  157SAPE   H2S17502   2.951   1.446  10.039 -0.8500  1.8047  0.7634
  157SAPE    C317503   2.825   1.025  10.272 -1.2484  0.0684 -0.5041
  157SAPE    HX17504   2.829   0.954  10.357  0.6931  0.4500 -0.2449
  157SAPE    HY17505   2.927   1.063  10.250 -0.5798 -0.4724  1.5746
  157SAPE   O3117506   2.752   0.961  10.164 -0.2035  0.3111 -0.2894
  157SAPE   C3117507   2.814   0.972  10.048  0.4262 -0.1789  0.2135
  157SAPE   O3217508   2.935   0.986  10.035 -0.0616 -0.3934 -0.0863
  157SAPE   C3217509   2.714   0.933   9.939 -0.0049 -0.0990 -0.1070
  157SAPE   H2X17510   2.613   0.975   9.956 -0.2788 -1.2179  1.0612
  157SAPE   H2Y17511   2.703   0.824   9.953 -0.8712  0.2207  1.9333
  157SAPE   C2317512   2.790   1.350   9.936  0.4084 -0.0536 -0.6120
  157SAPE   H3R17513   2.693   1.301   9.957  1.2125 -1.9908 -1.2438
  157SAPE   H3S17514   2.862   1.269   9.912  1.2242  0.6686 -0.6135
  157SAPE   C2417515   2.787   1.446   9.814 -0.3079  0.5144 -0.5309
  157SAPE   H4R17516   2.890   1.482   9.793  0.0178 -0.7615 -1.1800
  157SAPE   H4S17517   2.724   1.533   9.841 -2.6020 -1.3743  0.3939
  157SAPE   C2517518   2.725   1.376   9.696  0.9242  0.9467  0.1587
  157SAPE   H5R17519   2.616   1.359   9.697  1.0679 -0.5059 -2.5292
  157SAPE   C2617520   2.782   1.329   9.587 -0.5460 -0.8441  0.4712
  157SAPE   H6R17521   2.720   1.308   9.499  0.3202 -1.0650 -0.0983
  157SAPE   C2717522   2.931   1.344   9.564  0.7822  0.2654  0.5538
  157SAPE   H7R17523   2.959   1.276   9.481 -0.6224 -1.4329  1.4579
  157SAPE   H7S17524   2.972   1.316   9.664 -3.0021  0.8839  2.3508
  157SAPE   C2817525   2.963   1.488   9.525 -0.3805  0.0353 -0.6538
  157SAPE   H8R17526   2.927   1.566   9.594  0.4932  0.6302 -0.8594
  157SAPE   C2917527   3.021   1.525   9.411 -0.6098 -0.3584  0.4924
  157SAPE   H9R17528   3.037   1.632   9.389 -2.1731  0.0376  1.2464
  157SAPE  C21017529   3.073   1.441   9.299  0.5059  0.5817 -0.0229
  157SAPE  H10R17530   3.084   1.508   9.212  0.7374  1.4261  0.6420
  157SAPE  H10S17531   2.992   1.372   9.267  1.2643 -1.7062  2.7656
  157SAPE  C21117532   3.206   1.374   9.329 -0.1503 -0.2444 -0.9370
  157SAPE  H11R17533   3.196   1.337   9.432 -0.6038 -0.1343 -0.9437
  157SAPE  C21217534   3.317   1.350   9.258  0.3830 -1.0059  1.0327
  157SAPE  H12R17535   3.395   1.286   9.301  2.6621  0.7422 -0.3501
  157SAPE  C21317536   3.343   1.397   9.114 -0.0936 -0.0876 -0.1495
  157SAPE  H13R17537   3.270   1.349   9.046  0.4655 -1.3914  0.1577
  157SAPE  H13S17538   3.445   1.365   9.086  0.3288  1.7362 -0.7843
  157SAPE  C21417539   3.339   1.553   9.093  0.0907  0.1765 -0.1190
  157SAPE  H14R17540   3.236   1.584   9.074  0.6729  1.5873 -1.0492
  157SAPE  C21517541   3.448   1.632   9.089 -0.5556  0.3951  0.0443
  157SAPE  H15R17542   3.435   1.733   9.048 -2.0926  0.1586 -0.0661
  157SAPE  C21617543   3.590   1.590   9.102 -0.2774  0.5755  0.1153
  157SAPE  H16R17544   3.610   1.488   9.142  2.3983  0.4405 -1.4067
  157SAPE  H16S17545   3.643   1.667   9.163 -0.0939 -1.0338  2.0455
  157SAPE  C21717546   3.676   1.588   8.972  0.9048 -0.5665  0.8545
  157SAPE  H17R17547   3.783   1.577   9.001  1.4488  2.2859  0.0087
  157SAPE  H17S17548   3.667   1.690   8.930 -1.0362 -1.6457 -1.4683
  157SAPE  C21817549   3.643   1.469   8.883 -0.2171  0.3371  0.2334
  157SAPE  H18R17550   3.688   1.487   8.783  1.2125  2.7323  1.2414
  157SAPE  H18S17551   3.533   1.480   8.870 -0.7769 -3.3082  1.4933
  157SAPE  C21917552   3.691   1.330   8.926  0.4826 -0.7992 -0.4532
  157SAPE  H19R17553   3.666   1.325   9.034 -2.3594 -2.3865 -1.1112
  157SAPE  H19S17554   3.802   1.322   8.930  0.4448 -1.9988 -1.3712
  157SAPE  C22017555   3.630   1.214   8.843 -0.1009 -0.9276 -0.4895
  157SAPE  H20R17556   3.520   1.221   8.852 -0.3815 -3.6218 -1.4438
  157SAPE  H20S17557   3.664   1.115   8.881  0.0265 -1.7230 -2.5639
  157SAPE  H20T17558   3.652   1.215   8.734  0.3118 -0.1123 -0.4030
  157SAPE   C3317559   2.781   0.954   9.804 -0.1196 -0.1714 -0.0598
  157SAPE   H3X17560   2.882   0.908   9.806  0.4865  1.0781 -1.4735
  157SAPE   H3Y17561   2.802   1.062   9.790  1.5059 -0.5651 -0.7189
  157SAPE   C3417562   2.698   0.895   9.687 -0.3714  0.6138 -0.5576
  157SAPE   H4X17563   2.616   0.966   9.660 -1.2896 -0.1775  0.0943
  157SAPE   H4Y17564   2.642   0.804   9.718 -0.2476 -0.0269 -2.1817
  157SAPE   C3517565   2.780   0.843   9.571 -0.6272  0.7854 -0.2909
  157SAPE   H5X17566   2.710   0.782   9.509 -0.2111 -0.0851  0.0902
  157SAPE   H5Y17567   2.859   0.773   9.605  0.1380  2.0765  0.5859
  157SAPE   C3617568   2.850   0.951   9.491 -0.1431 -0.5228  0.0310
  157SAPE   H6X17569   2.904   1.027   9.552  1.0659 -1.4178  0.0771
  157SAPE   H6Y17570   2.772   1.005   9.433  3.9215  2.9463 -2.5299
  157SAPE   C3717571   2.956   0.908   9.394  0.2717 -0.0969 -0.2402
  157SAPE   H7X17572   2.908   0.832   9.328 -0.5211  1.2853 -1.2727
  157SAPE   H7Y17573   3.045   0.863   9.443  1.1651  0.5392 -1.2325
  157SAPE   C3817574   3.008   1.018   9.304  0.3263 -0.2784  0.0647
  157SAPE   H8X17575   3.084   1.073   9.364  1.1428 -0.4465 -0.7870
  157SAPE   H8Y17576   2.926   1.082   9.265 -1.2870 -0.1024  3.5523
  157SAPE   C3917577   3.066   0.972   9.170  0.0228 -0.1639 -0.3050
  157SAPE   H9X17578   2.980   0.937   9.109  1.2863 -1.4807 -1.3439
  157SAPE   H9Y17579   3.143   0.893   9.179  0.9406  0.6895 -0.5501
  157SAPE  C31017580   3.157   1.071   9.096 -0.2362  0.5828 -0.6267
  157SAPE  H10X17581   3.260   1.063   9.136 -0.2733  0.0777 -0.6361
  157SAPE  H10Y17582   3.117   1.174   9.110 -1.1740  0.4114 -1.9935
  157SAPE  C31117583   3.176   1.039   8.950  0.0080 -0.0539  0.4077
  157SAPE  H11X17584   3.259   1.103   8.915  1.1412 -1.1933  0.9786
  157SAPE  H11Y17585   3.081   1.067   8.898 -0.3579  1.3689  1.8373
  157SAPE  C31217586   3.216   0.893   8.913 -0.4131  0.2624  0.3737
  157SAPE  H12X17587   3.138   0.826   8.954 -0.4064  0.1312  0.1747
  157SAPE  H12Y17588   3.310   0.869   8.966  0.2565  3.8282  0.9368
  157SAPE  C31317589   3.243   0.884   8.762 -0.4202 -0.1192 -0.5126
  157SAPE  H13X17590   3.325   0.957   8.745  0.4839 -0.7241  1.0689
  157SAPE  H13Y17591   3.152   0.912   8.705  1.0024  0.9224 -2.3090
  157SAPE  C31417592   3.303   0.743   8.722  0.0572  0.2191  0.2238
  157SAPE  H14X17593   3.215   0.678   8.707 -0.3893  0.8340  0.1592
  157SAPE  H14Y17594   3.361   0.701   8.807  0.8372  1.7371  0.4622
  157SAPE  C31517595   3.380   0.739   8.585 -0.4919  0.9733 -0.4934
  157SAPE  H15X17596   3.313   0.777   8.505 -0.5133  0.6729 -0.6176
  157SAPE  H15Y17597   3.408   0.632   8.572  1.7321  1.5076 -0.2075
  157SAPE  C31617598   3.509   0.816   8.574  0.2762  0.0692  0.3710
  157SAPE  H16X17599   3.552   0.796   8.674 -0.3610  0.4984  0.7363
  157SAPE  H16Y17600   3.498   0.924   8.548 -2.5492 -0.8539 -2.5904
  157SAPE  C31717601   3.612   0.763   8.467  0.6089  0.3467  0.1772
  157SAPE  H17X17602   3.614   0.653   8.476 -0.2315  0.2822 -0.3842
  157SAPE  H17Y17603   3.712   0.808   8.484  0.3930  0.8626  0.1175
  157SAPE  C31817604   3.565   0.790   8.327  0.2457  0.6816 -0.4063
  157SAPE  H18X17605   3.631   0.740   8.253  0.4025 -0.3020  0.3815
  157SAPE  H18Y17606   3.550   0.898   8.306 -0.7543  0.5683 -0.2882
  157SAPE  H18Z17607   3.466   0.742   8.313  0.1874  0.5125  0.5522
  158SAPE     N17608   4.686   1.067  10.867  0.4911  0.4016  0.1025
  158SAPE   HN117609   4.775   1.102  10.907  1.1513  0.0878 -1.0496
  158SAPE   HN217610   4.637   1.007  10.936  0.6430 -1.4448 -1.3426
  158SAPE   HN317611   4.701   1.002  10.787  0.3492 -0.3640  0.6933
  158SAPE   C1217612   4.600   1.177  10.824 -0.2523 -0.3792  0.3672
  158SAPE  H12A17613   4.564   1.243  10.907 -0.9730 -0.5645  0.1962
  158SAPE  H12B17614   4.513   1.127  10.777  0.9679 -2.8668  0.6998
  158SAPE   C1117615   4.668   1.272  10.720  0.0186  0.4898 -0.9309
  158SAPE  H11A17616   4.755   1.327  10.761 -2.2951  3.2655  0.4181
  158SAPE  H11B17617   4.589   1.347  10.698 -0.1418  0.2237 -1.2736
  158SAPE     P17618   4.829   1.205  10.515 -0.1298  0.0538 -0.8603
  158SAPE   O1317619   4.940   1.207  10.611 -0.1276 -0.2801 -0.1092
  158SAPE   O1417620   4.831   1.098  10.410  0.1720 -0.2026  0.7971
  158SAPE   O1217621   4.695   1.196  10.602 -0.3810  0.2559  0.6029
  158SAPE   O1117622   4.830   1.343  10.434 -0.3322  0.0421  0.4956
  158SAPE    C117623   4.711   1.382  10.357  0.1485  0.8845  0.5278
  158SAPE    HA17624   4.673   1.294  10.301 -1.0535 -0.2011  2.9702
  158SAPE    HB17625   4.628   1.416  10.422  0.7270  0.6835  1.3787
  158SAPE    C217626   4.740   1.493  10.252  0.1196  0.0440 -0.1538
  158SAPE    HS17627   4.752   1.591  10.303 -1.1434 -0.0824  0.4091
  158SAPE   O2117628   4.630   1.512  10.160  0.0591  0.1677  0.8680
  158SAPE   C2117629   4.534   1.587  10.202 -0.4008  0.8718  0.0003
  158SAPE   O2217630   4.527   1.640  10.308 -0.0020 -0.5483  0.3448
  158SAPE   C2217631   4.433   1.614  10.086  0.1255 -0.1815 -0.3795
  158SAPE   H2R17632   4.384   1.518  10.059 -0.8090  0.5142 -1.1819
  158SAPE   H2S17633   4.350   1.682  10.117  2.2095  0.9699  2.8588
  158SAPE    C317634   4.860   1.447  10.164  0.1024  0.6700 -0.5700
  158SAPE    HX17635   4.852   1.341  10.132 -1.4905  0.5626  0.1180
  158SAPE    HY17636   4.951   1.450  10.227  1.2854 -2.2914 -2.0803
  158SAPE   O3117637   4.887   1.522  10.047 -0.0613  0.0174  0.2763
  158SAPE   C3117638   4.925   1.650  10.063  0.2895 -0.4651 -0.3526
  158SAPE   O3217639   4.917   1.709  10.172 -0.6064 -1.0133 -0.5061
  158SAPE   C3217640   4.973   1.715   9.933  0.0196  0.0544  0.2070
  158SAPE   H2X17641   5.084   1.712   9.920 -0.0116 -1.4415  0.1722
  158SAPE   H2Y17642   4.932   1.818   9.935  0.3397  0.1768  0.5312
  158SAPE   C2317643   4.502   1.671   9.966 -0.4850 -0.2701 -0.1249
  158SAPE   H3R17644   4.441   1.651   9.876 -0.1491 -0.3843 -0.3230
  158SAPE   H3S17645   4.595   1.624   9.929  0.5208  0.8775  0.9170
  158SAPE   C2417646   4.537   1.816   9.984 -0.0957  0.3640 -0.1500
  158SAPE   H4R17647   4.608   1.839   9.902 -0.9036  1.7877 -0.4630
  158SAPE   H4S17648   4.576   1.842  10.084 -1.3913 -0.4510  0.5927
  158SAPE   C2517649   4.422   1.910   9.952 -0.3075  0.2358 -0.2381
  158SAPE   H5R17650   4.369   1.941  10.043 -1.1765 -0.4209 -0.5131
  158SAPE   C2617651   4.367   1.945   9.835 -0.0044 -0.5053  0.3509
  158SAPE   H6R17652   4.277   2.008   9.842  1.6340  1.7556  1.4305
  158SAPE   C2717653   4.416   1.911   9.696 -0.1434  0.2722 -0.5492
  158SAPE   H7R17654   4.338   1.845   9.652 -1.6882  0.3189  2.0430
  158SAPE   H7S17655   4.511   1.855   9.706 -1.3484 -1.9055 -0.9450
  158SAPE   C2817656   4.421   2.032   9.604  0.0239  0.4615  0.2216
  158SAPE   H8R17657   4.397   2.126   9.655  1.5730  0.6137  0.7022
  158SAPE   C2917658   4.443   2.026   9.472  0.3641 -0.3220 -0.5012
  158SAPE   H9R17659   4.434   2.122   9.419  1.3831 -0.3682 -0.7668
  158SAPE  C21017660   4.474   1.905   9.402 -0.1949 -0.3948  0.3220
  158SAPE  H10R17661   4.562   1.854   9.447  1.4800  2.3464  0.2639
  158SAPE  H10S17662   4.502   1.949   9.304 -0.4692 -0.4113  0.2364
  158SAPE  C21117663   4.386   1.789   9.369 -0.5189  0.9874 -1.0239
  158SAPE  H11R17664   4.282   1.795   9.405 -0.2625  0.5810 -0.1907
  158SAPE  C21217665   4.417   1.683   9.289 -0.3486 -0.0563  0.7468
  158SAPE  H12R17666   4.340   1.607   9.271 -0.0285 -1.3036  4.2444
  158SAPE  C21317667   4.543   1.650   9.213  0.4761 -0.4102  0.2895
  158SAPE  H13R17668   4.627   1.723   9.222  2.2450 -2.4783  0.9184
  158SAPE  H13S17669   4.510   1.640   9.107 -1.5223  0.2991  0.8268
  158SAPE  C21417670   4.606   1.518   9.254 -0.2589 -0.5904 -0.8491
  158SAPE  H14R17671   4.635   1.518   9.360 -1.6592 -2.2486 -0.4552
  158SAPE  C21517672   4.619   1.408   9.177 -0.0579 -0.0936  0.3676
  158SAPE  H15R17673   4.673   1.323   9.223 -1.4632 -0.8251  0.7116
  158SAPE  C21617674   4.578   1.379   9.033  0.0355 -0.1125 -0.2932
  158SAPE  H16R17675   4.660   1.351   8.963 -1.3301  0.8252 -2.2980
  158SAPE  H16S17676   4.545   1.474   8.986 -0.7811 -0.0544  0.3863
  158SAPE  C21717677   4.447   1.297   9.016 -0.6372 -0.1905 -0.5055
  158SAPE  H17R17678   4.399   1.320   8.918  0.2346 -2.3104 -1.4479
  158SAPE  H17S17679   4.369   1.338   9.084  2.3024  0.5659  2.5588
  158SAPE  C21817680   4.454   1.150   9.031 -0.1805  0.5017 -0.1751
  158SAPE  H18R17681   4.502   1.121   9.127 -3.5162 -2.4349  0.7390
  158SAPE  H18S17682   4.527   1.103   8.961 -0.3557 -2.4484  1.5286
  158SAPE  C21917683   4.315   1.078   9.032  0.0052  0.7078  0.1735
  158SAPE  H19R17684   4.252   1.095   8.941  0.0340 -2.8147 -0.5821
  158SAPE  H19S17685   4.257   1.110   9.121 -0.8470  1.2562 -0.5729
  158SAPE  C22017686   4.340   0.925   9.044  0.4482 -0.7140  0.3549
  158SAPE  H20R17687   4.379   0.887   8.947 -0.4986 -0.7062 -0.0354
  158SAPE  H20S17688   4.244   0.877   9.072 -1.5822  2.7153 -0.4201
  158SAPE  H20T17689   4.420   0.908   9.119  1.4571  1.0685 -0.2874
  158SAPE   C3317690   4.907   1.651   9.808 -1.0798 -0.4484  0.1456
  158SAPE   H3X17691   4.799   1.650   9.835 -1.8304 -2.3608 -2.7789
  158SAPE   H3Y17692   4.934   1.545   9.791 -0.0869 -0.0694 -0.6296
  158SAPE   C3417693   4.928   1.731   9.673  0.0264 -0.1644  0.6720
  158SAPE   H4X17694   5.032   1.759   9.649 -0.2657  1.2955  1.0470
  158SAPE   H4Y17695   4.875   1.828   9.687  2.2318  1.1102  0.4651
  158SAPE   C3517696   4.872   1.659   9.558  0.0210  0.3314  0.4980
  158SAPE   H5X17697   4.762   1.653   9.574 -0.2115  0.1666 -1.0642
  158SAPE   H5Y17698   4.906   1.553   9.560 -0.4495  0.1844  0.9391
  158SAPE   C3617699   4.899   1.726   9.426 -0.5154  0.0403 -0.4951
  158SAPE   H6X17700   4.881   1.836   9.424 -1.5599 -0.1384 -0.8644
  158SAPE   H6Y17701   4.827   1.688   9.351  0.3113 -0.3141 -1.1282
  158SAPE   C3717702   5.037   1.694   9.372 -0.3946 -0.3756 -0.5331
  158SAPE   H7X17703   5.058   1.590   9.405 -0.3576  0.1316  1.0618
  158SAPE   H7Y17704   5.116   1.757   9.417 -1.5280 -0.2645  1.3804
  158SAPE   C3817705   5.035   1.699   9.222  0.4761  0.0330  0.5072
  158SAPE   H8X17706   5.001   1.796   9.180  1.3440  1.0015  1.9706
  158SAPE   H8Y17707   4.963   1.622   9.188 -1.3348  1.2334  1.5426
  158SAPE   C3917708   5.164   1.663   9.160  0.3279 -0.5481  0.6364
  158SAPE   H9X17709   5.209   1.569   9.197 -2.0277 -1.9623 -0.0311
  158SAPE   H9Y17710   5.234   1.749   9.171  1.7202 -1.5343 -0.3397
  158SAPE  C31017711   5.145   1.623   9.013  0.6778  0.6636 -0.0506
  158SAPE  H10X17712   5.134   1.715   8.951  1.9208  1.5037  0.9705
  158SAPE  H10Y17713   5.057   1.557   8.998  1.0809  0.1245 -0.0540
  158SAPE  C31117714   5.265   1.550   8.950  0.4190  0.1879  0.0927
  158SAPE  H11X17715   5.284   1.454   9.004  2.9230  0.2179 -0.6801
  158SAPE  H11Y17716   5.355   1.616   8.954 -0.7814  1.8045  1.2255
  158SAPE  C31217717   5.232   1.501   8.806 -0.3126  0.9116 -0.4502
  158SAPE  H12X17718   5.204   1.590   8.745 -0.1620  2.0313  1.0664
  158SAPE  H12Y17719   5.151   1.425   8.804  0.9988 -0.5168 -0.1484
  158SAPE  C31317720   5.340   1.419   8.732 -0.0418  0.1648 -0.2984
  158SAPE  H13X17721   5.351   1.321   8.783  1.3494  0.6029  0.2661
  158SAPE  H13Y17722   5.436   1.471   8.750  0.2458 -0.9011  1.3051
  158SAPE  C31417723   5.319   1.417   8.578  0.0960  0.2971 -0.8213
  158SAPE  H14X17724   5.356   1.518   8.550  2.6490 -0.9454 -2.1063
  158SAPE  H14Y17725   5.209   1.406   8.566 -0.1431  0.3047  1.2264
  158SAPE  C31517726   5.405   1.314   8.508  0.2046 -0.4066  0.2152
  158SAPE  H15X17727   5.380   1.212   8.545 -2.1291 -0.2809 -0.9647
  158SAPE  H15Y17728   5.512   1.326   8.535 -0.0830  0.0895  1.1644
  158SAPE  C31617729   5.398   1.321   8.359  0.0231  0.2541 -0.1987
  158SAPE  H16X17730   5.463   1.408   8.339 -0.0771  0.7505  1.5166
  158SAPE  H16Y17731   5.297   1.337   8.314  0.3914 -0.0933 -1.1527
  158SAPE  C31717732   5.463   1.196   8.292 -0.2032  0.1853 -1.1454
  158SAPE  H17X17733   5.406   1.104   8.318  0.0018  0.0795 -1.0695
  158SAPE  H17Y17734   5.565   1.191   8.334 -0.1570  2.0275 -1.0045
  158SAPE  C31817735   5.469   1.196   8.139 -0.0206 -0.1485  0.3143
  158SAPE  H18X17736   5.508   1.099   8.101 -2.7538 -0.3693 -2.0852
  158SAPE  H18Y17737   5.524   1.279   8.090  0.4995  0.6651  2.2476
  158SAPE  H18Z17738   5.366   1.209   8.098 -0.5711 -0.9123  1.4157
  159SAPE     N17739   3.931   6.385   6.622 -0.4451 -0.6728  0.6851
  159SAPE   HN117740   3.958   6.397   6.522  0.5718 -0.5541  0.9647
  159SAPE   HN217741   3.833   6.353   6.636 -1.1658  1.1647 -0.0042
  159SAPE   HN317742   3.930   6.478   6.668  0.7099 -1.7170  2.8606
  159SAPE   C1217743   4.034   6.300   6.688 -0.4422 -0.0646 -0.2850
  159SAPE  H12A17744   3.988   6.198   6.688  0.9693 -0.7078 -1.3697
  159SAPE  H12B17745   4.038   6.330   6.795  2.3030  0.1048 -0.4040
  159SAPE   C1117746   4.169   6.294   6.614  0.2094  0.1204 -0.7415
  159SAPE  H11A17747   4.241   6.245   6.682  0.1056  0.3782 -0.4468
  159SAPE  H11B17748   4.198   6.396   6.582 -0.0367 -0.5665 -3.3180
  159SAPE     P17749   4.172   6.068   6.483 -0.0677  0.5159  0.1528
  159SAPE   O1317750   4.054   6.004   6.418 -0.3899  0.0235  0.8694
  159SAPE   O1417751   4.301   6.044   6.419  0.2113 -0.4339  0.0067
  159SAPE   O1217752   4.155   6.229   6.491 -0.7570 -0.0985 -0.1539
  159SAPE   O1117753   4.173   6.009   6.625  0.5010  0.4816 -0.5027
  159SAPE    C117754   4.198   5.867   6.654  0.0319  0.6123 -0.2709
  159SAPE    HA17755   4.255   5.821   6.572  1.3792 -1.0405  1.5485
  159SAPE    HB17756   4.262   5.867   6.745 -0.0606 -1.2222 -0.1978
  159SAPE    C217757   4.068   5.790   6.675 -0.1105 -0.2368 -0.6849
  159SAPE    HS17758   4.011   5.800   6.580 -3.0615 -0.0352  1.0550
  159SAPE   O2117759   3.993   5.855   6.774  0.2857  0.4764 -0.6176
  159SAPE   C2117760   3.872   5.800   6.788  0.5973  0.5097  0.2247
  159SAPE   O2217761   3.816   5.718   6.717  0.5003  0.1718  0.0352
  159SAPE   C2217762   3.801   5.852   6.920 -0.0695 -0.3323 -0.4805
  159SAPE   H2R17763   3.865   5.935   6.956  0.8565 -1.6548  0.9765
  159SAPE   H2S17764   3.702   5.899   6.898 -0.3957 -0.2582  1.1386
  159SAPE    C317765   4.090   5.634   6.700 -0.2969 -0.2842 -0.3553
  159SAPE    HX17766   4.159   5.594   6.623  0.1721  1.5021 -0.8919
  159SAPE    HY17767   3.998   5.573   6.692 -0.0638 -0.5679 -0.9106
  159SAPE   O3117768   4.125   5.601   6.841  0.1164  0.2464  0.4573
  159SAPE   C3117769   4.253   5.607   6.871  0.1764  0.6479 -0.7658
  159SAPE   O3217770   4.343   5.627   6.793 -0.2271 -0.1267  0.4401
  159SAPE   C3217771   4.267   5.586   7.019  0.2899 -0.0567 -0.1726
  159SAPE   H2X17772   4.278   5.478   7.040 -0.3549 -0.2396 -0.7566
  159SAPE   H2Y17773   4.185   5.639   7.072  0.4856 -1.7800  1.9153
  159SAPE   C2317774   3.765   5.744   7.027  0.1662  0.2231  0.3454
  159SAPE   H3R17775   3.691   5.675   6.982 -0.8359  1.6664 -0.2677
  159SAPE   H3S17776   3.723   5.789   7.119 -2.7689 -0.4549 -0.6349
  159SAPE   C2417777   3.882   5.660   7.083  0.3055  0.1556  0.2916
  159SAPE   H4R17778   3.935   5.744   7.131 -1.6337  2.3399 -1.2686
  159SAPE   H4S17779   3.943   5.617   7.000  0.9035  0.9942  0.2904
  159SAPE   C2517780   3.835   5.560   7.185 -0.2364  0.1531  0.3362
  159SAPE   H5R17781   3.741   5.509   7.159 -0.4218  0.2241  0.8683
  159SAPE   C2617782   3.889   5.546   7.307 -0.6474  0.3773 -0.8577
  159SAPE   H6R17783   3.846   5.479   7.383  0.8870  1.3246  0.8767
  159SAPE   C2717784   4.016   5.600   7.359  0.1590 -0.4440  0.5857
  159SAPE   H7R17785   4.081   5.615   7.269  2.5621  0.4854  2.4190
  159SAPE   H7S17786   4.065   5.512   7.405  2.5581  0.5434  0.0000
  159SAPE   C2817787   3.994   5.718   7.448 -0.6497 -0.2772 -0.2518
  159SAPE   H8R17788   3.954   5.807   7.398 -0.2139  1.6937  2.7431
  159SAPE   C2917789   4.030   5.736   7.579 -0.0159  0.5155  0.0716
  159SAPE   H9R17790   4.008   5.829   7.632  1.0506  0.0103  1.4245
  159SAPE  C21017791   4.102   5.632   7.661 -0.2470  0.3884  0.0701
  159SAPE  H10R17792   4.118   5.541   7.598 -2.6864  0.8454 -1.2997
  159SAPE  H10S17793   4.051   5.591   7.751 -0.2323  0.7709  0.2517
  159SAPE  C21117794   4.233   5.698   7.695 -0.0708  0.7593  0.2286
  159SAPE  H11R17795   4.300   5.713   7.609  0.7836  0.3423  0.8142
  159SAPE  C21217796   4.283   5.729   7.814  0.1495  0.3496 -0.3234
  159SAPE  H12R17797   4.386   5.767   7.818  0.8214 -1.5656  2.3496
  159SAPE  C21317798   4.223   5.714   7.948 -0.3105 -0.6967 -0.7997
  159SAPE  H13R17799   4.113   5.697   7.947  0.0412 -3.4541  1.9140
  159SAPE  H13S17800   4.238   5.810   8.002  0.5297 -1.6761  0.7240
  159SAPE  C21417801   4.291   5.592   8.011  0.3932 -0.0710  0.4316
  159SAPE  H14R17802   4.330   5.521   7.936  1.0085 -0.7689  1.4024
  159SAPE  C21517803   4.321   5.571   8.136 -0.5312 -0.1974 -0.4084
  159SAPE  H15R17804   4.369   5.472   8.145  2.3364  0.5788 -5.1483
  159SAPE  C21617805   4.288   5.659   8.261 -0.3984  0.3211 -0.1019
  159SAPE  H16R17806   4.214   5.740   8.242 -0.0536  0.2178 -1.9944
  159SAPE  H16S17807   4.386   5.705   8.283 -0.1386 -0.0475 -0.4825
  159SAPE  C21717808   4.239   5.572   8.372 -0.3100  0.4091  0.2176
  159SAPE  H17R17809   4.312   5.489   8.382 -0.2210  0.3554 -0.8628
  159SAPE  H17S17810   4.138   5.537   8.342 -0.5754 -1.0968  2.7105
  159SAPE  C21817811   4.235   5.652   8.501 -0.1455 -0.1572  0.0350
  159SAPE  H18R17812   4.170   5.739   8.479  1.2518  1.0287  0.5419
  159SAPE  H18S17813   4.337   5.692   8.520  0.3011 -1.5785  0.7099
  159SAPE  C21917814   4.167   5.579   8.617 -0.3286  0.1366 -0.5728
  159SAPE  H19R17815   4.171   5.470   8.593  0.8890 -0.1248  0.7611
  159SAPE  H19S17816   4.066   5.620   8.634  0.4902  1.7227  0.5478
  159SAPE  C22017817   4.246   5.603   8.745  1.0354  0.0975 -0.9518
  159SAPE  H20R17818   4.221   5.705   8.780  4.4416  0.0065  2.0184
  159SAPE  H20S17819   4.354   5.606   8.720  0.9737 -0.3723 -1.2692
  159SAPE  H20T17820   4.233   5.524   8.823  1.8279 -0.8025 -1.7172
  159SAPE   C3317821   4.402   5.652   7.071  0.2719  0.4277 -0.2574
  159SAPE   H3X17822   4.407   5.755   7.030 -3.1264  1.2460  1.1877
  159SAPE   H3Y17823   4.485   5.591   7.030  0.0614  0.2683 -0.4392
  159SAPE   C3417824   4.421   5.651   7.219 -0.0918  0.7023  0.8092
  159SAPE   H4X17825   4.336   5.698   7.273  0.1179  3.0471 -0.8220
  159SAPE   H4Y17826   4.526   5.687   7.234  0.5373 -0.6787 -0.2220
  159SAPE   C3517827   4.430   5.505   7.279 -0.4318  0.1165 -0.5829
  159SAPE   H5X17828   4.519   5.454   7.236  0.8591  1.3978  0.5455
  159SAPE   H5Y17829   4.343   5.448   7.237 -1.2109  1.4048 -0.7264
  159SAPE   C3617830   4.429   5.511   7.436 -0.3084  0.0764 -0.2222
  159SAPE   H6X17831   4.321   5.517   7.460  0.0408  1.4250  1.0454
  159SAPE   H6Y17832   4.477   5.602   7.479 -2.5231 -0.0187  2.5419
  159SAPE   C3717833   4.486   5.385   7.506  0.3203  0.2950  0.1601
  159SAPE   H7X17834   4.584   5.345   7.474  0.3195 -0.7517  1.4403
  159SAPE   H7Y17835   4.413   5.306   7.480  0.2910  0.0938  0.8611
  159SAPE   C3817836   4.488   5.407   7.649  0.0345 -0.0328 -0.4803
  159SAPE   H8X17837   4.381   5.425   7.672  0.7046  0.6957  2.2355
  159SAPE   H8Y17838   4.538   5.502   7.679  0.6475 -0.4461 -0.1872
  159SAPE   C3917839   4.549   5.295   7.729 -0.2769  0.2327 -0.0847
  159SAPE   H9X17840   4.659   5.308   7.721 -0.0479 -1.8452 -0.5753
  159SAPE   H9Y17841   4.522   5.194   7.692  0.5708  0.1915 -0.5911
  159SAPE  C31017842   4.506   5.311   7.877  0.0543 -0.2769 -0.4003
  159SAPE  H10X17843   4.404   5.272   7.900  0.1279  0.5785  1.4722
  159SAPE  H10Y17844   4.512   5.420   7.896 -1.1645  0.3024 -3.1157
  159SAPE  C31117845   4.604   5.247   7.971  0.2158  0.3167  0.2628
  159SAPE  H11X17846   4.704   5.295   7.974  0.4673 -0.2821  3.2975
  159SAPE  H11Y17847   4.626   5.145   7.933  0.8726  0.9470 -1.0768
  159SAPE  C31217848   4.559   5.234   8.122  0.5354 -0.2034  0.8572
  159SAPE  H12X17849   4.456   5.193   8.131  0.1980  0.3615 -0.3323
  159SAPE  H12Y17850   4.546   5.339   8.156  2.4134  1.0276 -2.0057
  159SAPE  C31317851   4.654   5.164   8.222  0.7320 -0.8618 -1.1245
  159SAPE  H13X17852   4.758   5.204   8.217  0.2787  0.5802  0.3517
  159SAPE  H13Y17853   4.654   5.053   8.212  0.3518 -0.8506 -1.2610
  159SAPE  C31417854   4.629   5.203   8.371 -0.3101 -0.8472 -0.1881
  159SAPE  H14X17855   4.528   5.162   8.394 -0.1066  0.2757  2.9101
  159SAPE  H14Y17856   4.637   5.313   8.381  0.0343 -1.0349  1.8535
  159SAPE  C31517857   4.720   5.128   8.477 -0.4081  0.2188 -0.0100
  159SAPE  H15X17858   4.700   5.170   8.578 -1.8667 -0.8353  0.1550
  159SAPE  H15Y17859   4.827   5.143   8.452 -0.2452 -0.9452 -0.0359
  159SAPE  C31617860   4.711   4.971   8.478  0.0425 -0.1441  0.4135
  159SAPE  H16X17861   4.790   4.953   8.553  1.7287  3.2713 -0.4653
  159SAPE  H16Y17862   4.739   4.930   8.379 -0.8589  0.8802 -0.2852
  159SAPE  C31717863   4.578   4.913   8.536  0.2881  0.3936  0.6904
  159SAPE  H17X17864   4.497   4.948   8.467  1.7437  0.8711 -0.8297
  159SAPE  H17Y17865   4.563   4.966   8.632 -1.7445 -0.8621  1.0725
  159SAPE  C31817866   4.573   4.759   8.548 -2.0617  0.0690 -0.1962
  159SAPE  H18X17867   4.489   4.719   8.608  0.6889 -2.0597  2.4003
  159SAPE  H18Y17868   4.663   4.727   8.604 -2.8909  1.0118  1.7044
  159SAPE  H18Z17869   4.576   4.699   8.454 -0.3096 -1.7642  0.9856
  160SAPE     N17870   2.864   5.678   6.658  0.0041 -0.0748 -0.5585
  160SAPE   HN117871   2.858   5.596   6.722  2.4306 -0.6714 -1.0598
  160SAPE   HN217872   2.831   5.648   6.564 -1.6581  0.6264 -0.2132
  160SAPE   HN317873   2.966   5.687   6.639 -0.0028 -1.1272 -1.1415
  160SAPE   C1217874   2.800   5.807   6.704 -0.3064 -0.3515 -0.1646
  160SAPE  H12A17875   2.861   5.841   6.790 -0.4907  1.4265 -0.7337
  160SAPE  H12B17876   2.697   5.790   6.743  0.0304  2.8451  2.3239
  160SAPE   C1117877   2.822   5.907   6.594  0.8011  0.1588 -0.7729
  160SAPE  H11A17878   2.757   5.995   6.612  1.9112  0.8556 -0.1183
  160SAPE  H11B17879   2.776   5.863   6.502  1.3710 -0.4960 -0.7459
  160SAPE     P17880   3.004   6.047   6.480  0.4884  0.5515  0.2546
  160SAPE   O1317881   3.151   6.080   6.480  0.5290 -0.1288 -0.7612
  160SAPE   O1417882   2.955   5.993   6.349  0.0723 -0.1791 -0.2111
  160SAPE   O1217883   2.959   5.937   6.585  0.7804 -0.2110  0.0743
  160SAPE   O1117884   2.920   6.180   6.517 -0.0353 -0.4085 -0.4385
  160SAPE    C117885   2.917   6.232   6.651  0.1058  0.3764  0.2503
  160SAPE    HA17886   2.811   6.261   6.670 -0.0949 -1.5724  2.3401
  160SAPE    HB17887   2.939   6.160   6.733 -0.3537 -1.0269 -0.8357
  160SAPE    C217888   3.012   6.358   6.667  0.1262 -0.2866 -0.3452
  160SAPE    HS17889   3.118   6.323   6.668 -0.4216 -1.9958  0.4591
  160SAPE   O2117890   2.958   6.420   6.786 -0.1443 -0.3352 -0.2490
  160SAPE   C2117891   3.056   6.456   6.869  0.3113 -0.5761 -0.3015
  160SAPE   O2217892   3.173   6.442   6.850 -0.4316  0.2832 -0.2253
  160SAPE   C2217893   2.981   6.528   6.987  0.3860 -0.2917 -0.5760
  160SAPE   H2R17894   2.905   6.596   6.942 -1.1844 -0.8293  1.2206
  160SAPE   H2S17895   2.918   6.456   7.043  0.6413 -1.9249 -2.3000
  160SAPE    C317896   2.993   6.455   6.547  0.2402 -0.2592 -0.0583
  160SAPE    HX17897   2.885   6.464   6.524  0.0926 -0.6342  0.4769
  160SAPE    HY17898   3.042   6.408   6.459  0.0061  0.6531 -0.6828
  160SAPE   O3117899   3.040   6.592   6.573 -0.2276 -0.1937 -0.5015
  160SAPE   C3117900   3.165   6.613   6.541  0.2741  0.4006 -0.0818
  160SAPE   O3217901   3.239   6.531   6.492  0.4450  0.1047 -0.1992
  160SAPE   C3217902   3.209   6.751   6.570  0.0356 -0.1232 -0.3710
  160SAPE   H2X17903   3.134   6.826   6.536  0.9754  0.3462 -1.4151
  160SAPE   H2Y17904   3.300   6.761   6.508  0.8256 -1.6542  0.4997
  160SAPE   C2317905   3.080   6.589   7.083 -0.0778  0.1108 -0.3228
  160SAPE   H3R17906   3.021   6.637   7.164 -2.4405  0.2222 -2.0584
  160SAPE   H3S17907   3.137   6.669   7.031 -1.5744  0.4702 -1.4644
  160SAPE   C2417908   3.166   6.488   7.169  0.5222  0.5292  0.5997
  160SAPE   H4R17909   3.209   6.417   7.096  0.5728 -0.1401  1.2755
  160SAPE   H4S17910   3.103   6.437   7.245 -0.7468 -1.0778 -1.4722
  160SAPE   C2517911   3.274   6.566   7.237  0.1686  0.5122  0.8159
  160SAPE   H5R17912   3.347   6.609   7.168 -0.4444 -0.3379 -0.3716
  160SAPE   C2617913   3.290   6.584   7.370 -0.8454  0.9210 -0.0882
  160SAPE   H6R17914   3.377   6.640   7.406 -0.2211 -0.4927  0.6609
  160SAPE   C2717915   3.203   6.525   7.477  0.6584  0.5314 -0.0846
  160SAPE   H7R17916   3.175   6.423   7.444  1.6292  0.8740 -2.0496
  160SAPE   H7S17917   3.107   6.578   7.495  0.9051  0.0158  3.0145
  160SAPE   C2817918   3.285   6.513   7.606 -0.6087 -0.0678  1.0322
  160SAPE   H8R17919   3.395   6.513   7.601 -0.5738 -1.6542  1.6259
  160SAPE   C2917920   3.228   6.501   7.732  0.6037 -0.4123  0.6682
  160SAPE   H9R17921   3.296   6.489   7.817 -0.1104 -1.0119  1.1537
  160SAPE  C21017922   3.078   6.514   7.756 -0.1925 -0.1738 -0.2833
  160SAPE  H10R17923   3.059   6.469   7.856 -0.2481  0.2377 -0.1083
  160SAPE  H10S17924   3.023   6.446   7.687 -0.7117 -1.8386  1.7041
  160SAPE  C21117925   3.005   6.643   7.764 -0.1927  0.0162  0.2299
  160SAPE  H11R17926   2.921   6.648   7.694  1.1852  1.9328 -1.3786
  160SAPE  C21217927   3.037   6.765   7.822 -0.3971  0.1893  0.6650
  160SAPE  H12R17928   2.963   6.843   7.804 -0.9563 -0.7862 -1.4044
  160SAPE  C21317929   3.155   6.784   7.912  0.0525  0.1742 -0.5795
  160SAPE  H13R17930   3.191   6.692   7.961  2.0530  1.2888  0.1172
  160SAPE  H13S17931   3.113   6.847   7.994 -0.6368 -3.3106  1.8218
  160SAPE  C21417932   3.271   6.843   7.832 -0.2865 -0.5823 -0.2811
  160SAPE  H14R17933   3.302   6.801   7.735 -0.0339 -3.1912  0.9123
  160SAPE  C21517934   3.340   6.941   7.883 -0.6409  0.3358  0.8580
  160SAPE  H15R17935   3.422   6.985   7.824 -2.9978  2.7103 -0.7316
  160SAPE  C21617936   3.327   7.000   8.025 -0.1620 -0.4184  0.7276
  160SAPE  H16R17937   3.334   6.923   8.104  3.8532 -0.7442  0.1666
  160SAPE  H16S17938   3.229   7.051   8.034  0.2138  0.6527 -0.8634
  160SAPE  C21717939   3.434   7.106   8.058 -0.0127 -0.6143 -0.1250
  160SAPE  H17R17940   3.533   7.057   8.061  0.5375  0.5543  1.3472
  160SAPE  H17S17941   3.408   7.140   8.161 -3.2341  0.1425 -1.1071
  160SAPE  C21817942   3.454   7.234   7.972  0.0424 -0.1780  0.1459
  160SAPE  H18R17943   3.496   7.198   7.876 -0.0598  1.2327 -0.4310
  160SAPE  H18S17944   3.527   7.309   8.009 -1.0832  0.5521  0.9058
  160SAPE  C21917945   3.322   7.312   7.948  0.4527 -0.6611 -0.4409
  160SAPE  H19R17946   3.291   7.348   8.049 -2.6272  3.0404 -2.5949
  160SAPE  H19S17947   3.256   7.243   7.891 -0.8814  0.7696 -0.6432
  160SAPE  C22017948   3.331   7.439   7.861  0.5108 -0.6466  0.6101
  160SAPE  H20R17949   3.396   7.402   7.778  0.7037 -1.6119  1.1811
  160SAPE  H20S17950   3.386   7.525   7.904 -1.8818 -0.2025  2.8595
  160SAPE  H20T17951   3.227   7.460   7.827  0.4872  0.2308  1.2228
  160SAPE   C3317952   3.254   6.766   6.715 -0.8274 -0.1742  0.0028
  160SAPE   H3X17953   3.352   6.716   6.732  0.9102  3.1674  0.2053
  160SAPE   H3Y17954   3.179   6.714   6.780 -0.1794 -0.1615  0.7709
  160SAPE   C3417955   3.284   6.912   6.749 -0.1208  0.5376 -0.4488
  160SAPE   H4X17956   3.198   6.976   6.777 -0.1001  2.0520 -3.6681
  160SAPE   H4Y17957   3.334   6.955   6.659  2.3609  2.7976  1.8771
  160SAPE   C3517958   3.387   6.928   6.859  0.0714 -0.5710  0.0910
  160SAPE   H5X17959   3.436   7.028   6.864  0.0124 -0.5790  1.0353
  160SAPE   H5Y17960   3.474   6.869   6.824  0.6443  1.2738 -1.6966
  160SAPE   C3617961   3.335   6.892   6.993  0.3343  0.7110 -0.4555
  160SAPE   H6X17962   3.308   6.784   6.991 -0.0275  0.7557  1.0907
  160SAPE   H6Y17963   3.241   6.945   7.017  1.7607  2.5267  1.2673
  160SAPE   C3717964   3.421   6.928   7.108  0.5153  0.0891  0.4674
  160SAPE   H7X17965   3.479   7.020   7.085  0.0368 -0.1213 -1.6069
  160SAPE   H7Y17966   3.501   6.852   7.121  0.1803 -0.3249  0.1093
  160SAPE   C3817967   3.344   6.957   7.238  0.8293 -0.0792 -0.0255
  160SAPE   H8X17968   3.274   6.872   7.251  1.5510 -0.7192 -0.3245
  160SAPE   H8Y17969   3.276   7.042   7.215  0.0292 -0.5784  0.4854
  160SAPE   C3917970   3.428   6.995   7.355  0.2938 -0.3739 -0.4266
  160SAPE   H9X17971   3.475   7.095   7.348 -1.2619  0.5378  1.6248
  160SAPE   H9Y17972   3.503   6.912   7.355  0.3110 -0.3565 -0.0214
  160SAPE  C31017973   3.347   6.993   7.490 -0.1457 -0.2211 -0.7825
  160SAPE  H10X17974   3.410   6.990   7.581 -0.6725  1.4786 -0.3486
  160SAPE  H10Y17975   3.278   6.906   7.500 -0.7780  0.3849  0.1239
  160SAPE  C31117976   3.255   7.113   7.507 -0.1841 -0.3101  0.4703
  160SAPE  H11X17977   3.196   7.116   7.412 -1.3436 -1.8848  1.1126
  160SAPE  H11Y17978   3.323   7.201   7.510 -0.1154 -0.3906  1.6039
  160SAPE  C31217979   3.154   7.107   7.617  0.1163  0.6482 -0.7042
  160SAPE  H12X17980   3.204   7.119   7.715 -1.3535  1.4616 -0.0409
  160SAPE  H12Y17981   3.110   7.005   7.611  0.2679  0.4537  1.2877
  160SAPE  C31317982   3.062   7.236   7.618 -0.4772  0.9843  0.6197
  160SAPE  H13X17983   3.004   7.234   7.523 -0.0959 -0.0848  0.4014
  160SAPE  H13Y17984   3.131   7.323   7.619 -0.8706  1.3095 -0.0866
  160SAPE  C31417985   2.967   7.235   7.739 -0.5253  0.6812 -0.0361
  160SAPE  H14X17986   3.017   7.181   7.822 -1.1276  1.4406  0.8282
  160SAPE  H14Y17987   2.881   7.177   7.700  0.4474 -0.8732  0.0737
  160SAPE  C31517988   2.905   7.368   7.791 -0.6322 -0.5691  0.0043
  160SAPE  H15X17989   2.857   7.414   7.702  0.4897 -1.7223 -1.2256
  160SAPE  H15Y17990   2.998   7.422   7.822 -0.8747 -1.3946  2.2341
  160SAPE  C31617991   2.805   7.357   7.911 -0.1175 -0.1379 -0.0562
  160SAPE  H16X17992   2.729   7.286   7.873  0.9013 -2.0606  1.3956
  160SAPE  H16Y17993   2.762   7.454   7.943  0.9354  0.2885  0.0883
  160SAPE  C31717994   2.863   7.288   8.035  0.3053  0.4083  0.2361
  160SAPE  H17X17995   2.877   7.359   8.120 -2.5478  0.8190  0.4055
  160SAPE  H17Y17996   2.961   7.249   8.001 -0.2193 -0.6994 -0.0346
  160SAPE  C31817997   2.777   7.173   8.089  0.8201  0.1392  0.4645
  160SAPE  H18X17998   2.736   7.101   8.015 -2.9692  0.5395  2.0958
  160SAPE  H18Y17999   2.683   7.211   8.133  0.3456 -1.1368  0.5651
  160SAPE  H18Z18000   2.824   7.112   8.170 -1.1992 -0.0170  1.5341
  161SAPE     N18001   5.434   4.981   6.257 -0.1387  0.3443 -0.0999
  161SAPE   HN118002   5.462   5.046   6.333 -2.2818  1.4946 -0.2669
  161SAPE   HN218003   5.444   4.882   6.289  0.7219  0.9169  1.4383
  161SAPE   HN318004   5.498   4.996   6.176  0.8385 -1.5720  0.2839
  161SAPE   C1218005   5.287   4.995   6.220 -0.3030 -0.1823  0.3669
  161SAPE  H12A18006   5.285   4.981   6.110 -0.3263  0.6712  0.2507
  161SAPE  H12B18007   5.251   5.099   6.235 -1.0640 -0.2151 -1.1381
  161SAPE   C1118008   5.203   4.886   6.291 -0.0985 -0.8080  0.0805
  161SAPE  H11A18009   5.098   4.885   6.255 -0.3205  2.2075  0.5152
  161SAPE  H11B18010   5.208   4.912   6.399 -3.8948 -0.9447  0.3590
  161SAPE     P18011   5.213   4.614   6.248 -0.0479  0.0106 -0.1636
  161SAPE   O1318012   5.131   4.595   6.124  0.1421 -0.1816 -0.4725
  161SAPE   O1418013   5.332   4.526   6.266  0.4666 -0.1465  0.6086
  161SAPE   O1218014   5.264   4.761   6.263  0.4397 -0.0196 -0.2460
  161SAPE   O1118015   5.125   4.600   6.377  0.1163  0.0431 -0.0862
  161SAPE    C118016   5.192   4.629   6.500 -0.5002 -0.4048 -0.1032
  161SAPE    HA18017   5.301   4.652   6.488 -0.5221  0.7613  1.7930
  161SAPE    HB18018   5.137   4.720   6.533  1.9897  0.9114  0.5521
  161SAPE    C218019   5.174   4.520   6.610  0.5196  0.0375 -0.1837
  161SAPE    HS18020   5.221   4.426   6.574  0.9996  0.5866 -1.0145
  161SAPE   O2118021   5.041   4.520   6.641 -0.5905 -0.3664 -0.0767
  161SAPE   C2118022   4.995   4.394   6.667 -0.3589 -0.3077 -0.0499
  161SAPE   O2218023   5.063   4.290   6.663 -0.1490 -0.0334  0.1433
  161SAPE   C2218024   4.844   4.390   6.696 -0.3956 -0.3341 -0.4017
  161SAPE   H2R18025   4.805   4.489   6.666 -0.2873 -0.4474 -0.9312
  161SAPE   H2S18026   4.796   4.324   6.620 -2.1555  1.6319 -1.0293
  161SAPE    C318027   5.257   4.549   6.743  0.7673 -0.2814 -0.0825
  161SAPE    HX18028   5.227   4.651   6.776 -0.6052 -0.0826 -1.9324
  161SAPE    HY18029   5.364   4.557   6.712  0.5913 -0.5490 -0.7560
  161SAPE   O3118030   5.225   4.455   6.849 -0.0067 -0.0860  0.5020
  161SAPE   C3118031   5.315   4.364   6.876  0.0042 -0.2638  0.0870
  161SAPE   O3218032   5.430   4.357   6.835 -0.4460  0.0721 -0.8448
  161SAPE   C3218033   5.259   4.273   6.985 -0.0393 -0.2381 -0.0597
  161SAPE   H2X18034   5.250   4.176   6.931  4.7551 -1.8867  1.7904
  161SAPE   H2Y18035   5.159   4.312   7.012  0.2779  2.4715 -2.5287
  161SAPE   C2318036   4.802   4.354   6.840 -0.6488 -0.5586 -0.9291
  161SAPE   H3R18037   4.827   4.252   6.875  0.1317  0.1083  0.5085
  161SAPE   H3S18038   4.692   4.362   6.839 -0.5237  1.1719 -2.7947
  161SAPE   C2418039   4.858   4.446   6.954  0.2507  0.2950 -0.6903
  161SAPE   H4R18040   4.959   4.471   6.915 -0.3259  0.8027 -1.8719
  161SAPE   H4S18041   4.869   4.376   7.040 -2.4182  1.3405  0.5699
  161SAPE   C2518042   4.789   4.576   6.986 -0.1784  0.0439 -0.4375
  161SAPE   H5R18043   4.709   4.610   6.919  0.1684 -1.2713 -1.5411
  161SAPE   C2618044   4.820   4.640   7.100  0.8068 -1.4495 -0.0081
  161SAPE   H6R18045   4.761   4.730   7.121  0.2428 -1.5529 -1.0930
  161SAPE   C2718046   4.913   4.592   7.207  0.1949 -0.0134  0.9110
  161SAPE   H7R18047   4.924   4.482   7.194  1.8513  0.1698  0.7218
  161SAPE   H7S18048   4.875   4.619   7.308  2.0086 -0.3418  1.6888
  161SAPE   C2818049   5.054   4.646   7.191 -0.3372 -0.0530  0.4485
  161SAPE   H8R18050   5.082   4.687   7.093 -0.6794 -1.1146 -0.1012
  161SAPE   C2918051   5.145   4.650   7.286 -0.0286 -0.1258  0.3018
  161SAPE   H9R18052   5.243   4.699   7.272  0.0557  0.1939  1.9135
  161SAPE  C21018053   5.128   4.601   7.429  0.3006 -0.1796  0.4330
  161SAPE  H10R18054   5.089   4.497   7.428  1.3467 -0.5735  0.0177
  161SAPE  H10S18055   5.054   4.666   7.481  0.1346  2.1482 -2.6198
  161SAPE  C21118056   5.258   4.593   7.502 -0.8771  0.0055  0.4307
  161SAPE  H11R18057   5.350   4.627   7.452  0.3662  0.2360  2.7970
  161SAPE  C21218058   5.270   4.566   7.626 -0.9543 -0.1850 -0.9498
  161SAPE  H12R18059   5.360   4.576   7.688 -0.5828 -1.0082 -1.3535
  161SAPE  C21318060   5.155   4.520   7.708 -0.3764 -0.0021  1.5947
  161SAPE  H13R18061   5.063   4.550   7.654 -0.1787 -1.3164  0.5105
  161SAPE  H13S18062   5.152   4.574   7.805 -0.5418 -3.1536  3.4065
  161SAPE  C21418063   5.162   4.369   7.727  0.3202 -0.1366  0.1921
  161SAPE  H14R18064   5.181   4.319   7.631  0.6514 -1.3486  0.8721
  161SAPE  C21518065   5.152   4.299   7.844  0.5542 -0.1143  0.4615
  161SAPE  H15R18066   5.156   4.189   7.837 -0.6317 -0.2126  1.1071
  161SAPE  C21618067   5.127   4.360   7.979  0.1979 -0.0526 -0.4266
  161SAPE  H16R18068   5.047   4.435   7.964  1.3049  1.2985  0.3398
  161SAPE  H16S18069   5.214   4.407   8.028  1.2297  0.4836 -2.7225
  161SAPE  C21718070   5.079   4.273   8.094  0.3489 -0.3408  0.4445
  161SAPE  H17R18071   5.173   4.228   8.133  1.4892  0.3658 -1.4291
  161SAPE  H17S18072   5.019   4.187   8.056  0.6572  0.3081 -1.5228
  161SAPE  C21818073   4.989   4.348   8.192  0.0493  0.1790 -0.2123
  161SAPE  H18R18074   4.920   4.274   8.237  0.8418  0.1790  1.0318
  161SAPE  H18S18075   4.925   4.417   8.133 -0.2059  1.7978  1.8832
  161SAPE  C21918076   5.066   4.437   8.294 -0.3897 -0.2002 -0.8153
  161SAPE  H19R18077   4.990   4.506   8.336  0.4081  0.1248  0.1046
  161SAPE  H19S18078   5.136   4.492   8.228 -0.7046  1.1427 -0.0529
  161SAPE  C22018079   5.139   4.365   8.408 -0.2018 -0.5360 -0.0115
  161SAPE  H20R18080   5.171   4.265   8.371 -1.8744 -0.4488 -1.8022
  161SAPE  H20S18081   5.081   4.352   8.502  1.0032 -0.3824  0.7610
  161SAPE  H20T18082   5.236   4.410   8.438  0.2022 -1.1224 -0.4444
  161SAPE   C3318083   5.365   4.233   7.093 -0.3721  0.2671  0.1729
  161SAPE   H3X18084   5.459   4.208   7.039  0.5799 -0.3014  2.0501
  161SAPE   H3Y18085   5.323   4.142   7.141 -0.5168  1.2859  1.9978
  161SAPE   C3418086   5.376   4.321   7.219  0.0931  0.2660  0.1340
  161SAPE   H4X18087   5.275   4.329   7.264 -0.8848 -0.5678 -1.8285
  161SAPE   H4Y18088   5.407   4.425   7.194 -0.0431  0.1418 -0.5823
  161SAPE   C3518089   5.479   4.278   7.313  0.9750  0.4163  1.1744
  161SAPE   H5X18090   5.576   4.308   7.268  0.0680  0.5664 -0.7299
  161SAPE   H5Y18091   5.472   4.167   7.318  1.3230  0.2458 -1.5218
  161SAPE   C3618092   5.480   4.347   7.455 -0.1713 -0.5068  0.4863
  161SAPE   H6X18093   5.370   4.357   7.470  0.0539  0.7836  1.3873
  161SAPE   H6Y18094   5.530   4.446   7.453  1.8355 -1.4789 -3.8990
  161SAPE   C3718095   5.537   4.254   7.561 -0.0179 -0.0379  0.0413
  161SAPE   H7X18096   5.636   4.224   7.520 -0.0339 -0.9517  0.6522
  161SAPE   H7Y18097   5.465   4.170   7.566  1.2458 -1.0999  0.9192
  161SAPE   C3818098   5.559   4.328   7.694  0.1345 -0.2496  0.1447
  161SAPE   H8X18099   5.467   4.380   7.727 -0.1623  0.0731 -1.1500
  161SAPE   H8Y18100   5.633   4.409   7.677 -0.4613 -0.0904 -1.8371
  161SAPE   C3918101   5.607   4.233   7.798  0.4625  0.0871  0.3521
  161SAPE   H9X18102   5.701   4.179   7.774  2.0159  2.2852  1.3023
  161SAPE   H9Y18103   5.524   4.161   7.813 -0.0404  0.0952 -2.1325
  161SAPE  C31018104   5.637   4.303   7.934 -0.4156 -0.7493 -0.2606
  161SAPE  H10X18105   5.741   4.340   7.933 -0.0760 -1.6747  0.6206
  161SAPE  H10Y18106   5.646   4.215   8.001 -0.8137 -1.9489 -1.7320
  161SAPE  C31118107   5.547   4.407   7.998 -0.0424  0.8779  0.0812
  161SAPE  H11X18108   5.444   4.377   7.968 -0.7969  1.9586  1.4958
  161SAPE  H11Y18109   5.573   4.501   7.946  1.5941  0.5263  0.2481
  161SAPE  C31218110   5.549   4.418   8.152 -0.1930 -0.4432  0.5163
  161SAPE  H12X18111   5.654   4.428   8.188 -0.2771  0.9034  0.4056
  161SAPE  H12Y18112   5.511   4.323   8.195  2.3703 -1.2461  1.1043
  161SAPE  C31318113   5.467   4.534   8.205 -0.0333 -0.6491  0.2077
  161SAPE  H13X18114   5.362   4.507   8.180  0.1563 -0.5246 -0.7394
  161SAPE  H13Y18115   5.504   4.623   8.149 -1.3514  0.2423  0.7506
  161SAPE  C31418116   5.485   4.565   8.360  0.4008  0.7714 -1.0851
  161SAPE  H14X18117   5.465   4.470   8.416 -0.1948  1.1200 -0.6983
  161SAPE  H14Y18118   5.405   4.635   8.392 -1.5508 -2.0900  0.5277
  161SAPE  C31518119   5.616   4.640   8.399  0.6891  0.0163  0.4292
  161SAPE  H15X18120   5.637   4.713   8.318 -1.5598 -0.2153 -0.4102
  161SAPE  H15Y18121   5.684   4.553   8.396 -1.1473 -1.4203 -1.0439
  161SAPE  C31618122   5.624   4.695   8.542 -0.7886 -0.7193 -0.3523
  161SAPE  H16X18123   5.543   4.769   8.563 -0.3653 -0.4164  0.2313
  161SAPE  H16Y18124   5.716   4.754   8.561 -1.8983  0.4138  1.8301
  161SAPE  C31718125   5.621   4.575   8.638 -0.5174 -0.6970 -0.8005
  161SAPE  H17X18126   5.710   4.513   8.619 -0.6236 -0.9817 -0.3847
  161SAPE  H17Y18127   5.534   4.509   8.617 -0.2473 -1.5625  0.7221
  161SAPE  C31818128   5.627   4.602   8.792 -0.1937  0.2733 -0.1383
  161SAPE  H18X18129   5.733   4.610   8.823  0.5569 -1.4553 -2.1711
  161SAPE  H18Y18130   5.577   4.524   8.853 -3.4073  2.8266  0.6441
  161SAPE  H18Z18131   5.581   4.699   8.820  0.4538  0.4826  0.2150
  162SAPE     N18132   4.277   0.479   5.946  0.1608 -0.2893 -0.3720
  162SAPE   HN118133   4.292   0.412   5.868 -0.6722  1.0851 -1.7411
  162SAPE   HN218134   4.194   0.534   5.918 -0.5180 -0.2218  1.6495
  162SAPE   HN318135   4.353   0.549   5.960  0.3004 -0.8270  1.8879
  162SAPE   C1218136   4.229   0.425   6.075  0.4954  0.3873 -0.3979
  162SAPE  H12A18137   4.324   0.387   6.119 -1.0029 -2.1790  0.7316
  162SAPE  H12B18138   4.156   0.343   6.066  2.6855 -1.4804 -1.6945
  162SAPE   C1118139   4.167   0.552   6.151  0.0570  0.6491 -0.9007
  162SAPE  H11A18140   4.251   0.623   6.168  1.0378 -0.2484 -1.9136
  162SAPE  H11B18141   4.118   0.530   6.248 -0.9079 -0.3275 -1.6036
  162SAPE     P18142   3.924   0.644   6.103 -0.2423 -0.1576 -0.3510
  162SAPE   O1318143   3.868   0.748   6.009 -0.7644  0.1476 -0.1247
  162SAPE   O1418144   3.854   0.516   6.111 -0.5744  0.0350 -0.1087
  162SAPE   O1218145   4.075   0.614   6.062  0.1701  0.5079  0.3095
  162SAPE   O1118146   3.956   0.702   6.250 -0.4848  0.7955 -0.1950
  162SAPE    C118147   3.874   0.790   6.320 -0.4499  0.0269  0.0893
  162SAPE    HA18148   3.930   0.884   6.306  1.5936 -1.3075 -0.9500
  162SAPE    HB18149   3.775   0.794   6.270 -0.7966 -0.8173  0.6876
  162SAPE    C218150   3.838   0.747   6.469  0.6186 -0.0069  0.5544
  162SAPE    HS18151   3.758   0.816   6.502  0.3549 -0.5316  1.0350
  162SAPE   O2118152   3.952   0.748   6.560  0.3895  0.0283 -0.2755
  162SAPE   C2118153   3.965   0.859   6.622  0.3136 -0.2375 -0.0433
  162SAPE   O2218154   3.888   0.952   6.624 -0.1087 -0.1290 -0.1852
  162SAPE   C2218155   4.098   0.870   6.687  0.0416  0.0863  0.2366
  162SAPE   H2R18156   4.180   0.853   6.613 -0.6423 -1.8566 -0.1078
  162SAPE   H2S18157   4.116   0.977   6.712  1.1039  0.3552 -1.5970
  162SAPE    C318158   3.773   0.607   6.472  0.5957 -0.5051  0.0195
  162SAPE    HX18159   3.856   0.533   6.463  1.6034  0.8889 -2.6496
  162SAPE    HY18160   3.705   0.601   6.385  0.4021  0.8491  0.0665
  162SAPE   O3118161   3.681   0.598   6.588 -0.1602  1.7016  0.4046
  162SAPE   C3118162   3.738   0.567   6.698 -0.0119  0.4045 -0.1476
  162SAPE   O3218163   3.848   0.513   6.707  0.3818 -0.4837 -1.1233
  162SAPE   C3218164   3.654   0.635   6.809  0.0729  0.4198  0.5655
  162SAPE   H2X18165   3.544   0.627   6.795  0.3293  0.4499 -1.5164
  162SAPE   H2Y18166   3.684   0.741   6.799 -0.3276  0.3245 -1.7300
  162SAPE   C2318167   4.138   0.777   6.808 -0.6135  0.2041 -0.8383
  162SAPE   H3R18168   4.240   0.806   6.841 -0.2331 -1.4681 -0.4645
  162SAPE   H3S18169   4.147   0.669   6.781 -2.0047 -0.0561 -0.3180
  162SAPE   C2418170   4.048   0.778   6.930  0.5962  0.3342 -0.2057
  162SAPE   H4R18171   4.091   0.706   7.003 -2.0049 -0.8314  0.2377
  162SAPE   H4S18172   3.949   0.739   6.896  1.3520  0.0802 -2.1710
  162SAPE   C2518173   4.026   0.921   6.977  0.2167  0.1845  0.0144
  162SAPE   H5R18174   4.010   1.003   6.906  0.7302  0.0780 -0.2266
  162SAPE   C2618175   4.052   0.960   7.103 -0.2747  0.2587 -0.3201
  162SAPE   H6R18176   4.024   1.063   7.130 -1.5899 -0.0720 -0.3675
  162SAPE   C2718177   4.099   0.878   7.219  0.8583  0.6538  0.5151
  162SAPE   H7R18178   4.156   0.943   7.289 -1.5816  0.4744  2.6970
  162SAPE   H7S18179   4.177   0.808   7.180  1.1134  1.3238 -0.1983
  162SAPE   C2818180   3.999   0.799   7.296  0.4068  0.0421  0.0998
  162SAPE   H8R18181   3.971   0.704   7.249  3.0228 -0.4830 -0.4794
  162SAPE   C2918182   3.974   0.804   7.429  0.4518 -0.1858  0.1164
  162SAPE   H9R18183   3.896   0.740   7.474  1.1449 -0.9059  0.3045
  162SAPE  C21018184   4.032   0.905   7.524  0.2358  0.7167  0.3213
  162SAPE  H10R18185   4.124   0.953   7.487 -0.7547  1.1850 -1.6275
  162SAPE  H10S18186   4.062   0.838   7.608  1.4778  0.5964 -0.2246
  162SAPE  C21118187   3.916   1.001   7.551 -0.0032 -0.7269 -0.7351
  162SAPE  H11R18188   3.840   1.009   7.472  0.3846  0.6129 -0.9901
  162SAPE  C21218189   3.905   1.081   7.656 -0.6901 -0.3977 -0.5878
  162SAPE  H12R18190   3.825   1.156   7.644 -0.5490  0.4408  3.0746
  162SAPE  C21318191   3.993   1.099   7.774 -0.8956  0.6311 -0.5823
  162SAPE  H13R18192   4.099   1.070   7.757 -0.3359  2.2789  0.0305
  162SAPE  H13S18193   3.949   1.052   7.864 -1.1291  0.8562 -0.5769
  162SAPE  C21418194   3.998   1.249   7.799 -0.1113  0.6183  0.0083
  162SAPE  H14R18195   4.069   1.303   7.736  0.1553 -0.1697 -0.3647
  162SAPE  C21518196   3.923   1.316   7.892  0.4583 -0.4537 -0.7656
  162SAPE  H15R18197   3.917   1.426   7.893  0.7942 -0.4303  2.0358
  162SAPE  C21618198   3.816   1.256   7.983  0.1363  0.0173 -0.6498
  162SAPE  H16R18199   3.791   1.149   7.966  1.7852 -0.5565  0.3723
  162SAPE  H16S18200   3.729   1.325   7.978  0.0558 -0.0252  0.0652
  162SAPE  C21718201   3.846   1.272   8.132 -0.7235 -0.3904  0.6942
  162SAPE  H17R18202   3.879   1.377   8.143 -0.4129 -0.4816  0.6433
  162SAPE  H17S18203   3.926   1.201   8.164 -1.4976 -0.8711  1.5911
  162SAPE  C21818204   3.721   1.251   8.219 -0.2226  0.8554 -0.9185
  162SAPE  H18R18205   3.660   1.179   8.161  0.0529  0.6437 -0.9462
  162SAPE  H18S18206   3.663   1.344   8.233  0.5407  1.1392  0.4143
  162SAPE  C21918207   3.742   1.168   8.343 -0.2769  0.3082  0.1420
  162SAPE  H19R18208   3.806   1.082   8.314  2.5297  2.0405  0.9230
  162SAPE  H19S18209   3.652   1.132   8.396  1.0979 -1.6314  1.2110
  162SAPE  C22018210   3.812   1.241   8.461 -0.2026  0.4281 -0.3496
  162SAPE  H20R18211   3.922   1.252   8.446  0.0876 -1.1375  0.5471
  162SAPE  H20S18212   3.797   1.181   8.553 -1.9774 -1.2343 -1.6565
  162SAPE  H20T18213   3.757   1.337   8.470 -0.7410 -0.0865  2.2189
  162SAPE   C3318214   3.695   0.576   6.949 -0.2365  0.0102 -0.3314
  162SAPE   H3X18215   3.632   0.623   7.028  0.0661  1.4611 -0.9477
  162SAPE   H3Y18216   3.803   0.587   6.969 -0.8251  0.0379  3.1126
  162SAPE   C3418217   3.663   0.428   6.955 -0.3002  0.2396 -0.8635
  162SAPE   H4X18218   3.682   0.387   6.854 -0.1179 -1.7207 -0.0666
  162SAPE   H4Y18219   3.554   0.418   6.973 -0.1095 -0.3482  0.0118
  162SAPE   C3518220   3.753   0.354   7.044 -0.0302  0.1773 -0.1005
  162SAPE   H5X18221   3.855   0.359   7.002  0.7772  1.8847  2.0186
  162SAPE   H5Y18222   3.733   0.245   7.040 -1.8215  0.5337 -2.4159
  162SAPE   C3618223   3.760   0.390   7.196 -0.3020  0.4163 -0.3596
  162SAPE   H6X18224   3.654   0.413   7.223 -1.0649 -1.4350 -1.7098
  162SAPE   H6Y18225   3.820   0.481   7.217  2.9595 -1.5746 -0.7367
  162SAPE   C3718226   3.815   0.279   7.284  0.8519  0.5519 -0.6180
  162SAPE   H7X18227   3.925   0.273   7.266  0.9298 -1.1516  0.3324
  162SAPE   H7Y18228   3.767   0.184   7.253 -0.5729  1.3649 -0.9259
  162SAPE   C3818229   3.789   0.332   7.430  0.2787 -0.1926 -0.0110
  162SAPE   H8X18230   3.683   0.361   7.446  0.4115  1.0482 -1.3167
  162SAPE   H8Y18231   3.852   0.423   7.439  0.2529 -0.1913  0.1516
  162SAPE   C3918232   3.831   0.238   7.543  0.4938  0.6951 -0.1129
  162SAPE   H9X18233   3.938   0.212   7.529  0.7590  1.3309  0.6961
  162SAPE   H9Y18234   3.775   0.142   7.536 -0.3235  1.0928  0.7734
  162SAPE  C31018235   3.811   0.288   7.686  0.1076 -0.8272  0.4410
  162SAPE  H10X18236   3.702   0.308   7.689  0.1997 -0.4296  1.2313
  162SAPE  H10Y18237   3.863   0.385   7.702  0.1610 -1.0372  1.5899
  162SAPE  C31118238   3.854   0.179   7.797  1.1563 -0.2399  1.3018
  162SAPE  H11X18239   3.964   0.183   7.783  0.7229  1.5825 -2.0716
  162SAPE  H11Y18240   3.818   0.078   7.768  0.1190  0.9866 -1.8690
  162SAPE  C31218241   3.813   0.236   7.936  0.2892  0.6199 -0.5152
  162SAPE  H12X18242   3.710   0.209   7.966  0.3992  1.4917  0.6944
  162SAPE  H12Y18243   3.797   0.346   7.927 -2.6079  0.2594 -0.0232
  162SAPE  C31318244   3.902   0.215   8.061 -0.1804  0.6250  0.2277
  162SAPE  H13X18245   4.001   0.263   8.045  0.0490 -0.1888 -0.8689
  162SAPE  H13Y18246   3.923   0.107   8.080 -2.5112  0.1264  0.1223
  162SAPE  C31418247   3.827   0.276   8.178  0.0138 -0.6510  0.0629
  162SAPE  H14X18248   3.723   0.238   8.183 -0.5638  0.9634  0.7108
  162SAPE  H14Y18249   3.821   0.385   8.154 -2.0236 -0.2747  2.0500
  162SAPE  C31518250   3.892   0.248   8.314 -0.0588  0.0816 -0.0337
  162SAPE  H15X18251   3.920   0.141   8.329  0.2489 -0.0668 -1.5529
  162SAPE  H15Y18252   3.827   0.272   8.400  0.6651  0.6849  0.3557
  162SAPE  C31618253   4.015   0.326   8.337 -0.0867 -0.1777  0.5434
  162SAPE  H16X18254   4.087   0.313   8.254  2.9703  0.8075  2.9622
  162SAPE  H16Y18255   4.069   0.272   8.417 -1.0961 -1.2229  0.5317
  162SAPE  C31718256   4.012   0.478   8.371 -0.3021 -0.5145 -0.0735
  162SAPE  H17X18257   3.958   0.523   8.286  1.7694  0.6564 -0.8205
  162SAPE  H17Y18258   4.116   0.518   8.372 -1.1863  1.8731  1.6147
  162SAPE  C31818259   3.944   0.506   8.500  0.9476 -0.3742 -0.2015
  162SAPE  H18X18260   3.987   0.447   8.584  0.2802  1.4108  1.4295
  162SAPE  H18Y18261   3.833   0.503   8.502  0.8953  1.3812  0.5270
  162SAPE  H18Z18262   3.967   0.610   8.530 -0.5105 -0.6217  1.9121
  163SAPE     N18263   2.637   5.029   6.495 -0.5007  0.0518 -0.2874
  163SAPE   HN118264   2.554   4.968   6.485 -0.7202  0.3442 -0.2541
  163SAPE   HN218265   2.701   5.021   6.414  2.6924  3.9053  1.6620
  163SAPE   HN318266   2.705   5.006   6.571  1.0826  1.1853 -1.3197
  163SAPE   C1218267   2.606   5.172   6.494 -0.1675 -0.4756  0.5848
  163SAPE  H12A18268   2.544   5.205   6.581 -0.9922 -1.1914  0.2848
  163SAPE  H12B18269   2.543   5.187   6.404  1.3080 -0.4059 -0.4451
  163SAPE   C1118270   2.731   5.253   6.479  0.2613 -0.1714  0.4358
  163SAPE  H11A18271   2.704   5.360   6.492  4.1274  0.8673  0.4356
  163SAPE  H11B18272   2.766   5.250   6.374  2.0899  1.9570  0.9707
  163SAPE     P18273   2.837   5.262   6.726  0.2816  0.3339  0.0042
  163SAPE   O1318274   2.923   5.168   6.806 -0.0664 -0.2912  0.2464
  163SAPE   O1418275   2.879   5.401   6.735 -0.1267 -0.2415 -0.8752
  163SAPE   O1218276   2.837   5.219   6.573  0.0226  0.3574 -0.2463
  163SAPE   O1118277   2.686   5.256   6.756  0.3426  0.0135 -0.2552
  163SAPE    C118278   2.608   5.365   6.803  0.2500  0.2146 -0.1276
  163SAPE    HA18279   2.649   5.466   6.784  1.6601 -0.5384 -1.1971
  163SAPE    HB18280   2.505   5.363   6.761  0.0288  0.7370  0.3950
  163SAPE    C218281   2.595   5.367   6.963 -0.1398  0.2774 -0.1318
  163SAPE    HS18282   2.542   5.460   6.992  2.1192  2.5545 -2.9742
  163SAPE   O2118283   2.727   5.369   7.027 -0.5503  0.0915  0.2917
  163SAPE   C2118284   2.792   5.477   7.011 -0.6721  0.5217  0.2008
  163SAPE   O2218285   2.745   5.584   6.971 -0.9869  0.5442 -0.7286
  163SAPE   C2218286   2.941   5.463   7.053  0.4473 -1.0286  0.1445
  163SAPE   H2R18287   2.971   5.373   6.996  0.5437 -1.2912  0.6082
  163SAPE   H2S18288   3.000   5.551   7.021  2.6371 -2.3442  0.4900
  163SAPE    C318289   2.536   5.242   7.003  0.2062  0.3688 -0.5523
  163SAPE    HX18290   2.610   5.165   6.971  0.4158  1.5496 -3.0735
  163SAPE    HY18291   2.437   5.218   6.958  0.5804 -2.6853  0.1293
  163SAPE   O3118292   2.515   5.245   7.150  0.0264  0.4444 -0.1429
  163SAPE   C3118293   2.583   5.161   7.221 -0.0922  0.3629  0.2244
  163SAPE   O3218294   2.675   5.093   7.184 -0.2769 -0.0027 -0.6760
  163SAPE   C3218295   2.537   5.135   7.356 -0.0303 -0.4200 -0.2285
  163SAPE   H2X18296   2.522   5.025   7.349 -2.3476 -0.0390 -2.4204
  163SAPE   H2Y18297   2.446   5.198   7.360  0.3602  0.2266 -1.3181
  163SAPE   C2318298   2.948   5.448   7.206  0.0634 -0.1584 -0.2294
  163SAPE   H3R18299   3.047   5.412   7.242 -0.9503 -1.2284  1.5322
  163SAPE   H3S18300   2.881   5.361   7.223 -0.1785 -0.0909 -0.8047
  163SAPE   C2418301   2.902   5.569   7.291  0.0456 -0.3937  0.1833
  163SAPE   H4R18302   2.855   5.525   7.382 -1.4128 -1.9147 -1.2566
  163SAPE   H4S18303   2.819   5.621   7.238 -0.9612  0.4078  2.4639
  163SAPE   C2518304   3.014   5.663   7.308  0.0692 -0.4481 -0.0614
  163SAPE   H5R18305   3.045   5.723   7.220  1.0120  0.7418  1.0621
  163SAPE   C2618306   3.092   5.683   7.413 -0.0759  0.3777 -0.4809
  163SAPE   H6R18307   3.171   5.760   7.415  1.5477 -1.2895  1.1603
  163SAPE   C2718308   3.090   5.611   7.543  0.7226 -0.6558 -0.1373
  163SAPE   H7R18309   3.193   5.574   7.564  1.0058  0.4313  0.4480
  163SAPE   H7S18310   3.026   5.521   7.542  0.6284 -0.5809 -1.9997
  163SAPE   C2818311   3.033   5.706   7.644  0.0341 -0.0847  0.4396
  163SAPE   H8R18312   2.945   5.759   7.605 -0.2440 -1.0052 -0.2003
  163SAPE   C2918313   3.065   5.727   7.770 -0.3219  0.5900 -0.6311
  163SAPE   H9R18314   3.012   5.805   7.827 -1.0163  0.8315 -1.5891
  163SAPE  C21018315   3.168   5.651   7.854  0.6256  0.3081  0.2538
  163SAPE  H10R18316   3.204   5.565   7.794  0.5603 -0.9736  1.9893
  163SAPE  H10S18317   3.104   5.606   7.933  0.9985 -0.9276 -0.1457
  163SAPE  C21118318   3.289   5.724   7.912 -0.4821  0.0391  0.3731
  163SAPE  H11R18319   3.341   5.776   7.831 -2.9050  1.6761 -0.1628
  163SAPE  C21218320   3.344   5.714   8.033 -0.3406 -0.1924  0.3449
  163SAPE  H12R18321   3.436   5.770   8.055  0.0549 -1.0269  0.8337
  163SAPE  C21318322   3.286   5.633   8.145  0.9378  0.1082  0.6579
  163SAPE  H13R18323   3.321   5.530   8.123  1.2315  0.4409 -0.4958
  163SAPE  H13S18324   3.176   5.625   8.134  0.9545  1.8768 -1.0563
  163SAPE  C21418325   3.328   5.677   8.282  0.8717 -0.3191  0.4186
  163SAPE  H14R18326   3.427   5.722   8.298  1.4809 -1.5241  0.1104
  163SAPE  C21518327   3.247   5.658   8.387  0.1547 -0.4870  0.0385
  163SAPE  H15R18328   3.290   5.691   8.483  1.9761 -2.3078 -0.0971
  163SAPE  C21618329   3.108   5.603   8.405  0.6749  0.2336  0.1026
  163SAPE  H16R18330   3.045   5.599   8.314  0.0568  1.0921  0.4796
  163SAPE  H16S18331   3.051   5.668   8.476 -0.1229 -0.8660  0.4716
  163SAPE  C21718332   3.112   5.465   8.473 -0.3392  0.0584  0.6357
  163SAPE  H17R18333   3.194   5.438   8.542  0.5179 -0.3134 -0.5112
  163SAPE  H17S18334   3.134   5.396   8.389 -0.2442  0.2375  0.5142
  163SAPE  C21818335   2.976   5.438   8.542  0.4099 -0.3240  0.2634
  163SAPE  H18R18336   2.900   5.472   8.467  0.5065 -0.3018  0.1759
  163SAPE  H18S18337   2.974   5.497   8.636  0.9316 -1.6205  1.0932
  163SAPE  C21918338   2.950   5.289   8.576  0.0802  0.4053 -0.5322
  163SAPE  H19R18339   2.956   5.235   8.479  0.3583  0.3773 -0.4992
  163SAPE  H19S18340   2.853   5.281   8.629  1.1254  2.4773  1.8119
  163SAPE  C22018341   3.064   5.221   8.661  0.4357  0.4512 -0.2148
  163SAPE  H20R18342   3.089   5.291   8.744 -1.5194  0.4156  0.4179
  163SAPE  H20S18343   3.153   5.223   8.595 -0.0431  1.3238 -0.8423
  163SAPE  H20T18344   3.033   5.115   8.672 -1.1200  0.9500  0.3078
  163SAPE   C3318345   2.634   5.166   7.478  0.2418  0.4540  0.0563
  163SAPE   H3X18346   2.726   5.108   7.458 -0.1203 -1.0409  2.4883
  163SAPE   H3Y18347   2.592   5.126   7.573  3.0478  0.3538  1.3067
  163SAPE   C3418348   2.673   5.314   7.514 -0.3934  0.2674 -0.2678
  163SAPE   H4X18349   2.591   5.381   7.548 -0.6773  0.8107 -1.9854
  163SAPE   H4Y18350   2.704   5.349   7.413  1.0444 -3.9025 -1.3816
  163SAPE   C3518351   2.795   5.327   7.607  0.3190  0.2981  0.1105
  163SAPE   H5X18352   2.836   5.429   7.588 -0.0021  0.6059  1.0089
  163SAPE   H5Y18353   2.871   5.255   7.569  1.5146  2.4827 -1.7899
  163SAPE   C3618354   2.784   5.287   7.753 -0.0750 -0.5002  0.5379
  163SAPE   H6X18355   2.804   5.177   7.751 -0.2805 -0.5350  0.4339
  163SAPE   H6Y18356   2.683   5.317   7.787 -0.2024 -0.5222  0.1766
  163SAPE   C3718357   2.893   5.348   7.843  0.3741  0.2156 -0.0293
  163SAPE   H7X18358   2.901   5.458   7.830 -0.1961  0.0647 -1.8737
  163SAPE   H7Y18359   2.993   5.310   7.811  0.0209 -0.5838 -0.1986
  163SAPE   C3818360   2.874   5.312   7.988  0.2507 -0.2074 -0.6075
  163SAPE   H8X18361   2.769   5.342   8.008 -0.7789 -2.8109 -1.9038
  163SAPE   H8Y18362   2.939   5.384   8.041 -0.7653  2.5408 -2.9694
  163SAPE   C3918363   2.892   5.166   8.029  0.4486 -0.0892 -0.1980
  163SAPE   H9X18364   3.000   5.143   8.013  0.8356  1.4242  0.1053
  163SAPE   H9Y18365   2.824   5.108   7.963 -1.6333  1.6274  0.3791
  163SAPE  C31018366   2.861   5.140   8.174  0.4121  0.5816  0.0597
  163SAPE  H10X18367   2.793   5.219   8.215 -0.6511 -0.6595  0.7409
  163SAPE  H10Y18368   2.953   5.159   8.233  1.8326 -0.1734 -1.8782
  163SAPE  C31118369   2.801   4.997   8.193  0.5069  1.0914  0.5917
  163SAPE  H11X18370   2.879   4.925   8.159 -0.4435  0.0660  0.5714
  163SAPE  H11Y18371   2.710   4.988   8.131 -0.5703  0.9025  2.1699
  163SAPE  C31218372   2.762   4.956   8.343  0.3599 -0.0815 -0.4635
  163SAPE  H12X18373   2.706   5.044   8.383 -0.3855  0.5529 -2.8301
  163SAPE  H12Y18374   2.854   4.936   8.402 -0.7015 -0.9750  0.9056
  163SAPE  C31318375   2.649   4.847   8.360 -1.0088  0.2708  0.8681
  163SAPE  H13X18376   2.553   4.877   8.314 -0.8522  3.2924  2.3761
  163SAPE  H13Y18377   2.636   4.828   8.468 -1.2866 -1.0578  0.6045
  163SAPE  C31418378   2.683   4.709   8.304  0.5588 -0.6818  0.1072
  163SAPE  H14X18379   2.694   4.708   8.193 -1.9482  1.9029 -0.2371
  163SAPE  H14Y18380   2.590   4.647   8.308 -0.5227  0.9747  1.2065
  163SAPE  C31518381   2.793   4.640   8.387  0.2879  0.2877  0.3452
  163SAPE  H15X18382   2.781   4.666   8.494  1.7139  0.1854  0.5378
  163SAPE  H15Y18383   2.893   4.674   8.352  0.9621 -0.8069  1.1688
  163SAPE  C31618384   2.795   4.486   8.360 -0.0751  0.1221 -0.9698
  163SAPE  H16X18385   2.809   4.474   8.250 -0.8685  0.6922 -1.1323
  163SAPE  H16Y18386   2.701   4.446   8.401  1.3543 -1.5583  0.7701
  163SAPE  C31718387   2.913   4.412   8.432 -0.2643  0.4200 -0.7498
  163SAPE  H17X18388   2.912   4.445   8.538  1.4163 -0.1619 -0.5394
  163SAPE  H17Y18389   3.012   4.426   8.382  0.9164  0.5721  1.5739
  163SAPE  C31818390   2.891   4.261   8.432  0.0932 -0.1966 -0.5558
  163SAPE  H18X18391   2.787   4.246   8.468 -0.1465  1.7758 -0.3371
  163SAPE  H18Y18392   2.965   4.210   8.497  0.1517  2.0854  1.2210
  163SAPE  H18Z18393   2.892   4.234   8.324  0.1036  1.6864 -1.0578
  164SAPE     N18394   6.015   2.169   5.984  0.1057 -0.6822  0.0225
  164SAPE   HN118395   5.981   2.091   6.044 -2.5486  1.9786  2.0932
  164SAPE   HN218396   5.956   2.184   5.900 -0.0878  2.8586  0.7053
  164SAPE   HN318397   6.111   2.144   5.952  0.3763  2.0707 -1.4506
  164SAPE   C1218398   6.002   2.285   6.070 -0.3087 -0.7312 -0.5612
  164SAPE  H12A18399   5.942   2.359   6.013  1.1697  1.2668  0.4162
  164SAPE  H12B18400   6.100   2.338   6.077 -1.0724  0.7296 -0.6875
  164SAPE   C1118401   5.938   2.261   6.208  0.0230  0.4889  0.3539
  164SAPE  H11A18402   5.904   2.354   6.259 -2.1832  1.1844 -2.2397
  164SAPE  H11B18403   6.010   2.221   6.282 -2.6014 -1.0390  2.1956
  164SAPE     P18404   5.685   2.209   6.183 -0.0660  0.2841 -0.0950
  164SAPE   O1318405   5.666   2.343   6.120  0.0511  0.8127  0.0192
  164SAPE   O1418406   5.614   2.096   6.124 -0.0367  0.6938  0.3108
  164SAPE   O1218407   5.835   2.164   6.194 -0.4070 -0.4155 -0.3272
  164SAPE   O1118408   5.634   2.215   6.330 -0.0986  0.2897  0.3409
  164SAPE    C118409   5.501   2.181   6.386 -0.2961  0.2083  0.6845
  164SAPE    HA18410   5.422   2.182   6.308 -0.6674  0.5514  1.0592
  164SAPE    HB18411   5.516   2.074   6.411  3.6257 -0.1871 -2.6963
  164SAPE    C218412   5.469   2.269   6.508 -0.3563  0.1735 -0.4515
  164SAPE    HS18413   5.564   2.285   6.564 -0.5791  0.9684 -0.2900
  164SAPE   O2118414   5.366   2.213   6.594 -0.2704 -0.7414 -0.3485
  164SAPE   C2118415   5.419   2.114   6.676 -0.3020  0.5216 -1.0591
  164SAPE   O2218416   5.537   2.092   6.685  1.0219 -0.3486  0.1947
  164SAPE   C2218417   5.312   2.030   6.745 -0.1923  0.0528 -0.1696
  164SAPE   H2R18418   5.243   2.106   6.789  0.7900  0.2043  1.1264
  164SAPE   H2S18419   5.248   1.976   6.672 -0.9117  0.9787 -0.2371
  164SAPE    C318420   5.420   2.410   6.452 -0.0181 -0.7675 -1.0391
  164SAPE    HX18421   5.336   2.382   6.386 -1.0954 -0.0986  0.0274
  164SAPE    HY18422   5.498   2.449   6.383  2.0534 -0.9405  1.1410
  164SAPE   O3118423   5.382   2.500   6.553 -0.1181 -0.0984 -0.8565
  164SAPE   C3118424   5.488   2.574   6.611  0.5465  0.4416 -0.5477
  164SAPE   O3218425   5.595   2.590   6.555  0.1175  0.1310  0.5060
  164SAPE   C3218426   5.454   2.602   6.756 -0.1305  0.6848  0.4407
  164SAPE   H2X18427   5.346   2.579   6.768 -0.7514  4.0061  1.7208
  164SAPE   H2Y18428   5.471   2.711   6.763  0.5358  0.5181  1.5315
  164SAPE   C2318429   5.366   1.934   6.848  0.3225  0.3396  0.0469
  164SAPE   H3R18430   5.466   1.964   6.886  1.0422 -0.8765 -0.8398
  164SAPE   H3S18431   5.390   1.845   6.786 -1.4795  0.4522 -0.8362
  164SAPE   C2418432   5.278   1.894   6.970  1.0351  0.1446 -0.1211
  164SAPE   H4R18433   5.199   1.823   6.936  1.6347 -0.9455  0.7349
  164SAPE   H4S18434   5.230   1.983   7.017  1.9164  0.3420  0.4247
  164SAPE   C2518435   5.347   1.822   7.072 -0.1966 -0.0255  0.1253
  164SAPE   H5R18436   5.317   1.717   7.083 -2.2144  0.6117  1.0058
  164SAPE   C2618437   5.424   1.887   7.163  0.7920 -0.5372  0.0665
  164SAPE   H6R18438   5.480   1.822   7.232  2.7280 -1.3559 -2.2379
  164SAPE   C2718439   5.445   2.035   7.184  0.8447  0.3035 -0.9440
  164SAPE   H7R18440   5.367   2.073   7.252  2.1480  2.8652 -0.8059
  164SAPE   H7S18441   5.424   2.090   7.089  0.6624  1.5516 -0.1962
  164SAPE   C2818442   5.580   2.060   7.243  0.0242  0.4937  0.0177
  164SAPE   H8R18443   5.651   2.092   7.166  0.3386 -3.1650 -1.3081
  164SAPE   C2918444   5.610   2.047   7.376  0.1417 -0.2280 -0.6848
  164SAPE   H9R18445   5.712   2.067   7.414 -1.0586  0.0610  2.5485
  164SAPE  C21018446   5.511   2.009   7.485 -0.8884  0.2033 -0.6059
  164SAPE  H10R18447   5.404   2.037   7.470 -1.5030 -0.1517  2.8340
  164SAPE  H10S18448   5.526   2.076   7.572 -1.9240 -0.4816  0.1185
  164SAPE  C21118449   5.518   1.864   7.527 -0.2252 -0.1797 -0.0671
  164SAPE  H11R18450   5.507   1.793   7.444 -1.0686 -0.4888  0.3086
  164SAPE  C21218451   5.518   1.801   7.649 -0.6329 -0.6490 -0.3403
  164SAPE  H12R18452   5.548   1.695   7.653 -1.0526 -0.7093  1.9077
  164SAPE  C21318453   5.509   1.871   7.777 -0.7627 -0.0918 -0.0631
  164SAPE  H13R18454   5.441   1.820   7.849 -3.7228  2.3335 -1.0244
  164SAPE  H13S18455   5.483   1.979   7.772  0.1867  0.1242 -0.2491
  164SAPE  C21418456   5.642   1.889   7.847 -0.1218 -0.2392 -0.4530
  164SAPE  H14R18457   5.737   1.887   7.792  1.6735 -0.9257  2.5379
  164SAPE  C21518458   5.653   1.935   7.975  0.0025  0.1372 -0.2441
  164SAPE  H15R18459   5.756   1.947   8.012  0.3429  0.9844 -1.4346
  164SAPE  C21618460   5.542   1.950   8.079  0.0237  0.3615 -0.1698
  164SAPE  H16R18461   5.567   1.906   8.178 -1.1258  0.3313  0.1234
  164SAPE  H16S18462   5.444   1.912   8.044  0.8963  0.0237 -2.2727
  164SAPE  C21718463   5.522   2.099   8.099 -0.3673  0.3322  0.5281
  164SAPE  H17R18464   5.477   2.143   8.007  1.4591  0.3247 -0.3955
  164SAPE  H17S18465   5.619   2.153   8.107  1.0286 -1.6856 -1.8801
  164SAPE  C21818466   5.452   2.126   8.234  1.0501  0.2290 -0.3587
  164SAPE  H18R18467   5.530   2.098   8.309  2.5123  1.8555 -1.2295
  164SAPE  H18S18468   5.370   2.052   8.232 -0.3051  1.7332 -1.9985
  164SAPE  C21918469   5.400   2.271   8.231 -0.9217  0.6747  0.2211
  164SAPE  H19R18470   5.316   2.278   8.158 -0.2087 -3.2373 -1.0788
  164SAPE  H19S18471   5.481   2.346   8.223 -0.5032  0.4441  1.9496
  164SAPE  C22018472   5.342   2.307   8.362  0.1169  0.3589  0.5984
  164SAPE  H20R18473   5.284   2.401   8.351  0.9407  0.6072 -1.8389
  164SAPE  H20S18474   5.411   2.325   8.448  0.9669 -0.5677  0.1179
  164SAPE  H20T18475   5.272   2.228   8.399 -0.1701  1.2964  2.1154
  164SAPE   C3318476   5.549   2.521   6.851 -0.4207 -0.0129  0.2902
  164SAPE   H3X18477   5.654   2.556   6.846 -0.0797 -0.9174  1.1551
  164SAPE   H3Y18478   5.560   2.418   6.811  1.2737 -0.2637  1.3511
  164SAPE   C3418479   5.503   2.525   6.993 -0.0904 -0.2691 -0.6027
  164SAPE   H4X18480   5.397   2.494   7.000  0.1275 -0.7472  0.9269
  164SAPE   H4Y18481   5.519   2.631   7.024 -0.9189 -0.3029 -0.0331
  164SAPE   C3518482   5.586   2.431   7.081 -0.0750 -0.9071  0.2521
  164SAPE   H5X18483   5.693   2.454   7.066 -0.0993 -2.3843 -2.5042
  164SAPE   H5Y18484   5.571   2.329   7.039 -1.1529 -0.5646 -0.2348
  164SAPE   C3618485   5.555   2.435   7.235 -0.3445 -0.3636  0.2099
  164SAPE   H6X18486   5.610   2.353   7.285 -0.3874 -0.9866 -0.7674
  164SAPE   H6Y18487   5.449   2.407   7.252 -0.3040 -1.2025 -0.8860
  164SAPE   C3718488   5.594   2.566   7.290 -0.1812  0.2468  0.4407
  164SAPE   H7X18489   5.514   2.637   7.259 -0.6178  0.2316  1.5434
  164SAPE   H7Y18490   5.691   2.600   7.247  1.0530 -0.8584  2.2924
  164SAPE   C3818491   5.599   2.571   7.445 -0.5830 -0.0913 -0.2742
  164SAPE   H8X18492   5.679   2.498   7.474  0.1811  1.0165  0.4433
  164SAPE   H8Y18493   5.509   2.520   7.485 -1.6278  1.0891 -1.1326
  164SAPE   C3918494   5.610   2.705   7.509  0.5651  0.4018 -0.0693
  164SAPE   H9X18495   5.578   2.783   7.436  1.2165  1.7528  1.0750
  164SAPE   H9Y18496   5.718   2.722   7.525 -0.0076  2.1767  2.1025
  164SAPE  C31018497   5.526   2.705   7.646 -0.3373 -0.4008  0.0047
  164SAPE  H10X18498   5.561   2.620   7.707 -2.4871 -1.4609 -0.1915
  164SAPE  H10Y18499   5.421   2.678   7.622 -0.2784 -0.9852  0.4007
  164SAPE  C31118500   5.541   2.837   7.733 -0.3905 -0.2525 -0.5196
  164SAPE  H11X18501   5.458   2.827   7.807  0.3394 -0.3316  0.2971
  164SAPE  H11Y18502   5.506   2.915   7.662 -1.9685 -0.8512 -0.4229
  164SAPE  C31218503   5.678   2.861   7.801  0.2412  0.0825 -0.1862
  164SAPE  H12X18504   5.754   2.915   7.739  1.4580  0.4562  1.5872
  164SAPE  H12Y18505   5.722   2.765   7.834  2.3007  0.7203 -0.9470
  164SAPE  C31318506   5.669   2.953   7.926 -0.0407  0.3639  0.2327
  164SAPE  H13X18507   5.598   2.899   7.992 -1.7472 -0.5585 -2.2873
  164SAPE  H13Y18508   5.621   3.045   7.886 -1.1326 -1.1201 -1.9894
  164SAPE  C31418509   5.802   2.975   8.001 -0.5850 -0.0838  0.4826
  164SAPE  H14X18510   5.894   2.987   7.941 -0.3568 -1.9676  0.4253
  164SAPE  H14Y18511   5.822   2.897   8.078  0.8223  0.9417  1.1640
  164SAPE  C31518512   5.792   3.101   8.075 -0.1214 -0.3443  0.0470
  164SAPE  H15X18513   5.768   3.192   8.017  2.5000  1.1367  1.1705
  164SAPE  H15Y18514   5.890   3.133   8.117 -0.2699  1.0080 -0.6112
  164SAPE  C31618515   5.687   3.112   8.184 -0.3973 -1.0513  0.1358
  164SAPE  H16X18516   5.675   3.010   8.226  0.2845  0.2206  3.5900
  164SAPE  H16Y18517   5.587   3.133   8.142  0.3224  1.5611 -0.3365
  164SAPE  C31718518   5.721   3.211   8.295 -0.0536  0.0991 -0.0748
  164SAPE  H17X18519   5.820   3.186   8.338 -0.6472 -2.3218 -0.0528
  164SAPE  H17Y18520   5.637   3.193   8.365 -0.5748  1.4938 -0.3293
  164SAPE  C31818521   5.719   3.358   8.255 -0.2673 -0.3564 -0.1682
  164SAPE  H18X18522   5.802   3.362   8.182 -0.5053 -1.1792 -0.4882
  164SAPE  H18Y18523   5.738   3.420   8.346 -0.3389 -0.6978  0.0786
  164SAPE  H18Z18524   5.628   3.407   8.214 -0.3175 -0.1277  0.2079
  165SAPE     N18525   5.018   5.404   6.432 -0.0763  0.1382  0.1260
  165SAPE   HN118526   4.972   5.497   6.436 -0.8688  0.1274 -5.3370
  165SAPE   HN218527   5.087   5.397   6.355 -0.3020  2.0620 -0.2609
  165SAPE   HN318528   4.941   5.337   6.413 -0.8389  0.1047  3.0224
  165SAPE   C1218529   5.079   5.368   6.566 -0.1397 -0.1214 -0.6520
  165SAPE  H12A18530   5.008   5.372   6.651 -0.7931  1.3011 -1.2556
  165SAPE  H12B18531   5.158   5.441   6.590 -0.6685 -0.7046  3.1569
  165SAPE   C1118532   5.144   5.225   6.563  0.5377 -0.3287  0.1109
  165SAPE  H11A18533   5.061   5.157   6.533 -0.0363 -0.2369  1.4578
  165SAPE  H11B18534   5.167   5.187   6.664  0.6370 -1.8997 -0.4947
  165SAPE     P18535   5.381   5.258   6.472  0.0799  0.7472  0.3717
  165SAPE   O1318536   5.486   5.156   6.453  0.2614  0.1473 -0.7844
  165SAPE   O1418537   5.376   5.368   6.369 -0.4616 -0.5010  0.1806
  165SAPE   O1218538   5.246   5.200   6.475 -0.0236  0.4532 -0.6133
  165SAPE   O1118539   5.412   5.315   6.614 -0.3305  0.0745 -0.5061
  165SAPE    C118540   5.454   5.456   6.624 -0.1395 -0.6180 -0.1166
  165SAPE    HA18541   5.542   5.481   6.560 -0.5633 -1.8558 -1.2071
  165SAPE    HB18542   5.366   5.516   6.592  0.4441 -0.6910 -1.9126
  165SAPE    C218543   5.486   5.507   6.770 -0.7127  0.1851 -0.5496
  165SAPE    HS18544   5.525   5.610   6.754 -0.6266 -0.1576 -2.6823
  165SAPE   O2118545   5.582   5.415   6.826  0.7433  0.2936 -0.3947
  165SAPE   C2118546   5.705   5.413   6.790 -0.2190 -0.1547  0.5460
  165SAPE   O2218547   5.758   5.494   6.714 -0.2545  0.2054  0.1030
  165SAPE   C2218548   5.780   5.292   6.852 -0.5224 -0.2164  0.1671
  165SAPE   H2R18549   5.715   5.214   6.897 -0.5327  1.2398  2.7386
  165SAPE   H2S18550   5.834   5.254   6.762 -1.3024  0.8368 -0.7513
  165SAPE    C318551   5.362   5.513   6.854  0.2135 -0.4404  0.0993
  165SAPE    HX18552   5.306   5.422   6.824 -0.2763 -0.2744  0.5076
  165SAPE    HY18553   5.294   5.595   6.822 -0.9635 -0.9892  1.1737
  165SAPE   O3118554   5.387   5.518   6.993  0.2258  0.0214 -0.4456
  165SAPE   C3118555   5.372   5.634   7.056 -0.7531  0.1391 -0.3640
  165SAPE   O3218556   5.348   5.744   7.012  0.4062  0.1189 -0.6091
  165SAPE   C3218557   5.420   5.607   7.199 -0.4981 -0.0253 -0.6863
  165SAPE   H2X18558   5.530   5.609   7.214 -0.2888 -0.7964 -2.0468
  165SAPE   H2Y18559   5.373   5.509   7.221 -2.7736  0.9995 -0.8158
  165SAPE   C2318560   5.873   5.332   6.970  0.2790 -0.0516 -0.3278
  165SAPE   H3R18561   5.946   5.407   6.935  0.5818  0.3864  1.2146
  165SAPE   H3S18562   5.929   5.243   7.004 -0.0040  0.0544  0.4470
  165SAPE   C2418563   5.778   5.400   7.074 -1.1260  0.0264 -0.1742
  165SAPE   H4R18564   5.685   5.340   7.071 -1.7980  0.8812  2.3069
  165SAPE   H4S18565   5.767   5.504   7.037 -0.3472 -0.2338 -1.2009
  165SAPE   C2518566   5.811   5.408   7.217  0.0230 -0.2399  0.7667
  165SAPE   H5R18567   5.912   5.447   7.239  0.3241 -0.3138 -0.4642
  165SAPE   C2618568   5.734   5.377   7.319 -0.1692 -0.3195 -0.2554
  165SAPE   H6R18569   5.783   5.383   7.417  3.3889  1.4588 -2.0259
  165SAPE   C2718570   5.593   5.323   7.313 -0.4423  0.3913  0.4192
  165SAPE   H7R18571   5.558   5.313   7.208 -1.1199  0.3723  0.6439
  165SAPE   H7S18572   5.519   5.400   7.346 -3.4452 -1.7539 -1.0801
  165SAPE   C2818573   5.607   5.194   7.396  0.2553 -0.2385 -0.4360
  165SAPE   H8R18574   5.681   5.123   7.356 -1.0605 -0.9996 -1.5502
  165SAPE   C2918575   5.562   5.178   7.521  0.1485  0.1190 -0.0715
  165SAPE   H9R18576   5.573   5.078   7.567 -0.9760  0.8797  1.9548
  165SAPE  C21018577   5.485   5.275   7.615 -0.4729 -0.3557  0.5332
  165SAPE  H10R18578   5.436   5.220   7.699 -0.0600  1.3884  1.9445
  165SAPE  H10S18579   5.395   5.321   7.569 -0.4723  1.6657  2.4716
  165SAPE  C21118580   5.575   5.387   7.660  0.1488  0.0573 -0.1279
  165SAPE  H11R18581   5.651   5.426   7.590 -0.1313 -0.0582 -0.5038
  165SAPE  C21218582   5.559   5.451   7.780  0.1500  0.9344  0.5472
  165SAPE  H12R18583   5.630   5.528   7.812  0.0487  1.2314  0.0650
  165SAPE  C21318584   5.453   5.420   7.878 -0.2669 -0.3756 -0.4608
  165SAPE  H13R18585   5.378   5.347   7.843 -0.5368  0.1803 -1.0427
  165SAPE  H13S18586   5.392   5.513   7.890 -0.8224 -0.3592 -3.2562
  165SAPE  C21418587   5.508   5.370   8.016  0.9177  0.2390 -0.0820
  165SAPE  H14R18588   5.530   5.262   8.026 -1.6938 -0.4790 -1.6247
  165SAPE  C21518589   5.551   5.452   8.116 -0.2932  0.0585  0.0795
  165SAPE  H15R18590   5.561   5.413   8.218 -1.2774 -0.1856  0.0900
  165SAPE  C21618591   5.545   5.599   8.108 -0.5018  0.8456  0.4648
  165SAPE  H16R18592   5.490   5.643   8.194  0.5639 -0.3425  1.7728
  165SAPE  H16S18593   5.490   5.642   8.021 -1.3325 -1.1698 -0.0429
  165SAPE  C21718594   5.683   5.659   8.093 -0.0704 -0.1442  0.0392
  165SAPE  H17R18595   5.675   5.758   8.043 -1.7772  0.1993  0.9684
  165SAPE  H17S18596   5.750   5.598   8.029 -0.2293  0.5144 -0.7737
  165SAPE  C21818597   5.766   5.671   8.224 -0.2219  0.7385  0.2089
  165SAPE  H18R18598   5.764   5.578   8.285  0.2700  1.6339  1.5951
  165SAPE  H18S18599   5.721   5.746   8.293 -0.1157  1.2666 -0.2899
  165SAPE  C21918600   5.918   5.712   8.214  0.6696 -0.2638  0.2729
  165SAPE  H19R18601   5.930   5.815   8.175  0.5366 -1.2060 -2.3640
  165SAPE  H19S18602   5.973   5.642   8.147 -1.5343  0.4580 -2.4111
  165SAPE  C22018603   5.987   5.700   8.352 -0.5138  0.4768 -0.0914
  165SAPE  H20R18604   6.088   5.744   8.340  0.2380 -0.4586  2.5095
  165SAPE  H20S18605   6.003   5.594   8.379  2.5038  1.1317  0.9215
  165SAPE  H20T18606   5.930   5.755   8.431 -1.9558 -1.5850  0.3313
  165SAPE   C3318607   5.359   5.709   7.291 -0.0501 -0.1729  0.3346
  165SAPE   H3X18608   5.249   5.715   7.273 -0.0658  0.2779  0.5937
  165SAPE   H3Y18609   5.406   5.808   7.272 -1.1687  0.0146 -1.6242
  165SAPE   C3418610   5.364   5.677   7.449 -0.2654  0.5436  0.3849
  165SAPE   H4X18611   5.469   5.699   7.478 -0.7309  2.2920  0.7818
  165SAPE   H4Y18612   5.350   5.568   7.463 -1.2426  0.2944 -2.2201
  165SAPE   C3518613   5.269   5.753   7.540  0.3368  0.9070 -0.2588
  165SAPE   H5X18614   5.166   5.724   7.511  0.4567  1.2077 -0.9973
  165SAPE   H5Y18615   5.278   5.864   7.531  1.0214  1.0037  1.3738
  165SAPE   C3618616   5.289   5.713   7.692  0.3224 -0.6186 -0.4916
  165SAPE   H6X18617   5.391   5.749   7.717  0.2185 -0.5416 -0.1805
  165SAPE   H6Y18618   5.301   5.603   7.699  0.6597 -0.4473  1.8544
  165SAPE   C3718619   5.185   5.770   7.784 -0.1866  0.0373 -0.4831
  165SAPE   H7X18620   5.086   5.729   7.756 -0.5107 -0.6732  1.6171
  165SAPE   H7Y18621   5.156   5.876   7.770 -0.5593  0.4555  2.9895
  165SAPE   C3818622   5.198   5.748   7.935  0.0824  0.1215  1.0764
  165SAPE   H8X18623   5.306   5.738   7.959  0.6224  1.5109 -0.7530
  165SAPE   H8Y18624   5.153   5.650   7.965 -0.6741  0.2041  0.2326
  165SAPE   C3918625   5.141   5.864   8.018 -0.6837 -0.1232 -0.6739
  165SAPE   H9X18626   5.034   5.875   7.991 -0.8951 -0.6731 -0.0514
  165SAPE   H9Y18627   5.197   5.959   8.005 -1.0702  0.2824  0.5722
  165SAPE  C31018628   5.134   5.839   8.170 -0.3460 -0.4238  0.3253
  165SAPE  H10X18629   5.060   5.756   8.178 -0.3664 -0.3398  0.9950
  165SAPE  H10Y18630   5.090   5.923   8.227 -2.0571  0.4645 -2.1813
  165SAPE  C31118631   5.265   5.796   8.232 -0.3921 -0.2638  0.4596
  165SAPE  H11X18632   5.363   5.842   8.207 -0.6369  0.5015  0.8835
  165SAPE  H11Y18633   5.285   5.690   8.204  0.8218 -0.7355  2.9426
  165SAPE  C31218634   5.250   5.790   8.387 -0.4128 -0.3776  0.0448
  165SAPE  H12X18635   5.153   5.735   8.384 -0.0207 -1.2315  1.9803
  165SAPE  H12Y18636   5.231   5.891   8.427  1.2732 -0.4814  1.1495
  165SAPE  C31318637   5.372   5.734   8.464 -0.0798 -0.3335  0.3728
  165SAPE  H13X18638   5.388   5.635   8.417 -3.5987 -0.8689  0.1349
  165SAPE  H13Y18639   5.350   5.721   8.572  1.3429 -0.3833  0.6641
  165SAPE  C31418640   5.503   5.818   8.442  0.1768 -0.1533  0.2517
  165SAPE  H14X18641   5.517   5.839   8.334 -0.6578  2.3592  0.5946
  165SAPE  H14Y18642   5.587   5.751   8.471  2.4330  2.0727 -0.8835
  165SAPE  C31518643   5.495   5.938   8.538  0.1040  0.2747 -1.2219
  165SAPE  H15X18644   5.424   5.908   8.619 -1.0009 -0.2833 -2.3773
  165SAPE  H15Y18645   5.445   6.024   8.490 -1.4978  0.7699  1.2426
  165SAPE  C31618646   5.625   5.970   8.603 -0.1718 -0.0784 -0.7130
  165SAPE  H16X18647   5.661   5.869   8.632  0.2995  0.9002  2.2606
  165SAPE  H16Y18648   5.608   6.025   8.698  0.9978 -1.6403  0.4127
  165SAPE  C31718649   5.725   6.054   8.519 -0.3486  0.2512  0.0497
  165SAPE  H17X18650   5.670   6.144   8.483 -0.4794  0.7182  1.3887
  165SAPE  H17Y18651   5.745   5.993   8.428 -1.6325 -0.2168  0.0596
  165SAPE  C31818652   5.861   6.095   8.589 -0.7337  0.6200  0.5484
  165SAPE  H18X18653   5.819   6.147   8.678  1.0081  2.3635  0.3934
  165SAPE  H18Y18654   5.916   6.174   8.533 -1.1263  0.0160 -0.7193
  165SAPE  H18Z18655   5.925   6.006   8.604  1.0042  1.7755  0.1696
  166SAPE     N18656   5.259   1.925   5.562 -0.4389 -0.7403  0.1022
  166SAPE   HN118657   5.215   1.971   5.644  2.0034  0.0035  1.0342
  166SAPE   HN218658   5.296   2.003   5.504 -0.4556  0.0854  1.1892
  166SAPE   HN318659   5.184   1.881   5.505 -0.9879  1.3084 -0.8112
  166SAPE   C1218660   5.372   1.828   5.592  0.1011  0.5114  0.2562
  166SAPE  H12A18661   5.432   1.873   5.674  1.2376  0.8659 -0.7601
  166SAPE  H12B18662   5.426   1.809   5.497  0.4110  2.7624 -0.0368
  166SAPE   C1118663   5.311   1.691   5.640  0.0236  0.7105  0.6066
  166SAPE  H11A18664   5.389   1.612   5.651  1.4034  1.2328 -4.0847
  166SAPE  H11B18665   5.247   1.649   5.559  1.6599  0.6385 -0.6857
  166SAPE     P18666   5.315   1.734   5.896  0.1475 -0.2428 -0.0172
  166SAPE   O1318667   5.432   1.641   5.913  0.2993 -0.1498  0.0237
  166SAPE   O1418668   5.346   1.878   5.903  0.0933  0.0975  0.3388
  166SAPE   O1218669   5.242   1.703   5.759  0.0594 -0.3597 -0.5254
  166SAPE   O1118670   5.193   1.697   5.997  0.5660  0.1013  0.5096
  166SAPE    C118671   5.131   1.568   6.016 -0.4800  0.9558 -0.2492
  166SAPE    HA18672   5.024   1.594   6.022 -1.0835 -1.5377  0.7998
  166SAPE    HB18673   5.154   1.494   5.936  0.6672  1.8920 -0.8095
  166SAPE    C218674   5.147   1.515   6.168 -0.3490 -0.0433 -0.8705
  166SAPE    HS18675   5.065   1.442   6.185  1.6681 -2.2072 -0.2229
  166SAPE   O2118676   5.139   1.630   6.264 -0.0134  0.0654 -0.7498
  166SAPE   C2118677   5.026   1.630   6.340  0.5079 -0.8302 -0.4910
  166SAPE   O2218678   4.936   1.553   6.333  0.0781  0.3064 -0.2606
  166SAPE   C2218679   5.033   1.737   6.446 -0.7299  0.4279 -0.0744
  166SAPE   H2R18680   5.135   1.764   6.480 -1.2571  2.1960  0.1107
  166SAPE   H2S18681   4.989   1.829   6.402  0.5205  0.5578 -1.0881
  166SAPE    C318682   5.285   1.440   6.183  0.8424 -0.4136 -0.2749
  166SAPE    HX18683   5.356   1.524   6.164 -1.8278  2.1960  0.9861
  166SAPE    HY18684   5.295   1.357   6.109 -1.4862  0.2276 -1.3500
  166SAPE   O3118685   5.285   1.389   6.322  0.0447 -0.0704 -0.1594
  166SAPE   C3118686   5.237   1.266   6.344  0.5336  0.5381 -0.0402
  166SAPE   O3218687   5.196   1.191   6.257  0.0975 -0.0355  0.3049
  166SAPE   C3218688   5.250   1.228   6.496 -0.3438 -0.4795  0.1097
  166SAPE   H2X18689   5.358   1.223   6.523 -0.3071  0.6581  0.1793
  166SAPE   H2Y18690   5.219   1.124   6.522 -1.5410  0.2615  1.7135
  166SAPE   C2318691   4.961   1.685   6.576  0.6606  0.5457 -0.3405
  166SAPE   H3R18692   4.985   1.578   6.593  3.1206  0.9753 -1.0011
  166SAPE   H3S18693   4.852   1.680   6.553  0.8164  2.1718 -1.5352
  166SAPE   C2418694   5.004   1.768   6.702  1.1062 -0.2220 -0.0650
  166SAPE   H4R18695   5.114   1.758   6.717  1.2982  3.0238  0.9976
  166SAPE   H4S18696   4.954   1.717   6.786  2.4911 -0.6228  0.5309
  166SAPE   C2518697   4.957   1.910   6.703 -0.2012 -0.0355 -0.3216
  166SAPE   H5R18698   4.997   1.968   6.619 -0.7694  0.3213 -0.3438
  166SAPE   C2618699   4.874   1.983   6.781  0.3744  0.5744 -0.5622
  166SAPE   H6R18700   4.855   2.086   6.746  1.4144  0.7447 -0.6469
  166SAPE   C2718701   4.790   1.941   6.901 -0.5462  0.6151 -0.3486
  166SAPE   H7R18702   4.826   1.847   6.949  0.8159  0.1235 -2.2853
  166SAPE   H7S18703   4.689   1.916   6.862  0.6352 -4.5989 -0.4448
  166SAPE   C2818704   4.800   2.051   7.006  0.1730 -0.1091  0.0271
  166SAPE   H8R18705   4.762   2.149   6.974 -0.5542  0.0791  1.4212
  166SAPE   C2918706   4.842   2.051   7.132 -0.2526  0.1186 -0.7668
  166SAPE   H9R18707   4.837   2.141   7.195 -2.0345 -0.3890 -0.1694
  166SAPE  C21018708   4.885   1.928   7.206  0.4045 -0.4149 -0.0188
  166SAPE  H10R18709   4.888   1.833   7.149 -0.1082  0.1203 -0.9612
  166SAPE  H10S18710   4.808   1.914   7.285  0.8668  1.2583  0.7406
  166SAPE  C21118711   5.020   1.944   7.267  0.9118 -0.2987 -0.3191
  166SAPE  H11R18712   5.098   1.955   7.190 -1.9219 -0.0763 -3.2070
  166SAPE  C21218713   5.049   1.977   7.391  0.2429  0.1803  0.0949
  166SAPE  H12R18714   5.150   2.010   7.419 -0.9825  2.6885  1.7248
  166SAPE  C21318715   4.947   1.981   7.506  0.4356 -0.0977 -0.5806
  166SAPE  H13R18716   4.855   1.922   7.487 -1.5423  3.0837 -1.3917
  166SAPE  H13S18717   4.913   2.087   7.513 -0.1208 -0.1533 -2.2852
  166SAPE  C21418718   5.000   1.932   7.641  0.0900  0.2522 -0.0234
  166SAPE  H14R18719   5.055   1.837   7.636  2.8645  1.8204 -0.2306
  166SAPE  C21518720   4.990   1.988   7.759  0.8539 -0.9213  0.2652
  166SAPE  H15R18721   5.043   1.935   7.839 -0.5498 -0.8109  1.2843
  166SAPE  C21618722   4.932   2.125   7.797 -0.7072  0.3998 -0.9027
  166SAPE  H16R18723   4.821   2.121   7.803 -0.5407 -2.3251  1.2661
  166SAPE  H16S18724   4.962   2.186   7.709  0.9361  2.5498  1.0738
  166SAPE  C21718725   4.995   2.171   7.927  0.2766  0.1084 -0.1212
  166SAPE  H17R18726   5.105   2.168   7.913  0.0601 -0.4499 -1.7343
  166SAPE  H17S18727   4.956   2.098   8.002  1.0308 -2.3823 -2.0884
  166SAPE  C21818728   4.938   2.303   7.958  0.1226 -0.2554 -0.5943
  166SAPE  H18R18729   4.828   2.287   7.958  0.0369  0.2933 -0.7880
  166SAPE  H18S18730   4.963   2.377   7.879  0.2035  1.2860  0.8430
  166SAPE  C21918731   4.959   2.359   8.109 -0.5343 -0.0325 -0.5186
  166SAPE  H19R18732   4.909   2.459   8.101 -3.6403 -1.4820 -0.0645
  166SAPE  H19S18733   5.069   2.361   8.117 -0.6016  1.3618  0.4167
  166SAPE  C22018734   4.896   2.280   8.220  0.1234 -0.3811 -0.0921
  166SAPE  H20R18735   4.787   2.268   8.204 -0.1083 -0.1318  1.2363
  166SAPE  H20S18736   4.924   2.323   8.318 -2.3527  1.3439 -0.1087
  166SAPE  H20T18737   4.935   2.176   8.213 -0.7171 -0.7314  0.3265
  166SAPE   C3318738   5.182   1.343   6.587 -0.3380  0.4888 -0.1812
  166SAPE   H3X18739   5.073   1.341   6.569 -0.4353 -0.0376  0.4523
  166SAPE   H3Y18740   5.214   1.448   6.565 -3.5723  1.8382  1.2272
  166SAPE   C3418741   5.190   1.314   6.743 -0.1940 -0.3325 -0.0121
  166SAPE   H4X18742   5.144   1.217   6.770  0.9162 -0.6926  0.6290
  166SAPE   H4Y18743   5.124   1.391   6.788  0.2643  0.6565 -0.9948
  166SAPE   C3518744   5.336   1.313   6.790  0.6949 -0.1701  0.0717
  166SAPE   H5X18745   5.376   1.414   6.765 -0.8908  0.7224  1.0245
  166SAPE   H5Y18746   5.401   1.234   6.746  2.4943  1.2755  0.0868
  166SAPE   C3618747   5.346   1.302   6.947  0.2252  0.3021  0.1815
  166SAPE   H6X18748   5.454   1.299   6.972  0.1182 -0.4180  0.5701
  166SAPE   H6Y18749   5.310   1.204   6.984  0.7397 -0.0832 -0.3443
  166SAPE   C3718750   5.280   1.406   7.037  0.1860  0.1469  0.7447
  166SAPE   H7X18751   5.170   1.402   7.023  0.3440 -0.8283 -0.2232
  166SAPE   H7Y18752   5.312   1.507   7.005 -1.4305 -0.1262 -1.8836
  166SAPE   C3818753   5.313   1.381   7.182 -0.2755 -0.3223  0.4015
  166SAPE   H8X18754   5.419   1.347   7.171  0.3065  1.2870  0.9412
  166SAPE   H8Y18755   5.247   1.297   7.214 -0.2519  0.3096  2.1698
  166SAPE   C3918756   5.286   1.496   7.272 -0.4412 -0.4216 -0.2322
  166SAPE   H9X18757   5.187   1.530   7.236 -0.6901 -0.0389  0.8001
  166SAPE   H9Y18758   5.372   1.566   7.272  1.7776 -3.0481 -0.5029
  166SAPE  C31018759   5.261   1.456   7.417  0.5715  0.6692  0.6009
  166SAPE  H10X18760   5.363   1.435   7.455  0.2966 -1.7259  0.1451
  166SAPE  H10Y18761   5.206   1.359   7.424 -1.6241  1.7981 -0.4378
  166SAPE  C31118762   5.195   1.577   7.489 -0.0719  0.5857 -0.4318
  166SAPE  H11X18763   5.112   1.616   7.428  0.9201  1.7375 -1.0588
  166SAPE  H11Y18764   5.271   1.658   7.497  1.5221 -0.9318  0.1648
  166SAPE  C31218765   5.131   1.539   7.627 -0.0770 -0.4873 -0.7336
  166SAPE  H12X18766   5.064   1.451   7.623 -0.4892 -0.1937 -0.3986
  166SAPE  H12Y18767   5.064   1.623   7.656  0.7194 -0.2931  0.6366
  166SAPE  C31318768   5.233   1.521   7.747  0.7968  0.5129 -0.4502
  166SAPE  H13X18769   5.282   1.620   7.760 -1.0923  1.3701  0.3059
  166SAPE  H13Y18770   5.313   1.444   7.741 -0.5318 -1.2048  2.6072
  166SAPE  C31418771   5.147   1.490   7.873  0.4969  0.1217 -0.6060
  166SAPE  H14X18772   5.101   1.388   7.873 -0.0882  0.3885  0.1537
  166SAPE  H14Y18773   5.063   1.562   7.864  1.1885  1.3212  2.3516
  166SAPE  C31518774   5.220   1.506   8.009 -0.0878 -0.4055 -0.2894
  166SAPE  H15X18775   5.308   1.440   8.024  0.9935  0.6246 -1.9055
  166SAPE  H15Y18776   5.153   1.493   8.096 -0.5308  0.8134 -0.4444
  166SAPE  C31618777   5.282   1.645   8.033 -0.1952  0.0457  0.1844
  166SAPE  H16X18778   5.203   1.723   8.031 -0.7610 -0.5391 -1.5627
  166SAPE  H16Y18779   5.352   1.675   7.951 -1.3993  1.7573 -0.2540
  166SAPE  C31718780   5.371   1.641   8.165  0.5717 -0.3391  0.0134
  166SAPE  H17X18781   5.449   1.720   8.168  0.4373 -0.2139  0.2737
  166SAPE  H17Y18782   5.422   1.543   8.174  1.0146 -0.0776  0.3788
  166SAPE  C31818783   5.290   1.675   8.283 -0.6432 -1.0234  0.2994
  166SAPE  H18X18784   5.255   1.780   8.270  2.1004 -0.2420 -1.3216
  166SAPE  H18Y18785   5.347   1.659   8.377  0.6685  2.1781  0.1145
  166SAPE  H18Z18786   5.209   1.599   8.284  0.0543 -1.8376 -1.8630
  167SAPE     N18787   6.380   0.813   6.238  0.2867  0.2143 -0.9047
  167SAPE   HN118788   6.437   0.890   6.198  1.4879  0.3598  1.0284
  167SAPE   HN218789   6.448   0.755   6.291  0.1574  0.8007 -0.0816
  167SAPE   HN318790   6.334   0.758   6.162  0.3250 -2.3703  0.8832
  167SAPE   C1218791   6.278   0.882   6.329  0.1290 -0.2605 -0.1666
  167SAPE  H12A18792   6.301   0.863   6.436  0.4349  1.1480  0.0216
  167SAPE  H12B18793   6.178   0.858   6.285  0.2193  1.2026 -1.1946
  167SAPE   C1118794   6.287   1.043   6.327  0.5422  0.1418 -0.0972
  167SAPE  H11A18795   6.202   1.078   6.389  0.2265  1.1281 -1.0686
  167SAPE  H11B18796   6.263   1.082   6.225 -1.4738 -0.5742  0.0690
  167SAPE     P18797   6.532   1.112   6.287 -0.5596 -0.0922  0.0423
  167SAPE   O1318798   6.538   1.015   6.173 -0.1211 -0.5350 -0.5413
  167SAPE   O1418799   6.558   1.255   6.256  0.2155  0.1355  0.0234
  167SAPE   O1218800   6.407   1.092   6.371  0.0545  0.3547  0.0357
  167SAPE   O1118801   6.645   1.069   6.396 -0.3027  0.0039  0.4402
  167SAPE    C118802   6.631   0.966   6.495  1.6827 -1.3089  0.4421
  167SAPE    HA18803   6.544   0.898   6.488 -1.5443  2.8546 -1.7881
  167SAPE    HB18804   6.728   0.913   6.490  1.4774 -1.4548 -3.9216
  167SAPE    C218805   6.628   1.020   6.646  0.2735  0.4874  0.7747
  167SAPE    HS18806   6.635   0.930   6.712  0.8375 -0.3834 -0.4391
  167SAPE   O2118807   6.507   1.095   6.678 -0.3397  0.6101 -0.1211
  167SAPE   C2118808   6.398   1.030   6.681  0.6068 -0.1802 -0.3582
  167SAPE   O2218809   6.396   0.907   6.673  0.2538 -0.5699 -0.0944
  167SAPE   C2218810   6.276   1.116   6.701 -0.6614 -0.2407  0.0200
  167SAPE   H2R18811   6.247   1.145   6.598  0.6680 -0.5403 -0.4335
  167SAPE   H2S18812   6.200   1.048   6.746 -2.4782 -0.0728 -2.6552
  167SAPE    C318813   6.749   1.112   6.667 -0.1911  0.4361 -0.2854
  167SAPE    HX18814   6.742   1.197   6.595  0.4070  0.5871 -0.1659
  167SAPE    HY18815   6.845   1.061   6.647 -0.4779  0.2460 -1.1801
  167SAPE   O3118816   6.753   1.154   6.806 -0.1407 -1.4012  0.5380
  167SAPE   C3118817   6.712   1.278   6.831 -0.9313  0.2130  0.2485
  167SAPE   O3218818   6.689   1.358   6.741  0.6115  0.2334 -0.6552
  167SAPE   C3218819   6.713   1.306   6.973 -0.8628  0.1983  0.2918
  167SAPE   H2X18820   6.613   1.277   7.011 -0.7202 -0.6754  0.0177
  167SAPE   H2Y18821   6.728   1.416   6.978 -2.2161  0.4886 -1.4232
  167SAPE   C2318822   6.301   1.250   6.779 -0.5804  0.2736 -0.0345
  167SAPE   H3R18823   6.203   1.301   6.764 -1.4986 -1.5929 -0.5705
  167SAPE   H3S18824   6.370   1.318   6.725 -0.5001 -0.4486 -0.8421
  167SAPE   C2418825   6.327   1.238   6.933 -0.1974 -0.1239 -0.0818
  167SAPE   H4R18826   6.421   1.179   6.943 -0.0727 -0.1870 -1.4974
  167SAPE   H4S18827   6.240   1.184   6.976 -1.0467  0.7731 -0.6678
  167SAPE   C2518828   6.346   1.370   7.000 -0.1701  0.5179  0.1803
  167SAPE   H5R18829   6.413   1.440   6.947  0.7651 -1.3640 -1.1494
  167SAPE   C2618830   6.294   1.409   7.123 -0.2078  0.3462  0.3677
  167SAPE   H6R18831   6.327   1.510   7.151 -0.7417  1.7296 -3.6813
  167SAPE   C2718832   6.206   1.328   7.214 -0.0156  0.1353 -0.0776
  167SAPE   H7R18833   6.138   1.262   7.156  0.6134  0.2486 -0.9509
  167SAPE   H7S18834   6.134   1.399   7.259 -1.0278 -0.5829 -0.5513
  167SAPE   C2818835   6.284   1.255   7.317 -0.0364 -0.0683 -0.2528
  167SAPE   H8R18836   6.356   1.176   7.291 -1.7573 -1.5466 -0.7185
  167SAPE   C2918837   6.272   1.284   7.449 -0.8613  0.0350 -0.6743
  167SAPE   H9R18838   6.315   1.207   7.515 -0.5075 -0.3158 -1.3128
  167SAPE  C21018839   6.205   1.395   7.532 -0.1870  0.2683 -0.1937
  167SAPE  H10R18840   6.139   1.336   7.599 -0.2186  0.7618  0.2124
  167SAPE  H10S18841   6.134   1.456   7.472 -1.0017 -0.1553  0.3257
  167SAPE  C21118842   6.301   1.475   7.616  0.6050  0.9254  0.3495
  167SAPE  H11R18843   6.378   1.523   7.554  1.3058 -1.1919 -0.4744
  167SAPE  C21218844   6.306   1.486   7.754 -0.1904  0.4153 -0.2833
  167SAPE  H12R18845   6.378   1.552   7.805  0.5695  0.5108 -1.4545
  167SAPE  C21318846   6.210   1.410   7.843  0.7823 -0.7373 -0.3323
  167SAPE  H13R18847   6.149   1.327   7.802 -0.7021  0.1320  0.0508
  167SAPE  H13S18848   6.125   1.480   7.861  0.3405 -0.1992 -4.0516
  167SAPE  C21418849   6.277   1.358   7.966  0.0546 -0.7642  0.3196
  167SAPE  H14R18850   6.350   1.279   7.944 -0.5389 -0.7462 -1.8376
  167SAPE  C21518851   6.273   1.414   8.091  0.2834  1.3143  0.0693
  167SAPE  H15R18852   6.318   1.356   8.173 -1.8835 -0.9237 -0.2672
  167SAPE  C21618853   6.190   1.528   8.143 -0.0794 -0.1567 -0.4975
  167SAPE  H16R18854   6.125   1.500   8.229 -0.0160  1.3389  0.0591
  167SAPE  H16S18855   6.124   1.560   8.060 -1.5141 -0.0560  0.6552
  167SAPE  C21718856   6.279   1.645   8.189 -0.3263 -0.0085 -0.2869
  167SAPE  H17R18857   6.341   1.680   8.103 -1.7209 -0.9694 -1.7176
  167SAPE  H17S18858   6.346   1.612   8.271 -0.7249  1.8793  0.8116
  167SAPE  C21818859   6.201   1.757   8.258  0.6657  0.3815  0.2675
  167SAPE  H18R18860   6.122   1.712   8.321 -0.6165  0.9309 -0.9332
  167SAPE  H18S18861   6.155   1.819   8.178 -1.8743 -1.1237  0.5290
  167SAPE  C21918862   6.302   1.847   8.337 -0.0452  0.0582 -0.1042
  167SAPE  H19R18863   6.257   1.946   8.361  0.8301 -0.0268  1.9974
  167SAPE  H19S18864   6.392   1.865   8.274 -1.1490 -0.8954 -1.9986
  167SAPE  C22018865   6.352   1.792   8.473  0.6272 -0.6435  0.6094
  167SAPE  H20R18866   6.376   1.875   8.543 -0.4477 -0.5518  0.8745
  167SAPE  H20S18867   6.435   1.718   8.463 -0.9843 -2.3679 -0.2130
  167SAPE  H20T18868   6.271   1.738   8.526  0.3371  1.4136  2.2972
  167SAPE   C3318869   6.834   1.248   7.061 -0.7776 -0.0824  0.0630
  167SAPE   H3X18870   6.928   1.294   7.022 -0.2574 -1.7652 -0.7005
  167SAPE   H3Y18871   6.833   1.141   7.033 -1.0710  0.1908 -1.0338
  167SAPE   C3418872   6.807   1.270   7.209 -0.1865 -0.7586  0.1133
  167SAPE   H4X18873   6.892   1.231   7.269 -1.7619  0.4703  3.3172
  167SAPE   H4Y18874   6.716   1.214   7.238  0.0130 -0.7701  0.7283
  167SAPE   C3518875   6.793   1.415   7.245  0.1363  0.1322 -0.2701
  167SAPE   H5X18876   6.702   1.457   7.198  0.2278 -0.5062 -1.0178
  167SAPE   H5Y18877   6.873   1.470   7.192  0.6930  1.0429  1.4796
  167SAPE   C3618878   6.792   1.437   7.396 -0.2769 -0.3242  0.6377
  167SAPE   H6X18879   6.780   1.548   7.401 -0.2986 -0.3266  0.6336
  167SAPE   H6Y18880   6.889   1.409   7.441  1.8031  1.9835 -2.1474
  167SAPE   C3718881   6.680   1.370   7.480  0.3462 -0.9181 -0.3022
  167SAPE   H7X18882   6.700   1.262   7.462  1.7254 -0.9200  1.1820
  167SAPE   H7Y18883   6.574   1.391   7.453  0.2722 -1.7171 -0.6347
  167SAPE   C3818884   6.692   1.406   7.630 -0.0529  0.1789  0.2690
  167SAPE   H8X18885   6.648   1.507   7.645  0.0108  0.4160 -1.0472
  167SAPE   H8Y18886   6.799   1.410   7.658  0.7359 -0.5441 -2.4975
  167SAPE   C3918887   6.621   1.304   7.724  0.4325  0.0241 -0.9293
  167SAPE   H9X18888   6.656   1.200   7.706 -1.9489 -0.8624 -0.6585
  167SAPE   H9Y18889   6.512   1.302   7.702  0.1745 -0.4376  0.3567
  167SAPE  C31018890   6.638   1.344   7.874  0.0067 -0.1198 -0.4204
  167SAPE  H10X18891   6.589   1.271   7.943 -1.8909 -1.2121 -2.8644
  167SAPE  H10Y18892   6.600   1.448   7.889  0.2157 -0.0506 -0.3755
  167SAPE  C31118893   6.782   1.337   7.922 -0.3824 -0.4854 -0.0460
  167SAPE  H11X18894   6.839   1.429   7.894  0.0234 -1.0033 -0.9265
  167SAPE  H11Y18895   6.840   1.255   7.874 -2.1333 -1.2903 -0.8019
  167SAPE  C31218896   6.785   1.325   8.072 -0.0202 -0.0809  0.1530
  167SAPE  H12X18897   6.892   1.336   8.100  0.3249  0.1138 -1.1810
  167SAPE  H12Y18898   6.746   1.229   8.112  1.5785 -0.9591 -0.3497
  167SAPE  C31318899   6.717   1.445   8.145  0.5197  0.2295  0.0061
  167SAPE  H13X18900   6.610   1.457   8.118  0.9961  0.7577 -1.6934
  167SAPE  H13Y18901   6.771   1.530   8.098 -0.6408 -0.1242 -2.0031
  167SAPE  C31418902   6.736   1.444   8.298 -0.3949  0.3522 -0.3465
  167SAPE  H14X18903   6.845   1.458   8.309 -0.1535 -1.1446 -0.6679
  167SAPE  H14Y18904   6.712   1.341   8.331  0.3375  0.2885  0.0004
  167SAPE  C31518905   6.670   1.549   8.379  0.5177 -0.5780 -0.2951
  167SAPE  H15X18906   6.563   1.524   8.370  0.7006  0.0121 -5.4331
  167SAPE  H15Y18907   6.691   1.650   8.336 -2.0015  0.2580  0.3350
  167SAPE  C31618908   6.712   1.532   8.529  0.4535  0.1926  0.2299
  167SAPE  H16X18909   6.728   1.424   8.551 -0.8966  0.1638  1.1153
  167SAPE  H16Y18910   6.621   1.551   8.591 -0.0021  0.6963 -0.5808
  167SAPE  C31718911   6.832   1.615   8.574 -0.0188  0.0074 -0.1697
  167SAPE  H17X18912   6.800   1.717   8.542  3.1685  1.5887  1.4714
  167SAPE  H17Y18913   6.923   1.594   8.514 -0.7873  1.4132 -1.8589
  167SAPE  C31818914   6.863   1.620   8.726  0.8952  0.6416  0.5887
  167SAPE  H18X18915   6.783   1.649   8.797 -0.0898  0.8758 -0.5887
  167SAPE  H18Y18916   6.957   1.673   8.752  2.2363 -1.9735  1.2669
  167SAPE  H18Z18917   6.891   1.516   8.754  0.0345  0.2831  0.1380
  168SAPE     N18918   1.056   3.634   6.509  0.7548  0.0794  0.1911
  168SAPE   HN118919   0.983   3.567   6.477 -1.9821  2.4992  1.2380
  168SAPE   HN218920   1.009   3.706   6.567 -2.2412 -0.7632 -1.0864
  168SAPE   HN318921   1.097   3.678   6.424  1.7603  1.3644  1.3341
  168SAPE   C1218922   1.156   3.561   6.588  0.1884  0.5279  0.8240
  168SAPE  H12A18923   1.115   3.513   6.679 -1.5534 -0.2111 -0.3253
  168SAPE  H12B18924   1.235   3.628   6.629  1.1325 -0.6448  0.9505
  168SAPE   C1118925   1.228   3.444   6.509 -0.4168  0.7105 -0.6059
  168SAPE  H11A18926   1.162   3.355   6.498 -2.2241  1.6931  1.7028
  168SAPE  H11B18927   1.314   3.414   6.572  0.3489  1.1841 -1.4166
  168SAPE     P18928   1.343   3.401   6.278 -0.0269  0.1588 -0.2724
  168SAPE   O1318929   1.249   3.342   6.182  0.4933  0.2116 -0.4352
  168SAPE   O1418930   1.457   3.484   6.218  0.0585  0.3243 -0.4018
  168SAPE   O1218931   1.262   3.489   6.378  0.1271 -0.0148 -0.0405
  168SAPE   O1118932   1.402   3.285   6.364 -0.0087  0.2357  0.2248
  168SAPE    C118933   1.534   3.287   6.416 -0.8669  0.2219  0.3087
  168SAPE    HA18934   1.604   3.316   6.335 -0.9815  2.3871  0.9659
  168SAPE    HB18935   1.549   3.380   6.475 -2.2709  0.4837  0.2733
  168SAPE    C218936   1.577   3.163   6.490 -0.2998  0.1255  0.5198
  168SAPE    HS18937   1.556   3.071   6.431 -0.1291 -2.2990  4.1376
  168SAPE   O2118938   1.506   3.153   6.608  0.1431 -0.5456 -0.3166
  168SAPE   C2118939   1.388   3.088   6.604 -0.7428  0.1123  0.1881
  168SAPE   O2218940   1.349   3.023   6.506 -0.0437 -0.8944 -0.0127
  168SAPE   C2218941   1.311   3.112   6.739 -0.0471  0.1574 -0.9934
  168SAPE   H2R18942   1.380   3.152   6.816 -1.2224 -3.3398  1.9815
  168SAPE   H2S18943   1.230   3.181   6.706 -0.4756 -0.1249 -0.5301
  168SAPE    C318944   1.733   3.162   6.508  0.3543 -0.1324 -0.1244
  168SAPE    HX18945   1.772   3.100   6.425 -0.5446 -1.6173  0.5443
  168SAPE    HY18946   1.740   3.100   6.600  1.8243  0.4985  0.2119
  168SAPE   O3118947   1.794   3.290   6.517  0.1262  0.1293  0.1077
  168SAPE   C3118948   1.823   3.328   6.638 -0.0559  0.1838 -1.0370
  168SAPE   O3218949   1.802   3.273   6.745  0.4654 -0.0217  0.1062
  168SAPE   C3218950   1.871   3.475   6.641 -0.7290  0.4802  0.2887
  168SAPE   H2X18951   1.950   3.499   6.567 -0.2445  0.9644  0.9503
  168SAPE   H2Y18952   1.909   3.484   6.746  2.6423 -1.3408 -0.7081
  168SAPE   C2318953   1.246   2.978   6.796  0.2618  0.5191  0.6776
  168SAPE   H3R18954   1.184   2.999   6.886  0.0841  0.3781  0.5888
  168SAPE   H3S18955   1.323   2.916   6.845  0.1698 -0.0299  0.1341
  168SAPE   C2418956   1.152   2.903   6.698  0.1581  0.1356 -0.3264
  168SAPE   H4R18957   1.105   2.833   6.770 -0.7792  1.1864  0.0912
  168SAPE   H4S18958   1.226   2.848   6.636 -0.2166 -2.2716  1.3013
  168SAPE   C2518959   1.058   2.989   6.628 -0.3432  0.4411 -1.2978
  168SAPE   H5R18960   1.097   3.035   6.536 -0.4004 -0.9041 -2.0071
  168SAPE   C2618961   0.939   3.031   6.674 -0.5077 -0.4002 -0.4491
  168SAPE   H6R18962   0.868   3.083   6.608  1.7173  1.1286 -1.7346
  168SAPE   C2718963   0.879   2.985   6.806  0.6534  0.2543  0.4551
  168SAPE   H7R18964   0.815   3.063   6.853  0.6924  1.0221 -0.7608
  168SAPE   H7S18965   0.948   2.978   6.893  2.0929  0.3022 -0.6667
  168SAPE   C2818966   0.813   2.846   6.797  0.1590 -0.6812 -0.3160
  168SAPE   H8R18967   0.865   2.786   6.720 -0.1773 -1.9481  0.4196
  168SAPE   C2918968   0.694   2.810   6.834  0.5921 -0.3516  0.3552
  168SAPE   H9R18969   0.669   2.702   6.836  0.8402 -0.5018 -2.1772
  168SAPE  C21018970   0.582   2.897   6.891 -0.4035  0.7851  0.4732
  168SAPE  H10R18971   0.495   2.894   6.821  0.0018  1.4984 -0.0684
  168SAPE  H10S18972   0.604   3.006   6.893  0.0539  0.7131 -0.7926
  168SAPE  C21118973   0.531   2.847   7.023  0.4893 -0.0719  0.6234
  168SAPE  H11R18974   0.587   2.760   7.059 -1.9201 -0.8429  2.6454
  168SAPE  C21218975   0.457   2.918   7.104 -0.7526 -0.6513  0.1367
  168SAPE  H12R18976   0.437   2.868   7.200 -0.7474  0.7367  0.8652
  168SAPE  C21318977   0.417   3.060   7.091  0.1629  0.1542  0.0115
  168SAPE  H13R18978   0.376   3.066   6.988 -0.2754 -1.7336  0.0613
  168SAPE  H13S18979   0.509   3.122   7.096  0.9502 -0.8158 -1.8018
  168SAPE  C21418980   0.307   3.102   7.183 -0.7497 -0.6453 -0.2319
  168SAPE  H14R18981   0.211   3.101   7.129 -0.6695 -0.7041 -0.3738
  168SAPE  C21518982   0.297   3.144   7.313  0.2591 -0.1877 -0.0561
  168SAPE  H15R18983   0.202   3.183   7.352  0.1614  0.3172 -0.7787
  168SAPE  C21618984   0.411   3.148   7.414  0.8324  0.3802  0.2531
  168SAPE  H16R18985   0.482   3.063   7.401  1.3525  0.5603  1.8569
  168SAPE  H16S18986   0.373   3.144   7.518  0.2594  0.6173  0.0540
  168SAPE  C21718987   0.497   3.285   7.404  0.3656 -0.3040  0.1596
  168SAPE  H17R18988   0.425   3.369   7.391 -0.4300 -0.6841  1.9467
  168SAPE  H17S18989   0.568   3.276   7.319  1.1485 -1.1737  0.8951
  168SAPE  C21818990   0.574   3.318   7.528  0.4093 -0.1853  0.6376
  168SAPE  H18R18991   0.648   3.238   7.552  3.3333  1.7392 -1.4939
  168SAPE  H18S18992   0.497   3.326   7.608  1.3773  0.3997  1.5410
  168SAPE  C21918993   0.637   3.460   7.529  0.3200 -0.5602  0.2433
  168SAPE  H19R18994   0.686   3.487   7.624  1.5793  3.2482 -1.4130
  168SAPE  H19S18995   0.561   3.540   7.526 -0.2306 -1.1110 -0.8806
  168SAPE  C22018996   0.714   3.501   7.402  0.1269 -0.4548 -0.7742
  168SAPE  H20R18997   0.805   3.441   7.384 -0.0236 -0.5706 -1.1558
  168SAPE  H20S18998   0.748   3.607   7.410 -0.5624 -0.3340  0.7108
  168SAPE  H20T18999   0.653   3.479   7.312 -0.2302 -0.8045 -0.4510
  168SAPE   C3319000   1.758   3.584   6.600 -0.1098 -0.4534  0.0971
  168SAPE   H3X19001   1.691   3.550   6.517 -0.6778 -1.7953  1.0987
  168SAPE   H3Y19002   1.804   3.680   6.568 -1.6282  0.0807 -0.5262
  168SAPE   C3419003   1.670   3.633   6.717 -1.2286 -0.7361  0.3730
  168SAPE   H4X19004   1.613   3.726   6.695  0.2365  0.1414  0.2362
  168SAPE   H4Y19005   1.722   3.665   6.810 -1.6048  2.0438 -0.3474
  168SAPE   C3519006   1.566   3.527   6.748  0.5788  0.1588  0.3220
  168SAPE   H5X19007   1.606   3.434   6.794 -1.8890 -1.4172 -0.6168
  168SAPE   H5Y19008   1.514   3.508   6.651 -2.2702 -0.4081  1.8830
  168SAPE   C3619009   1.458   3.574   6.845  0.1091 -0.6515 -0.4223
  168SAPE   H6X19010   1.411   3.654   6.783  0.8327 -1.3752 -1.9482
  168SAPE   H6Y19011   1.499   3.623   6.936 -2.7212  1.8439 -0.3876
  168SAPE   C3719012   1.352   3.472   6.889  0.3342  0.2699  0.6280
  168SAPE   H7X19013   1.398   3.410   6.968 -0.9097  1.7483  2.5515
  168SAPE   H7Y19014   1.320   3.415   6.799  0.5950  0.4758  0.4061
  168SAPE   C3819015   1.239   3.546   6.966 -0.4307  0.5944 -0.1829
  168SAPE   H8X19016   1.158   3.472   6.985 -0.3045  0.7376  0.9120
  168SAPE   H8Y19017   1.202   3.617   6.889 -0.4735  0.7189 -0.0482
  168SAPE   C3919018   1.289   3.613   7.092  0.2888 -0.0471 -0.1044
  168SAPE   H9X19019   1.350   3.701   7.060 -0.2225 -0.5730 -2.6176
  168SAPE   H9Y19020   1.347   3.545   7.157 -0.0294 -0.4147 -0.2025
  168SAPE  C31019021   1.179   3.684   7.174 -0.3142 -0.1674 -0.0315
  168SAPE  H10X19022   1.110   3.609   7.219  0.2695  0.0813  1.2937
  168SAPE  H10Y19023   1.115   3.748   7.110  0.6139  1.0083  0.1846
  168SAPE  C31119024   1.231   3.769   7.294 -0.0387  0.0517 -0.0649
  168SAPE  H11X19025   1.155   3.849   7.308 -0.0839 -0.2421  1.4358
  168SAPE  H11Y19026   1.321   3.829   7.268 -0.4522  0.9711  0.5855
  168SAPE  C31219027   1.243   3.687   7.420  0.2538  0.3192  0.5194
  168SAPE  H12X19028   1.319   3.609   7.397 -0.9143 -0.6574 -0.0783
  168SAPE  H12Y19029   1.154   3.626   7.444  1.0983 -0.3132  2.1439
  168SAPE  C31319030   1.293   3.767   7.543  0.0332 -0.4114  0.5396
  168SAPE  H13X19031   1.227   3.855   7.561  2.9100  1.2134  3.9029
  168SAPE  H13Y19032   1.395   3.804   7.518  0.3327 -0.8896  1.0530
  168SAPE  C31419033   1.280   3.663   7.657  0.1677 -0.6280 -0.1547
  168SAPE  H14X19034   1.357   3.586   7.637  1.1524  0.5179 -0.8069
  168SAPE  H14Y19035   1.175   3.626   7.662 -0.2445  0.6540  1.3647
  168SAPE  C31519036   1.300   3.733   7.793  0.8981  0.1692  0.3937
  168SAPE  H15X19037   1.238   3.825   7.799  2.1439  0.9667  1.1745
  168SAPE  H15Y19038   1.407   3.764   7.797  1.1925 -0.9142  1.1919
  168SAPE  C31619039   1.256   3.651   7.913 -0.3672 -0.3687 -0.6964
  168SAPE  H16X19040   1.316   3.558   7.919 -1.6914 -1.1929 -0.0511
  168SAPE  H16Y19041   1.148   3.628   7.912 -0.2247 -1.4251  2.6553
  168SAPE  C31719042   1.297   3.720   8.049  0.5905 -0.3793 -0.2183
  168SAPE  H17X19043   1.277   3.647   8.130 -0.3408  0.7764  0.6019
  168SAPE  H17Y19044   1.226   3.803   8.066 -1.6864 -2.7589  2.2152
  168SAPE  C31819045   1.443   3.760   8.048 -0.3502 -0.0541 -0.4836
  168SAPE  H18X19046   1.471   3.791   8.150 -0.4866 -1.8602  0.1280
  168SAPE  H18Y19047   1.463   3.842   7.976  0.4225 -0.4274 -0.6949
  168SAPE  H18Z19048   1.504   3.678   8.004 -0.4797  0.2912 -1.3295
  169SAPE     N19049   0.270   4.590   6.424  0.3094  0.0204 -0.0042
  169SAPE   HN119050   0.175   4.596   6.382 -0.0554 -0.5754  0.7126
  169SAPE   HN219051   0.333   4.646   6.364  0.1873 -2.0028 -2.0825
  169SAPE   HN319052   0.309   4.494   6.435 -0.2696 -0.0429  1.7727
  169SAPE   C1219053   0.258   4.638   6.565  0.2638 -0.4219  0.2968
  169SAPE  H12A19054   0.360   4.673   6.593 -0.2661  1.0460  0.4432
  169SAPE  H12B19055   0.230   4.555   6.633 -3.2662  0.9520  0.6063
  169SAPE   C1119056   0.152   4.754   6.576 -0.3737  0.3577 -0.3000
  169SAPE  H11A19057   0.148   4.793   6.680 -2.0737  0.2986 -0.3245
  169SAPE  H11B19058   0.055   4.706   6.553  0.9489 -2.2542 -0.5761
  169SAPE     P19059   0.062   4.955   6.434  0.6418 -0.1219 -0.2176
  169SAPE   O1319060   0.125   5.083   6.394  0.1217  0.2118  0.0459
  169SAPE   O1419061  -0.026   4.897   6.337  0.1486  0.1825 -0.1057
  169SAPE   O1219062   0.174   4.851   6.474 -0.4468  0.1727 -0.1519
  169SAPE   O1119063  -0.021   4.973   6.571 -0.6066 -0.9649 -0.5919
  169SAPE    C119064  -0.158   4.949   6.568  0.4480  0.6404 -0.3159
  169SAPE    HA19065  -0.215   5.030   6.518 -0.4548  1.5969  2.1517
  169SAPE    HB19066  -0.182   4.851   6.520 -0.4537  0.7904 -0.1873
  169SAPE    C219067  -0.233   4.919   6.701 -0.5082 -0.2531 -0.3478
  169SAPE    HS19068  -0.331   4.874   6.675  1.5189 -3.4994 -2.9582
  169SAPE   O2119069  -0.236   5.038   6.788 -0.6706  0.2047 -0.0529
  169SAPE   C2119070  -0.320   5.126   6.752 -0.3203  0.1030  0.2143
  169SAPE   O2219071  -0.420   5.108   6.681  0.1045 -1.4185  0.4043
  169SAPE   C2219072  -0.292   5.255   6.836  0.3271  0.0803 -0.2877
  169SAPE   H2R19073  -0.182   5.265   6.851  0.3438 -0.4971 -0.0299
  169SAPE   H2S19074  -0.310   5.342   6.769 -3.8459  1.1585  2.0914
  169SAPE    C319075  -0.163   4.809   6.784  0.3659 -0.4092 -0.1535
  169SAPE    HX19076  -0.063   4.852   6.807  0.1210 -0.5606  1.2223
  169SAPE    HY19077  -0.150   4.721   6.718  1.8331  0.1713 -0.6708
  169SAPE   O3119078  -0.234   4.779   6.908 -0.1519  0.3150  0.3255
  169SAPE   C3119079  -0.174   4.696   6.995  0.2749 -0.3664 -0.0516
  169SAPE   O3219080  -0.069   4.638   6.973 -0.2990 -0.4663 -0.2439
  169SAPE   C3219081  -0.256   4.679   7.125  0.5662  0.1813  0.0042
  169SAPE   H2X19082  -0.264   4.570   7.146  0.8083 -0.0873 -1.2434
  169SAPE   H2Y19083  -0.359   4.715   7.107  1.2149  0.8185 -2.5917
  169SAPE   C2319084  -0.365   5.271   6.971  0.3998 -0.0233 -0.0163
  169SAPE   H3R19085  -0.313   5.347   7.032 -0.3483  0.6187 -0.1740
  169SAPE   H3S19086  -0.348   5.185   7.040  1.2606  0.7743  0.7814
  169SAPE   C2419087  -0.515   5.295   6.961 -0.2954  0.0257 -0.0067
  169SAPE   H4R19088  -0.559   5.267   7.059  1.3910  0.5146  0.9065
  169SAPE   H4S19089  -0.570   5.232   6.888 -0.3060  1.3419 -1.1439
  169SAPE   C2519090  -0.560   5.434   6.916  0.0680  0.3787 -0.2770
  169SAPE   H5R19091  -0.584   5.442   6.809  0.4791 -3.0215 -0.6800
  169SAPE   C2619092  -0.604   5.535   6.989 -0.0810 -0.2807 -0.1526
  169SAPE   H6R19093  -0.612   5.624   6.925 -1.0176 -0.1539  0.1317
  169SAPE   C2719094  -0.604   5.538   7.140 -0.4927  0.0594  0.1426
  169SAPE   H7R19095  -0.582   5.440   7.186  1.1296  0.7272  0.8246
  169SAPE   H7S19096  -0.705   5.566   7.176 -0.9749 -1.9839  0.4345
  169SAPE   C2819097  -0.523   5.648   7.198 -0.1221 -0.1118  0.6445
  169SAPE   H8R19098  -0.449   5.699   7.134 -1.4296  0.4052 -0.4836
  169SAPE   C2919099  -0.519   5.676   7.330  0.6756  0.2487  0.4664
  169SAPE   H9R19100  -0.457   5.761   7.364  0.3091  0.0345  1.6977
  169SAPE  C21019101  -0.593   5.619   7.446  0.0916 -0.6709 -0.3217
  169SAPE  H10R19102  -0.643   5.525   7.411  2.1459 -1.8643 -0.0933
  169SAPE  H10S19103  -0.684   5.675   7.477  2.2267  1.3048  2.5547
  169SAPE  C21119104  -0.516   5.601   7.574 -0.2771  0.3539  0.1361
  169SAPE  H11R19105  -0.547   5.675   7.650  1.2537  0.6833  0.4395
  169SAPE  C21219106  -0.411   5.513   7.598  0.4639  0.7861 -0.1204
  169SAPE  H12R19107  -0.375   5.507   7.702 -0.2344  0.2187  0.0931
  169SAPE  C21319108  -0.340   5.419   7.502 -0.2106 -0.4286 -0.2210
  169SAPE  H13R19109  -0.345   5.452   7.396 -1.0513 -0.3821 -0.1712
  169SAPE  H13S19110  -0.406   5.330   7.507 -0.5558 -0.1940 -0.6091
  169SAPE  C21419111  -0.210   5.366   7.561  0.2088 -0.1922  0.1620
  169SAPE  H14R19112  -0.190   5.385   7.668 -4.4931 -0.6121  1.2205
  169SAPE  C21519113  -0.116   5.301   7.486 -0.0326 -0.6320  0.3624
  169SAPE  H15R19114  -0.028   5.250   7.526  0.4275  0.1565  0.3674
  169SAPE  C21619115  -0.136   5.292   7.336 -0.2160 -0.0660 -1.0461
  169SAPE  H16R19116  -0.111   5.393   7.297  0.0713 -0.0463 -0.8085
  169SAPE  H16S19117  -0.242   5.269   7.311 -0.8147 -0.0874  1.3115
  169SAPE  C21719118  -0.036   5.187   7.278 -0.0612  0.4408 -0.3323
  169SAPE  H17R19119  -0.071   5.083   7.294  0.6126  0.2269 -0.2334
  169SAPE  H17S19120   0.060   5.189   7.333 -0.3877  0.3849  0.2461
  169SAPE  C21819121  -0.009   5.194   7.125 -0.8535  0.1013  0.3728
  169SAPE  H18R19122   0.045   5.288   7.103 -1.7093  0.3042 -0.8959
  169SAPE  H18S19123  -0.109   5.201   7.077 -0.4658  0.2541 -0.4089
  169SAPE  C21919124   0.074   5.074   7.081 -0.0391  0.4479 -0.2731
  169SAPE  H19R19125   0.041   4.977   7.125  3.0471 -0.5541 -0.0423
  169SAPE  H19S19126   0.174   5.093   7.126 -0.4404  1.1758  0.3243
  169SAPE  C22019127   0.081   5.053   6.930  0.1468 -0.3729  0.1695
  169SAPE  H20R19128   0.152   4.970   6.908  1.6361  1.6793 -3.4070
  169SAPE  H20S19129   0.122   5.139   6.872 -0.1467 -0.0827  0.3996
  169SAPE  H20T19130  -0.021   5.032   6.893 -0.4526  1.4050  0.7464
  169SAPE   C3319131  -0.218   4.764   7.250  0.9466 -0.1094  0.0159
  169SAPE   H3X19132  -0.213   4.872   7.225  0.8732 -0.2361 -0.5511
  169SAPE   H3Y19133  -0.120   4.734   7.294  1.6804  1.0102 -0.8400
  169SAPE   C3419134  -0.320   4.739   7.362  0.6600  0.3025  0.5441
  169SAPE   H4X19135  -0.316   4.629   7.380 -1.9742 -0.5622 -3.4417
  169SAPE   H4Y19136  -0.419   4.778   7.331  0.0679 -2.2538 -0.9274
  169SAPE   C3519137  -0.290   4.808   7.494 -0.4488 -0.1524  0.2000
  169SAPE   H5X19138  -0.270   4.913   7.462 -1.4072 -0.2597 -0.8040
  169SAPE   H5Y19139  -0.206   4.768   7.554 -0.1425  0.3295  0.0957
  169SAPE   C3619140  -0.400   4.794   7.601 -0.1823  0.1279  0.4058
  169SAPE   H6X19141  -0.414   4.686   7.622 -0.3564  0.0490 -0.1189
  169SAPE   H6Y19142  -0.494   4.834   7.555  0.1255 -0.5648 -0.8479
  169SAPE   C3719143  -0.365   4.853   7.731  0.8689 -0.2365  0.9073
  169SAPE   H7X19144  -0.273   4.796   7.759  1.0152 -1.4005 -1.7868
  169SAPE   H7Y19145  -0.436   4.838   7.815  3.6711 -0.6136  3.2944
  169SAPE   C3819146  -0.343   5.007   7.730  0.1363 -0.3310  1.0740
  169SAPE   H8X19147  -0.439   5.063   7.721  0.7321  0.6957  0.9849
  169SAPE   H8Y19148  -0.281   5.048   7.648  0.6992 -1.6127  0.8584
  169SAPE   C3919149  -0.284   5.066   7.864 -0.4284 -0.5622  0.4268
  169SAPE   H9X19150  -0.282   5.175   7.843  0.6979 -0.6841 -0.0684
  169SAPE   H9Y19151  -0.179   5.030   7.867 -0.4346 -0.8781 -2.0247
  169SAPE  C31019152  -0.356   5.027   7.994 -0.9805  0.7024  1.1625
  169SAPE  H10X19153  -0.340   4.918   8.009  0.4805  1.0080  1.9368
  169SAPE  H10Y19154  -0.466   5.039   7.987 -1.0987  0.1940  2.0503
  169SAPE  C31119155  -0.314   5.103   8.120 -0.4765 -0.9936 -0.3998
  169SAPE  H11X19156  -0.329   5.212   8.110  0.8575 -0.6403  1.2563
  169SAPE  H11Y19157  -0.209   5.090   8.152 -0.8997 -1.7920  0.7550
  169SAPE  C31219158  -0.395   5.061   8.244  0.7190 -0.1245 -0.4320
  169SAPE  H12X19159  -0.422   4.953   8.248 -0.4639  0.2199  1.2828
  169SAPE  H12Y19160  -0.487   5.121   8.248  0.9320  0.1469  0.4864
  169SAPE  C31319161  -0.326   5.099   8.376 -0.4203 -0.2484  0.3853
  169SAPE  H13X19162  -0.320   5.208   8.395 -0.9547 -0.3863  1.3921
  169SAPE  H13Y19163  -0.221   5.066   8.359  0.5382  2.4254  0.8850
  169SAPE  C31419164  -0.397   5.037   8.496  0.3012  0.1211 -0.2717
  169SAPE  H14X19165  -0.361   4.932   8.492 -0.1120  0.0556 -2.7442
  169SAPE  H14Y19166  -0.508   5.042   8.489  0.4123  1.9604 -0.8110
  169SAPE  C31519167  -0.356   5.104   8.630  0.5048 -0.2078 -0.4318
  169SAPE  H15X19168  -0.396   5.207   8.638  0.1810 -0.4321  0.9164
  169SAPE  H15Y19169  -0.245   5.102   8.628  0.5162 -0.5041  0.3133
  169SAPE  C31619170  -0.386   5.012   8.748 -0.3460  0.2401  0.2905
  169SAPE  H16X19171  -0.361   4.906   8.727 -0.9954 -0.3376  2.3179
  169SAPE  H16Y19172  -0.495   5.001   8.765 -0.1200 -0.8443  1.0621
  169SAPE  C31719173  -0.322   5.055   8.886 -0.1555 -0.2981  0.8299
  169SAPE  H17X19174  -0.362   5.153   8.919  0.3771  0.0621  0.3941
  169SAPE  H17Y19175  -0.212   5.062   8.873 -0.1221 -0.8706  0.7807
  169SAPE  C31819176  -0.364   4.955   8.997  0.5370 -0.2157 -0.0192
  169SAPE  H18X19177  -0.331   5.003   9.092  1.8694 -1.3951  0.1293
  169SAPE  H18Y19178  -0.314   4.859   8.969 -1.3986 -0.9612 -0.9710
  169SAPE  H18Z19179  -0.473   4.943   9.010  0.3600 -0.2774 -1.4504
  170SAPE     N19180   0.182   2.451   6.220 -0.3394 -0.0088 -0.0272
  170SAPE   HN119181   0.223   2.515   6.292 -1.3651  1.2935 -0.5796
  170SAPE   HN219182   0.263   2.432   6.157 -0.2937  1.1988 -0.3515
  170SAPE   HN319183   0.111   2.501   6.163 -0.5698 -1.4327 -1.0047
  170SAPE   C1219184   0.124   2.326   6.283  0.3216  0.1497 -0.1314
  170SAPE  H12A19185   0.074   2.266   6.204 -0.1811  0.0298  0.2723
  170SAPE  H12B19186   0.041   2.367   6.344 -1.2615 -1.2277 -1.3066
  170SAPE   C1119187   0.230   2.264   6.371 -0.4612  0.7859  0.4151
  170SAPE  H11A19188   0.171   2.183   6.419 -0.7044  0.5379 -0.3129
  170SAPE  H11B19189   0.240   2.335   6.457  2.4565  0.8261  0.0842
  170SAPE     P19190   0.403   2.111   6.233 -0.0995 -0.0178 -0.1570
  170SAPE   O1319191   0.295   2.012   6.222 -0.1266  0.3092 -0.0397
  170SAPE   O1419192   0.462   2.160   6.103  0.1938 -0.3705 -0.2038
  170SAPE   O1219193   0.353   2.240   6.311 -0.5064 -0.3383 -0.3230
  170SAPE   O1119194   0.514   2.053   6.323 -0.1459  0.1807 -0.3462
  170SAPE    C119195   0.591   2.122   6.415 -0.5644  0.1979 -0.2826
  170SAPE    HA19196   0.691   2.074   6.420 -0.7557 -0.2731 -0.7612
  170SAPE    HB19197   0.624   2.222   6.380  1.0123 -0.4196 -0.5970
  170SAPE    C219198   0.526   2.128   6.554  0.7871 -0.0441 -0.6247
  170SAPE    HS19199   0.441   2.199   6.546  0.6928 -0.2658 -1.6948
  170SAPE   O2119200   0.627   2.154   6.657  0.5382  0.6108 -0.2067
  170SAPE   C2119201   0.682   2.274   6.644  0.3671 -0.3624  0.1802
  170SAPE   O2219202   0.643   2.366   6.570 -0.1709  0.0517 -0.4948
  170SAPE   C2219203   0.809   2.285   6.731 -0.0039  0.0838  0.4278
  170SAPE   H2R19204   0.768   2.252   6.829 -1.5837  0.4680 -0.0720
  170SAPE   H2S19205   0.877   2.211   6.684 -1.6629 -0.1584 -1.7158
  170SAPE    C319206   0.466   1.992   6.589  0.0096 -0.1777 -0.6735
  170SAPE    HX19207   0.535   1.929   6.649  0.9067  1.7782  0.4023
  170SAPE    HY19208   0.446   1.936   6.495 -0.2475 -2.4440  0.7027
  170SAPE   O3119209   0.340   2.011   6.660  0.2175  0.0573 -0.5169
  170SAPE   C3119210   0.347   2.035   6.791 -0.6659 -0.8632  0.0819
  170SAPE   O3219211   0.449   2.021   6.854 -0.0710  0.1309 -0.1009
  170SAPE   C3219212   0.223   2.108   6.844  0.3978 -0.1248  0.2161
  170SAPE   H2X19213   0.138   2.089   6.775 -1.6833 -0.3774  2.7657
  170SAPE   H2Y19214   0.253   2.215   6.844  1.0073 -0.2897  1.3460
  170SAPE   C2319215   0.850   2.427   6.734 -0.0792  0.0296 -0.4513
  170SAPE   H3R19216   0.766   2.490   6.769 -1.3269 -1.9608  0.2206
  170SAPE   H3S19217   0.885   2.461   6.634 -1.1020  1.4416 -0.3501
  170SAPE   C2419218   0.970   2.446   6.838  0.8109 -0.0841 -0.4890
  170SAPE   H4R19219   1.026   2.540   6.818  1.4553 -0.7107 -1.6756
  170SAPE   H4S19220   1.043   2.368   6.806 -0.1659  0.0830 -3.2279
  170SAPE   C2519221   0.919   2.436   6.985 -0.0124  0.1710  0.1331
  170SAPE   H5R19222   0.840   2.361   7.000 -0.4043  0.8603  1.5781
  170SAPE   C2619223   0.958   2.517   7.087  0.6259  0.0682  0.5656
  170SAPE   H6R19224   0.913   2.511   7.187 -0.1691  0.1551  0.2105
  170SAPE   C2719225   1.067   2.623   7.087  0.2052  0.6166  0.3084
  170SAPE   H7R19226   1.138   2.597   7.005 -0.6931 -1.3637  0.1375
  170SAPE   H7S19227   1.121   2.617   7.183 -0.0669 -1.0695  0.3644
  170SAPE   C2819228   1.014   2.761   7.070  0.7767  0.2684  0.7044
  170SAPE   H8R19229   1.033   2.811   6.974  2.8974 -0.4754  0.6992
  170SAPE   C2919230   0.952   2.834   7.162  0.6617  0.0018  0.2718
  170SAPE   H9R19231   0.913   2.932   7.133  1.1567  0.1814  0.2128
  170SAPE  C21019232   0.916   2.796   7.306 -0.1614 -0.5844  0.5482
  170SAPE  H10R19233   0.970   2.868   7.370 -1.2352  0.3772  0.3765
  170SAPE  H10S19234   0.965   2.700   7.334  2.2653  0.9776  1.8005
  170SAPE  C21119235   0.766   2.793   7.333 -0.5791 -0.8725 -0.7552
  170SAPE  H11R19236   0.700   2.767   7.249  2.1367 -0.9222 -2.9437
  170SAPE  C21219237   0.712   2.843   7.451 -0.4185  0.1539  0.3001
  170SAPE  H12R19238   0.603   2.843   7.462 -0.4299 -0.5121  0.1860
  170SAPE  C21319239   0.797   2.887   7.569 -0.1353  0.5509 -0.1936
  170SAPE  H13R19240   0.861   2.975   7.543  2.3187 -1.4171 -1.0800
  170SAPE  H13S19241   0.868   2.805   7.596  0.3970  0.7840 -0.8593
  170SAPE  C21419242   0.719   2.924   7.694 -0.3670 -0.4140  0.2830
  170SAPE  H14R19243   0.616   2.887   7.700 -0.0662 -1.3108  0.1282
  170SAPE  C21519244   0.765   2.997   7.804  0.1509 -0.6098 -0.5010
  170SAPE  H15R19245   0.703   3.011   7.893 -1.5158 -0.7155 -1.6242
  170SAPE  C21619246   0.898   3.061   7.828 -0.3648  0.5371 -0.2278
  170SAPE  H16R19247   0.979   3.023   7.761 -1.1552  0.5749 -1.2143
  170SAPE  H16S19248   0.945   3.040   7.927 -0.0648 -2.0027 -0.8672
  170SAPE  C21719249   0.892   3.212   7.793 -0.0054  0.9447  0.0293
  170SAPE  H17R19250   0.862   3.227   7.687  0.3284 -3.5199 -0.7772
  170SAPE  H17S19251   0.997   3.250   7.792  0.1416  0.5297 -0.4572
  170SAPE  C21819252   0.792   3.277   7.882 -0.7158  0.4851 -0.5261
  170SAPE  H18R19253   0.820   3.250   7.986  0.4958  0.7167 -0.7827
  170SAPE  H18S19254   0.692   3.242   7.848 -1.3560  1.4216  0.3705
  170SAPE  C21919255   0.785   3.431   7.870  0.1837  0.0573 -0.1477
  170SAPE  H19R19256   0.819   3.459   7.768 -0.1425 -0.7121 -0.4779
  170SAPE  H19S19257   0.859   3.488   7.930  0.6854  0.6617 -1.3286
  170SAPE  C22019258   0.645   3.484   7.895 -0.0814 -0.7096  0.2878
  170SAPE  H20R19259   0.642   3.595   7.893  0.4349 -0.6692  1.4529
  170SAPE  H20S19260   0.607   3.434   7.987  0.1814 -0.4106  0.5599
  170SAPE  H20T19261   0.584   3.438   7.814  0.4764 -1.1131  0.0940
  170SAPE   C3319262   0.198   2.080   6.995 -0.0782  0.1266  0.6012
  170SAPE   H3X19263   0.290   2.074   7.057 -0.3820  1.8672  1.2459
  170SAPE   H3Y19264   0.150   1.980   6.998  0.4475 -0.1122  1.3320
  170SAPE   C3419265   0.089   2.179   7.048 -0.0646 -0.7791 -0.4179
  170SAPE   H4X19266  -0.009   2.145   7.008 -0.9906 -0.0204  1.1372
  170SAPE   H4Y19267   0.106   2.283   7.015  1.2414 -0.3695  1.4446
  170SAPE   C3519268   0.060   2.179   7.203 -0.2842  0.1764  0.6841
  170SAPE   H5X19269   0.030   2.077   7.237 -0.4296 -0.9686 -2.6948
  170SAPE   H5Y19270  -0.023   2.245   7.237 -0.0113  0.7430  0.2599
  170SAPE   C3619271   0.177   2.233   7.289  0.7610 -0.1650 -0.2947
  170SAPE   H6X19272   0.165   2.342   7.273 -1.2185 -0.3870 -0.4962
  170SAPE   H6Y19273   0.278   2.205   7.252  1.8341  0.4440  2.0761
  170SAPE   C3719274   0.154   2.196   7.438 -0.2101 -0.1628 -0.0133
  170SAPE   H7X19275   0.158   2.087   7.457 -1.8062  0.0334  1.6460
  170SAPE   H7Y19276   0.050   2.219   7.471 -0.2068  0.6094 -0.5317
  170SAPE   C3819277   0.260   2.256   7.531 -0.4466  0.0621  0.5732
  170SAPE   H8X19278   0.258   2.366   7.518  1.9067 -0.1637 -2.0894
  170SAPE   H8Y19279   0.359   2.220   7.494 -0.7105 -2.0436  1.8225
  170SAPE   C3919280   0.253   2.210   7.673  0.9622  0.3664 -0.6906
  170SAPE   H9X19281   0.283   2.104   7.683  0.5134  0.3366  0.4305
  170SAPE   H9Y19282   0.148   2.211   7.707  1.3493  0.2589  0.5314
  170SAPE  C31019283   0.322   2.298   7.781 -0.6225 -0.8351 -0.1018
  170SAPE  H10X19284   0.276   2.400   7.786 -2.9200 -1.6877 -2.5780
  170SAPE  H10Y19285   0.428   2.322   7.759 -0.5121  0.5605  1.7311
  170SAPE  C31119286   0.304   2.234   7.928 -0.1361 -0.0165  0.1729
  170SAPE  H11X19287   0.314   2.126   7.906  0.9394  0.1166  0.0065
  170SAPE  H11Y19288   0.200   2.257   7.961  0.6064 -0.7796  3.1931
  170SAPE  C31219289   0.406   2.289   8.027 -0.0960 -0.2296 -0.7746
  170SAPE  H12X19290   0.371   2.394   8.031  1.6986  0.6553 -5.2419
  170SAPE  H12Y19291   0.508   2.288   7.983  1.2361 -0.4946  2.1603
  170SAPE  C31319292   0.407   2.220   8.161 -0.4717  0.5749 -0.7240
  170SAPE  H13X19293   0.312   2.170   8.189  0.1718 -1.0854 -1.4277
  170SAPE  H13Y19294   0.423   2.305   8.230  0.5305 -0.3823  0.2416
  170SAPE  C31419295   0.516   2.114   8.186  0.6171  0.7594 -0.6021
  170SAPE  H14X19296   0.620   2.153   8.186  1.6483 -1.8527  0.7536
  170SAPE  H14Y19297   0.509   2.034   8.109 -2.8906 -0.3666  0.7888
  170SAPE  C31519298   0.509   2.052   8.328  0.6078 -0.2143  0.3726
  170SAPE  H15X19299   0.595   1.984   8.343  0.7230 -0.4026 -1.0493
  170SAPE  H15Y19300   0.417   1.996   8.355  0.8278 -0.3496  0.8520
  170SAPE  C31619301   0.521   2.159   8.439 -0.3750  0.2116  0.0812
  170SAPE  H16X19302   0.428   2.220   8.447 -0.8521 -0.8670  3.6004
  170SAPE  H16Y19303   0.588   2.239   8.400 -1.5188  0.7916 -0.7466
  170SAPE  C31719304   0.576   2.104   8.574  0.6488 -0.0895 -0.9476
  170SAPE  H17X19305   0.686   2.104   8.562  0.4587 -0.2954 -2.7880
  170SAPE  H17Y19306   0.532   2.003   8.589  2.7808 -1.2401 -2.1257
  170SAPE  C31819307   0.540   2.190   8.700 -0.0618 -0.0828  0.5139
  170SAPE  H18X19308   0.568   2.296   8.685  2.8317 -0.8156  0.5477
  170SAPE  H18Y19309   0.584   2.151   8.794 -0.1189 -0.9101  0.2074
  170SAPE  H18Z19310   0.430   2.186   8.719 -0.1772  0.5051 -0.0135
  171SAPE     N19311   2.135   2.541   5.809 -0.0486 -0.3656 -0.1747
  171SAPE   HN119312   2.164   2.504   5.717  1.1481 -1.6446  0.6928
  171SAPE   HN219313   2.182   2.499   5.892  0.1189  0.2339  0.0417
  171SAPE   HN319314   2.034   2.544   5.833  0.0600 -1.3552  0.4221
  171SAPE   C1219315   2.167   2.692   5.816 -0.3328 -0.1579  0.0313
  171SAPE  H12A19316   2.097   2.741   5.746 -1.3346  0.2558  1.3149
  171SAPE  H12B19317   2.270   2.691   5.773 -0.3186 -1.8569  0.0429
  171SAPE   C1119318   2.154   2.746   5.956 -0.8194  0.4321 -0.2407
  171SAPE  H11A19319   2.049   2.732   5.988  0.1007 -0.1019  2.6860
  171SAPE  H11B19320   2.168   2.855   5.975 -2.3765  0.3487  1.5374
  171SAPE     P19321   2.381   2.736   6.081 -0.0690  0.3230 -0.3975
  171SAPE   O1319322   2.476   2.625   6.126 -0.8407  0.2623  0.1813
  171SAPE   O1419323   2.419   2.825   5.971  0.1253  0.2293 -0.1534
  171SAPE   O1219324   2.239   2.669   6.042 -0.4376 -0.5980 -1.2208
  171SAPE   O1119325   2.341   2.817   6.212  0.4978 -0.9430  0.0240
  171SAPE    C119326   2.210   2.853   6.248  0.2551  0.2166  0.0673
  171SAPE    HA19327   2.174   2.933   6.179  1.4168  0.3517 -0.3973
  171SAPE    HB19328   2.143   2.765   6.248 -0.3558  0.6718  1.5993
  171SAPE    C219329   2.192   2.914   6.390  0.0341  0.3330 -0.4140
  171SAPE    HS19330   2.084   2.902   6.413 -0.4395 -1.3116 -3.2707
  171SAPE   O2119331   2.234   3.053   6.402  0.0062 -0.1190 -0.1618
  171SAPE   C2119332   2.157   3.127   6.487  0.2493 -0.0123  0.1380
  171SAPE   O2219333   2.045   3.099   6.520  0.2103  0.4256 -0.4184
  171SAPE   C2219334   2.229   3.256   6.522 -0.5627 -0.0760 -0.6680
  171SAPE   H2R19335   2.311   3.271   6.449 -0.3194  0.9812 -0.1834
  171SAPE   H2S19336   2.153   3.337   6.529  3.4574  3.7360  1.0103
  171SAPE    C319337   2.264   2.815   6.495 -0.0098  1.1940  0.1089
  171SAPE    HX19338   2.367   2.818   6.455 -0.8892 -1.5622 -2.5449
  171SAPE    HY19339   2.223   2.712   6.486  2.5037  0.0216  1.5267
  171SAPE   O3119340   2.257   2.864   6.629  0.3729 -0.4024  0.2217
  171SAPE   C3119341   2.165   2.818   6.708  0.2088  0.4989 -0.0544
  171SAPE   O3219342   2.073   2.746   6.683 -0.5027 -0.1396 -0.3108
  171SAPE   C3219343   2.218   2.858   6.843 -0.4602 -0.6076 -0.7697
  171SAPE   H2X19344   2.263   2.958   6.829  0.1444 -0.8478 -0.5384
  171SAPE   H2Y19345   2.307   2.793   6.856  0.2418  0.2889 -1.0986
  171SAPE   C2319346   2.309   3.259   6.653 -0.1165  0.3883  0.3941
  171SAPE   H3R19347   2.390   3.335   6.648 -0.6158  0.8186 -1.7024
  171SAPE   H3S19348   2.351   3.161   6.682 -0.3923 -0.0742 -0.7575
  171SAPE   C2419349   2.236   3.327   6.768 -0.2037 -0.3075  0.2770
  171SAPE   H4R19350   2.202   3.424   6.727 -2.7027 -1.0579  0.4987
  171SAPE   H4S19351   2.313   3.360   6.841  0.2536 -0.9058  0.0730
  171SAPE   C2519352   2.126   3.238   6.831  0.1112 -0.3008 -0.6844
  171SAPE   H5R19353   2.053   3.198   6.759  0.0711 -0.8626 -0.3300
  171SAPE   C2619354   2.111   3.214   6.961 -0.4013 -0.6054  0.0245
  171SAPE   H6R19355   2.024   3.151   6.986 -1.2607  0.0271 -1.3108
  171SAPE   C2719356   2.194   3.276   7.069 -0.3618  0.6835 -0.4976
  171SAPE   H7R19357   2.207   3.383   7.043  0.5137  1.4363  2.7426
  171SAPE   H7S19358   2.295   3.231   7.058 -1.1556 -1.0637 -0.7718
  171SAPE   C2819359   2.121   3.275   7.203  0.4849 -0.9834 -0.0793
  171SAPE   H8R19360   2.012   3.272   7.189  0.7394 -2.0689 -2.0323
  171SAPE   C2919361   2.174   3.270   7.327  0.3034 -0.6181 -0.0125
  171SAPE   H9R19362   2.119   3.268   7.422 -1.0488 -3.0050 -0.8198
  171SAPE  C21019363   2.320   3.273   7.357  0.4409  0.2109 -0.3891
  171SAPE  H10R19364   2.349   3.361   7.418  0.8190 -0.2947  0.1700
  171SAPE  H10S19365   2.378   3.291   7.263 -0.1485 -1.0992 -1.0128
  171SAPE  C21119366   2.349   3.135   7.425 -0.7300  0.0046  0.5292
  171SAPE  H11R19367   2.358   3.051   7.355  0.1035  0.2642  0.3178
  171SAPE  C21219368   2.364   3.119   7.559  0.6086  0.6444 -1.1118
  171SAPE  H12R19369   2.360   3.020   7.607  1.5332  1.0856 -0.1043
  171SAPE  C21319370   2.358   3.235   7.656 -0.5840  0.0472 -0.2002
  171SAPE  H13R19371   2.257   3.227   7.701 -0.2726 -0.1546  0.4654
  171SAPE  H13S19372   2.351   3.332   7.603 -1.8505 -0.2113 -0.5284
  171SAPE  C21419373   2.465   3.239   7.758 -0.0545  0.0432  0.1429
  171SAPE  H14R19374   2.565   3.247   7.713 -0.2769  0.8667 -0.2258
  171SAPE  C21519375   2.455   3.207   7.887 -0.5237  0.1648  1.2962
  171SAPE  H15R19376   2.545   3.207   7.951  0.8073  0.4372 -0.5592
  171SAPE  C21619377   2.339   3.149   7.961 -0.0989 -0.1512 -0.7546
  171SAPE  H16R19378   2.368   3.082   8.045 -3.2441  1.0471  1.4042
  171SAPE  H16S19379   2.273   3.092   7.892  1.6630  0.3463 -2.8834
  171SAPE  C21719380   2.252   3.264   8.018  0.4079 -0.2732 -0.8609
  171SAPE  H17R19381   2.209   3.329   7.939 -1.6842  3.6163  3.2525
  171SAPE  H17S19382   2.306   3.320   8.097 -1.8852 -0.5065  0.9530
  171SAPE  C21819383   2.121   3.210   8.085 -0.3020 -0.0626 -0.6310
  171SAPE  H18R19384   2.078   3.117   8.042 -2.3563  0.0474  1.1336
  171SAPE  H18S19385   2.041   3.286   8.083 -0.7174 -0.4889 -0.2531
  171SAPE  C21919386   2.146   3.189   8.238  0.1495 -0.0115 -0.0893
  171SAPE  H19R19387   2.195   3.275   8.288 -0.6227  0.6325 -0.4420
  171SAPE  H19S19388   2.212   3.101   8.253 -0.1603 -0.0855  0.8689
  171SAPE  C22019389   2.025   3.152   8.324  0.4943  1.0548  0.0233
  171SAPE  H20R19390   2.057   3.160   8.430  0.4814  1.3623  0.0051
  171SAPE  H20S19391   1.999   3.046   8.302  3.0350  0.7922 -2.0874
  171SAPE  H20T19392   1.937   3.217   8.305 -3.1892 -3.2516  1.5558
  171SAPE   C3319393   2.119   2.861   6.961 -0.1989 -0.2143  0.5343
  171SAPE   H3X19394   2.037   2.932   6.936 -0.6479 -1.3051 -1.1409
  171SAPE   H3Y19395   2.173   2.916   7.042  0.3546  0.9938 -0.6418
  171SAPE   C3419396   2.075   2.716   6.993  0.2417 -0.7960  0.3373
  171SAPE   H4X19397   2.163   2.651   6.972  0.0775 -1.1303  0.6941
  171SAPE   H4Y19398   2.000   2.691   6.916 -0.1420 -1.1797  0.8367
  171SAPE   C3519399   2.012   2.687   7.127 -0.0629 -0.1466 -0.1149
  171SAPE   H5X19400   1.966   2.586   7.129 -0.0256 -0.1477  0.9715
  171SAPE   H5Y19401   1.930   2.761   7.137  1.4196  1.4678  0.5272
  171SAPE   C3619402   2.109   2.696   7.247 -0.1172  0.0064  0.0759
  171SAPE   H6X19403   2.152   2.798   7.243 -1.7660  0.6209 -3.9262
  171SAPE   H6Y19404   2.198   2.630   7.236 -0.0647  0.0818  0.0500
  171SAPE   C3719405   2.045   2.626   7.368 -0.5957 -0.3622  0.3067
  171SAPE   H7X19406   2.055   2.516   7.367 -0.0411 -0.3139 -0.4576
  171SAPE   H7Y19407   1.939   2.657   7.359 -0.2234  0.1385 -3.2572
  171SAPE   C3819408   2.102   2.686   7.495  0.5306 -0.1864  1.0658
  171SAPE   H8X19409   2.085   2.794   7.513  0.1375  0.3214 -2.0960
  171SAPE   H8Y19410   2.212   2.673   7.491  0.2522 -2.3357 -4.0515
  171SAPE   C3919411   2.048   2.624   7.624 -0.1172  0.2700  0.7698
  171SAPE   H9X19412   2.079   2.518   7.637  0.7486  0.4183 -0.0207
  171SAPE   H9Y19413   1.937   2.623   7.624 -0.1533  1.5985 -1.0072
  171SAPE  C31019414   2.084   2.695   7.753 -0.6543  0.4914 -0.3368
  171SAPE  H10X19415   2.044   2.799   7.755  0.2399  0.8447 -0.2930
  171SAPE  H10Y19416   2.193   2.720   7.752 -0.1419 -1.7163 -0.9159
  171SAPE  C31119417   2.055   2.607   7.877  0.3543 -0.1484 -0.2125
  171SAPE  H11X19418   2.107   2.511   7.855  1.8412  0.6014 -0.0036
  171SAPE  H11Y19419   1.944   2.598   7.879  0.2930 -0.3404 -2.5501
  171SAPE  C31219420   2.106   2.658   8.009 -0.0668 -0.0501 -0.0764
  171SAPE  H12X19421   2.097   2.768   8.023 -1.6455 -0.3606  1.5561
  171SAPE  H12Y19422   2.215   2.636   8.007  0.2128  1.1799  0.9603
  171SAPE  C31319423   2.018   2.600   8.121  0.1504 -0.1581 -0.1389
  171SAPE  H13X19424   2.008   2.490   8.105 -3.2982  0.1021 -0.0601
  171SAPE  H13Y19425   1.917   2.644   8.107  0.0999  0.1599  1.2307
  171SAPE  C31419426   2.084   2.616   8.256 -0.4401 -0.3305 -0.0201
  171SAPE  H14X19427   2.008   2.582   8.329 -1.4064 -0.3375 -1.0219
  171SAPE  H14Y19428   2.108   2.724   8.266  1.4268 -0.6478 -0.7156
  171SAPE  C31519429   2.209   2.529   8.282  0.1199  0.3776 -0.2989
  171SAPE  H15X19430   2.295   2.575   8.230  0.4648  1.7186  1.4033
  171SAPE  H15Y19431   2.193   2.436   8.224  0.4663  0.9290 -1.2887
  171SAPE  C31619432   2.231   2.494   8.425  0.0815 -0.2812  0.0249
  171SAPE  H16X19433   2.134   2.458   8.465  0.9572 -0.5033  2.0263
  171SAPE  H16Y19434   2.264   2.582   8.485  0.5073 -2.2522  2.7690
  171SAPE  C31719435   2.333   2.385   8.452  0.0126  0.4728 -0.0285
  171SAPE  H17X19436   2.345   2.381   8.562 -1.8878 -1.1195  0.1410
  171SAPE  H17Y19437   2.431   2.428   8.421  0.7531 -1.4939 -0.5020
  171SAPE  C31819438   2.309   2.244   8.389  0.3747 -0.2991 -0.2760
  171SAPE  H18X19439   2.206   2.217   8.421  0.5962  1.2478  1.8192
  171SAPE  H18Y19440   2.395   2.178   8.417 -0.0389 -0.9526 -0.5246
  171SAPE  H18Z19441   2.306   2.253   8.278 -0.0639  1.4501 -0.1369
  172SAPE     N19442   2.347   1.726   6.093  0.0457 -0.2157  0.1031
  172SAPE   HN119443   2.418   1.791   6.054  1.7761 -0.9517  1.9524
  172SAPE   HN219444   2.376   1.627   6.083  0.2774 -0.0191 -1.2173
  172SAPE   HN319445   2.261   1.741   6.036 -0.1317  0.1873  0.4701
  172SAPE   C1219446   2.323   1.759   6.233 -0.5078 -0.0789 -0.1931
  172SAPE  H12A19447   2.298   1.867   6.234 -0.2221 -0.0119 -0.5853
  172SAPE  H12B19448   2.416   1.735   6.289 -0.1857 -0.0099 -0.7054
  172SAPE   C1119449   2.201   1.682   6.288 -0.6711 -0.7904 -0.3409
  172SAPE  H11A19450   2.170   1.738   6.379  0.3174  1.5890 -1.4255
  172SAPE  H11B19451   2.235   1.580   6.317  1.5413  0.1387  0.4797
  172SAPE     P19452   1.970   1.587   6.247  0.0164 -0.1649 -0.5205
  172SAPE   O1319453   1.852   1.642   6.173 -0.8458  0.0969  0.1894
  172SAPE   O1419454   2.005   1.443   6.248  0.2326 -0.6432 -0.4798
  172SAPE   O1219455   2.091   1.675   6.202 -0.5496 -0.4959  0.9345
  172SAPE   O1119456   1.943   1.632   6.396 -0.2198 -0.1350 -0.8306
  172SAPE    C119457   1.861   1.739   6.431  1.2380  0.4150  0.6319
  172SAPE    HA19458   1.901   1.841   6.418 -0.1486  0.9488  0.5037
  172SAPE    HB19459   1.765   1.742   6.376  1.3969 -1.1462  0.2389
  172SAPE    C219460   1.819   1.726   6.580  0.4525  0.2235  0.5928
  172SAPE    HS19461   1.733   1.793   6.601  0.1423  0.1276 -0.3286
  172SAPE   O2119462   1.938   1.764   6.663 -0.3113  0.1551 -0.1807
  172SAPE   C2119463   1.905   1.793   6.776  0.4053  0.1661 -0.4172
  172SAPE   O2219464   1.796   1.825   6.820 -0.0496 -0.5447  0.7110
  172SAPE   C2219465   2.025   1.806   6.868 -0.3120 -0.4296 -0.5024
  172SAPE   H2R19466   2.109   1.753   6.818  1.1257  1.1662  0.1198
  172SAPE   H2S19467   2.059   1.912   6.873  1.5603 -1.0596  0.5352
  172SAPE    C319468   1.766   1.581   6.600 -0.4505  0.4635  0.9922
  172SAPE    HX19469   1.848   1.509   6.579  0.2177  1.7689 -1.0002
  172SAPE    HY19470   1.702   1.550   6.515  1.9761 -2.7155  0.2558
  172SAPE   O3119471   1.689   1.558   6.728  0.2199  0.1532  0.4664
  172SAPE   C3119472   1.563   1.594   6.727  0.0746  0.2753 -0.0284
  172SAPE   O3219473   1.506   1.641   6.630  0.0590 -0.0161 -0.3484
  172SAPE   C3219474   1.514   1.595   6.872  0.1474 -0.1614 -0.5683
  172SAPE   H2X19475   1.605   1.610   6.933  0.3100  1.9803 -1.3282
  172SAPE   H2Y19476   1.471   1.493   6.885  1.5851 -0.7398 -0.3240
  172SAPE   C2319477   1.997   1.758   7.014  0.1874 -0.7707 -0.2403
  172SAPE   H3R19478   1.932   1.835   7.061  0.9668  1.4598 -2.7159
  172SAPE   H3S19479   2.086   1.759   7.079  0.1673 -0.0352 -0.2209
  172SAPE   C2419480   1.916   1.623   7.034 -0.4536  0.0535  0.9737
  172SAPE   H4R19481   1.824   1.619   6.971 -0.9608  0.9608  1.6602
  172SAPE   H4S19482   1.879   1.624   7.138  0.0877  3.5096  1.1646
  172SAPE   C2519483   2.004   1.511   6.996  0.8106 -0.5453 -0.0705
  172SAPE   H5R19484   2.050   1.496   6.897  2.0927  3.8707 -0.2470
  172SAPE   C2619485   2.063   1.441   7.094  0.2650  0.4276  0.8389
  172SAPE   H6R19486   2.128   1.360   7.057  0.2553  1.0663 -0.6091
  172SAPE   C2719487   2.059   1.453   7.242  0.4630 -0.5102 -0.1416
  172SAPE   H7R19488   2.141   1.387   7.278  1.1804  0.4503  0.0179
  172SAPE   H7S19489   1.964   1.418   7.287 -1.0717  0.1619 -2.7573
  172SAPE   C2819490   2.091   1.591   7.302 -0.1892 -1.0751 -0.6062
  172SAPE   H8R19491   2.153   1.660   7.242 -0.0474  0.2982  1.0913
  172SAPE   C2919492   2.065   1.637   7.431  0.7591  0.2289  0.5037
  172SAPE   H9R19493   2.091   1.741   7.455  0.0880  1.0042 -1.9919
  172SAPE  C21019494   2.012   1.554   7.538  0.3384  0.5710 -0.5669
  172SAPE  H10R19495   2.076   1.465   7.555  1.2377  0.7147 -2.9071
  172SAPE  H10S19496   1.920   1.500   7.509  2.0040  0.0526 -5.2720
  172SAPE  C21119497   1.991   1.640   7.657 -0.6463  0.3795  0.0960
  172SAPE  H11R19498   1.930   1.730   7.641 -0.8624  0.3015  0.4828
  172SAPE  C21219499   2.036   1.614   7.783  0.0722  0.0284 -0.0578
  172SAPE  H12R19500   2.021   1.693   7.858 -1.7777 -1.5590  1.3148
  172SAPE  C21319501   2.116   1.498   7.826 -0.2692  0.2304 -0.6567
  172SAPE  H13R19502   2.114   1.419   7.748  0.7999 -0.0951 -0.3642
  172SAPE  H13S19503   2.069   1.444   7.911  0.0973  1.5280  0.3850
  172SAPE  C21419504   2.259   1.534   7.856  0.1526  0.3528 -0.4895
  172SAPE  H14R19505   2.321   1.558   7.768  0.8698  2.7553  0.6424
  172SAPE  C21519506   2.313   1.524   7.978 -0.5628  0.1204 -0.5614
  172SAPE  H15R19507   2.422   1.532   7.988 -0.5507 -1.0424  0.4513
  172SAPE  C21619508   2.248   1.490   8.107 -0.0944  0.5258  0.7234
  172SAPE  H16R19509   2.278   1.387   8.137  2.0097  0.3663 -1.7662
  172SAPE  H16S19510   2.139   1.498   8.086  0.0974 -3.6210 -2.6292
  172SAPE  C21719511   2.299   1.591   8.212 -0.2096  0.7334 -0.5341
  172SAPE  H17R19512   2.410   1.588   8.215 -0.2096  1.0391  3.6859
  172SAPE  H17S19513   2.269   1.555   8.313  0.7589  2.3093  0.3314
  172SAPE  C21819514   2.253   1.733   8.180  0.7258  0.1176  0.4251
  172SAPE  H18R19515   2.143   1.747   8.165  0.7905  1.3914  0.9954
  172SAPE  H18S19516   2.296   1.754   8.080  2.4490 -1.8615  0.7168
  172SAPE  C21919517   2.287   1.835   8.288  0.5228  0.1259  0.1546
  172SAPE  H19R19518   2.244   1.934   8.258  0.9295  0.1894 -0.2283
  172SAPE  H19S19519   2.397   1.847   8.282  0.4044  0.7751 -1.1046
  172SAPE  C22019520   2.244   1.810   8.430 -0.3611  0.1396 -0.5969
  172SAPE  H20R19521   2.135   1.831   8.436 -0.4335 -0.4683  0.3937
  172SAPE  H20S19522   2.289   1.884   8.500 -1.0365 -0.8735  0.9377
  172SAPE  H20T19523   2.260   1.707   8.469 -0.0609 -0.9073 -3.3741
  172SAPE   C3319524   1.412   1.694   6.910 -0.0370  0.1194  0.3458
  172SAPE   H3X19525   1.335   1.691   6.831  0.3241 -0.2358  0.0080
  172SAPE   H3Y19526   1.472   1.788   6.902 -0.9053  0.7997  1.5366
  172SAPE   C3419527   1.377   1.675   7.055  0.2735  0.5144 -0.3664
  172SAPE   H4X19528   1.467   1.669   7.120 -0.0717  0.6281  0.1241
  172SAPE   H4Y19529   1.327   1.577   7.073  0.3268  0.1868 -1.9854
  172SAPE   C3519530   1.279   1.788   7.098 -0.2123 -0.3812  0.7980
  172SAPE   H5X19531   1.197   1.793   7.022  1.0643 -1.0401 -0.6625
  172SAPE   H5Y19532   1.334   1.879   7.067 -0.1771 -0.7249 -0.1666
  172SAPE   C3619533   1.196   1.771   7.223  0.2233  0.2033  0.4126
  172SAPE   H6X19534   1.145   1.673   7.218 -0.1459  0.5191 -2.8075
  172SAPE   H6Y19535   1.129   1.859   7.238 -0.1417 -0.4074  2.5402
  172SAPE   C3719536   1.286   1.772   7.347  0.5345  0.9398 -0.1296
  172SAPE   H7X19537   1.368   1.846   7.348  0.0309  1.5165  2.4036
  172SAPE   H7Y19538   1.325   1.669   7.365  0.6294  0.9941 -0.0196
  172SAPE   C3819539   1.200   1.822   7.464 -0.5062  0.6166  0.3930
  172SAPE   H8X19540   1.117   1.751   7.486  0.5754 -1.8901 -3.0588
  172SAPE   H8Y19541   1.142   1.914   7.442 -0.2610  0.7996  0.5226
  172SAPE   C3919542   1.292   1.848   7.581  0.3835  0.2354  0.2412
  172SAPE   H9X19543   1.326   1.954   7.584 -1.6780  0.8963  0.4108
  172SAPE   H9Y19544   1.380   1.780   7.567  2.7382  3.1635  0.3939
  172SAPE  C31019545   1.233   1.813   7.716 -0.1670 -0.3683 -0.4371
  172SAPE  H10X19546   1.201   1.707   7.719 -2.0370  0.2248  1.0406
  172SAPE  H10Y19547   1.149   1.885   7.729  0.3097 -0.1340  1.4176
  172SAPE  C31119548   1.329   1.846   7.835  0.5702  0.1670 -0.1064
  172SAPE  H11X19549   1.318   1.955   7.853 -3.0404 -0.4371  1.7574
  172SAPE  H11Y19550   1.435   1.818   7.816 -0.2543 -2.6677 -0.7045
  172SAPE  C31219551   1.286   1.772   7.956 -0.0800  0.3663  0.5496
  172SAPE  H12X19552   1.280   1.665   7.926  0.4216  0.2399  0.8814
  172SAPE  H12Y19553   1.183   1.798   7.990 -1.3683 -1.8180 -1.5291
  172SAPE  C31319554   1.394   1.788   8.065 -0.3984  0.2675 -0.0757
  172SAPE  H13X19555   1.434   1.890   8.083  1.3035 -0.1009 -1.6826
  172SAPE  H13Y19556   1.487   1.732   8.043 -1.1152 -1.3067  0.7918
  172SAPE  C31419557   1.340   1.738   8.203 -0.1212  0.5501  0.5312
  172SAPE  H14X19558   1.337   1.627   8.200  1.9346  0.4229  2.2032
  172SAPE  H14Y19559   1.233   1.768   8.201 -0.8617 -2.0303 -2.3969
  172SAPE  C31519560   1.421   1.775   8.330  0.1280 -0.8656  0.1517
  172SAPE  H15X19561   1.438   1.884   8.336  0.6419 -0.8207 -1.7655
  172SAPE  H15Y19562   1.526   1.738   8.327  0.1496 -0.7442 -0.5222
  172SAPE  C31619563   1.348   1.726   8.463  0.0003 -0.1074 -0.4195
  172SAPE  H16X19564   1.366   1.617   8.472  1.1040  0.0444 -0.7194
  172SAPE  H16Y19565   1.240   1.751   8.454  0.3328  1.0568 -1.3330
  172SAPE  C31719566   1.390   1.795   8.594  0.4115  0.0622  0.3938
  172SAPE  H17X19567   1.358   1.901   8.592 -1.7641 -0.5735  0.8546
  172SAPE  H17Y19568   1.501   1.786   8.594  0.5937  1.7211 -2.4973
  172SAPE  C31819569   1.330   1.726   8.718 -0.0237  0.6042  0.0659
  172SAPE  H18X19570   1.219   1.735   8.729 -0.1729  0.5522 -1.2723
  172SAPE  H18Y19571   1.370   1.769   8.812  1.7013 -0.7204 -0.0605
  172SAPE  H18Z19572   1.364   1.621   8.715 -0.4980  0.4277  0.7533
  173SOPE     N19573   2.024   6.215  10.871 -0.5341  0.1614  0.6624
  173SOPE   HN119574   2.078   6.155  10.937  0.6072 -0.7049 -1.0443
  173SOPE   HN219575   1.991   6.300  10.920  1.5793  0.4629  1.6119
  173SOPE   HN319576   1.948   6.147  10.850  0.9718 -1.2762 -0.2904
  173SOPE   C1219577   2.114   6.271  10.763 -0.0093  0.6386  0.1371
  173SOPE  H12A19578   2.084   6.371  10.724  0.5333  0.3424 -1.0464
  173SOPE  H12B19579   2.125   6.195  10.683 -1.0100  0.1008  0.4984
  173SOPE   C1119580   2.257   6.290  10.823 -0.8250 -0.0259  0.2724
  173SOPE  H11A19581   2.246   6.387  10.876 -1.7992  0.4918 -0.8492
  173SOPE  H11B19582   2.330   6.310  10.742  0.3769  0.7112  1.5227
  173SOPE     P19583   2.385   6.055  10.883  0.6814  0.4105 -0.0898
  173SOPE   O1319584   2.314   5.941  10.921 -0.1666 -0.2865 -0.2438
  173SOPE   O1419585   2.507   6.077  10.967 -0.0662 -0.3761 -0.1484
  173SOPE   O1219586   2.302   6.183  10.909 -0.5152  0.1822  0.5045
  173SOPE   O1119587   2.422   6.057  10.731 -0.3602 -0.3808 -0.0069
  173SOPE    C119588   2.514   6.155  10.675  0.4264  0.1593 -0.3647
  173SOPE    HA19589   2.558   6.220  10.753 -0.0906 -0.8429  0.7837
  173SOPE    HB19590   2.465   6.227  10.606  0.4097  2.0906  1.6380
  173SOPE    C219591   2.639   6.082  10.610 -0.0533 -0.6887 -0.4826
  173SOPE    HS19592   2.710   6.160  10.574  1.3524 -1.3229  0.8676
  173SOPE   O2119593   2.598   6.002  10.500  0.1146 -0.5059  0.6859
  173SOPE   C2119594   2.584   6.071  10.386  0.0213 -0.1828 -0.1007
  173SOPE   O2219595   2.626   6.183  10.364  0.2859  0.0400  0.0389
  173SOPE   C2219596   2.491   5.990  10.299  1.0575 -0.2075 -0.2885
  173SOPE   H2R19597   2.387   6.028  10.314  0.7356 -1.4533  0.6859
  173SOPE   H2S19598   2.489   5.883  10.329 -1.7229 -0.2821 -0.5910
  173SOPE    C319599   2.711   5.996  10.710  0.2931  0.3673 -0.3682
  173SOPE    HX19600   2.628   5.944  10.763  1.5656  2.4135  3.8874
  173SOPE    HY19601   2.758   6.055  10.792 -2.1018  1.7333  0.0598
  173SOPE   O3119602   2.800   5.901  10.642  0.0229 -0.3611  0.2771
  173SOPE   C3119603   2.922   5.949  10.623  0.0588 -0.6163 -0.1143
  173SOPE   O3219604   2.959   6.064  10.641 -0.1151  0.1541  0.1770
  173SOPE   C3219605   3.020   5.843  10.566  0.1514  0.4546  0.6085
  173SOPE   H2X19606   3.005   5.754  10.631 -2.4924 -0.6739 -1.4593
  173SOPE   H2Y19607   3.119   5.892  10.572  0.2222  0.1445  2.1577
  173SOPE   C2319608   2.510   6.004  10.144 -0.5411 -0.3791 -0.5079
  173SOPE   H3R19609   2.614   5.967  10.129 -0.3652  0.5561 -1.6323
  173SOPE   H3S19610   2.513   6.108  10.106  2.1204 -0.0412  0.5216
  173SOPE   C2419611   2.418   5.914  10.071  0.8678  0.3811  0.0162
  173SOPE   H4R19612   2.393   5.819  10.124  0.2749  0.0519 -0.8422
  173SOPE   H4S19613   2.318   5.958  10.051  1.0663  1.7109  1.8486
  173SOPE   C2519614   2.480   5.863   9.944  0.3475  0.1268 -0.2386
  173SOPE   H5R19615   2.500   5.938   9.864  2.6810 -1.9782 -1.7172
  173SOPE   H5S19616   2.577   5.812   9.966  0.2011 -0.0749 -0.0631
  173SOPE   C2619617   2.385   5.768   9.870 -0.7936  0.5857  0.0738
  173SOPE   H6R19618   2.349   5.690   9.940  2.5525  0.4882  1.7705
  173SOPE   H6S19619   2.297   5.824   9.831 -0.7292 -0.4182 -1.5662
  173SOPE   C2719620   2.459   5.702   9.748  0.1476 -0.4250  0.0703
  173SOPE   H7R19621   2.490   5.781   9.677  2.8038 -2.6002 -1.3322
  173SOPE   H7S19622   2.545   5.644   9.790  0.4415  0.2992  0.4674
  173SOPE   C2819623   2.363   5.607   9.674  0.1137 -0.1919 -0.4763
  173SOPE   H8R19624   2.417   5.548   9.597  0.8210 -1.3338  0.8760
  173SOPE   H8S19625   2.326   5.533   9.748 -3.0613  3.5733  1.8929
  173SOPE   C2919626   2.236   5.666   9.623  0.1835  0.0164  0.3734
  173SOPE   H9119627   2.169   5.697   9.704  1.7644  1.4753  1.1597
  173SOPE  C21019628   2.209   5.693   9.490 -0.6935  0.0930 -0.5132
  173SOPE  H10119629   2.110   5.728   9.457 -1.2348 -1.5125 -0.6203
  173SOPE  C21119630   2.311   5.662   9.378 -0.6591  0.2811  0.6612
  173SOPE  H11R19631   2.410   5.631   9.416 -0.6654 -1.8207 -0.9480
  173SOPE  H11S19632   2.347   5.756   9.331  1.0155 -0.5724  0.1995
  173SOPE  C21219633   2.258   5.576   9.259 -0.3306 -0.2394 -0.8619
  173SOPE  H12R19634   2.216   5.482   9.302 -0.6219  0.5948  0.6937
  173SOPE  H12S19635   2.348   5.549   9.201 -0.6911 -1.9774 -0.6431
  173SOPE  C21319636   2.164   5.655   9.182  0.0687  0.1196  0.7943
  173SOPE  H13R19637   2.216   5.750   9.157  1.9305 -0.8285  0.9591
  173SOPE  H13S19638   2.086   5.679   9.258 -0.0831 -2.3712  1.4639
  173SOPE  C21419639   2.114   5.588   9.056 -0.4473  0.3969  0.5041
  173SOPE  H14R19640   2.038   5.513   9.087 -0.4928  1.1235  2.1943
  173SOPE  H14S19641   2.195   5.527   9.011  0.9184  2.7551 -0.2810
  173SOPE  C21519642   2.062   5.682   8.953 -0.4178  0.2897 -0.1660
  173SOPE  H15R19643   2.033   5.620   8.865  0.9903 -0.2961 -0.2337
  173SOPE  H15S19644   2.139   5.756   8.920  1.6497 -1.9016 -0.3385
  173SOPE  C21619645   1.943   5.771   8.989 -0.4197 -0.6619 -0.0281
  173SOPE  H16R19646   1.914   5.845   8.912 -1.9043  1.3427  2.3952
  173SOPE  H16S19647   1.965   5.822   9.085  3.0208  0.4620 -1.3104
  173SOPE  C21719648   1.808   5.704   9.014  0.2365 -0.0720 -0.1936
  173SOPE  H17R19649   1.739   5.776   9.063  0.0615 -0.9295  0.8461
  173SOPE  H17S19650   1.812   5.608   9.070 -0.8069  0.0269  0.0500
  173SOPE  C21819651   1.739   5.670   8.886 -0.7319 -0.1777 -0.0597
  173SOPE  H18R19652   1.807   5.601   8.831  0.4288  0.9182 -0.0067
  173SOPE  H18S19653   1.731   5.763   8.826 -0.8141 -0.4418 -0.4594
  173SOPE  H18T19654   1.643   5.616   8.903 -0.4271 -0.4021  0.9698
  173SOPE   C3319655   2.963   5.796  10.427  0.2698 -0.5051 -0.0093
  173SOPE   H3X19656   2.857   5.764  10.430  1.2613 -3.9808  1.0109
  173SOPE   H3Y19657   3.020   5.712  10.382  0.4175 -0.3258 -0.1523
  173SOPE   C3419658   2.970   5.913  10.323 -0.1693 -0.0047  0.0957
  173SOPE   H4X19659   3.075   5.949  10.312 -0.7641  2.2743  1.5296
  173SOPE   H4Y19660   2.922   6.005  10.363 -0.2424 -0.1746  0.4067
  173SOPE   C3519661   2.931   5.886  10.173  0.6167 -0.4819  0.8263
  173SOPE   H5X19662   2.972   5.978  10.126  1.2792 -0.9377  0.5003
  173SOPE   H5Y19663   2.821   5.894  10.160  0.9094  0.0458 -1.6921
  173SOPE   C3619664   3.000   5.770  10.105 -0.4500 -0.3585  0.4758
  173SOPE   H6X19665   2.979   5.667  10.142  0.5240 -1.1029 -0.9369
  173SOPE   H6Y19666   3.110   5.781  10.121 -0.0889 -3.1329  0.2043
  173SOPE   C3719667   2.968   5.781   9.960  0.0464 -0.1388 -0.2029
  173SOPE   H7X19668   2.992   5.884   9.924 -0.6521 -0.9800 -3.2185
  173SOPE   H7Y19669   2.862   5.775   9.928 -0.2607  1.3066  0.5077
  173SOPE   C3819670   3.041   5.674   9.882 -0.0880 -0.0463  0.4850
  173SOPE   H8X19671   3.015   5.574   9.924 -1.0953  0.0423  0.0883
  173SOPE   H8Y19672   3.152   5.683   9.880  0.0029 -1.3434 -1.1073
  173SOPE   C3919673   3.012   5.686   9.734  0.5766  0.9758 -0.3934
  173SOPE   H9X19674   3.062   5.602   9.682 -0.1866  1.1860 -1.4875
  173SOPE   H9Y19675   3.056   5.780   9.693 -1.0087  2.3742  1.0106
  173SOPE  C31019676   2.865   5.675   9.691 -0.2678 -0.7297  0.2483
  173SOPE  H10X19677   2.814   5.773   9.687 -0.3687 -0.7147  1.7970
  173SOPE  H10Y19678   2.809   5.624   9.772  1.6575  2.3174  3.6851
  173SOPE  C31119679   2.852   5.624   9.547 -0.5672 -0.2010  0.1177
  173SOPE  H11X19680   2.902   5.527   9.525  1.9189  1.2430 -0.8131
  173SOPE  H11Y19681   2.898   5.696   9.476  0.2580  1.7376  2.5339
  173SOPE  C31219682   2.704   5.605   9.514  1.4098 -0.8130 -0.1244
  173SOPE  H12X19683   2.658   5.706   9.516 -1.7393 -2.2028  0.6609
  173SOPE  H12Y19684   2.656   5.545   9.595  0.1625 -0.5402 -0.6506
  173SOPE  C31319685   2.684   5.533   9.373 -0.6671 -0.3402 -0.2303
  173SOPE  H13X19686   2.581   5.493   9.359 -0.3451 -1.4907  0.6112
  173SOPE  H13Y19687   2.750   5.444   9.378 -0.0412  0.1678  0.7067
  173SOPE  C31419688   2.724   5.620   9.253  0.0979  0.3840 -0.4590
  173SOPE  H14X19689   2.701   5.561   9.162 -1.1491  1.4018 -0.8252
  173SOPE  H14Y19690   2.832   5.645   9.263 -0.0363  0.5980  0.4771
  173SOPE  C31519691   2.651   5.756   9.223  0.2783  0.7030 -0.4499
  173SOPE  H15X19692   2.640   5.807   9.321  0.1936 -1.1198  0.5133
  173SOPE  H15Y19693   2.554   5.736   9.174  0.8991 -2.7888 -0.4212
  173SOPE  C31619694   2.720   5.845   9.128 -0.2191 -1.0677  0.2850
  173SOPE  H16X19695   2.768   5.779   9.052 -2.3984 -2.1518 -0.1844
  173SOPE  H16Y19696   2.807   5.896   9.174 -1.2496  0.7799  0.2087
  173SOPE  C31719697   2.616   5.942   9.077 -0.3545  0.1972 -0.0047
  173SOPE  H17X19698   2.583   5.996   9.169  0.5225 -0.4890  0.7176
  173SOPE  H17Y19699   2.525   5.895   9.033 -0.7934  0.9601  0.0709
  173SOPE  C31819700   2.685   6.040   8.990  1.1463  0.6231 -0.6836
  173SOPE  H18X19701   2.627   6.128   8.958 -0.3009  0.1544  0.5830
  173SOPE  H18Y19702   2.703   5.984   8.896 -0.6798  0.2534 -0.8224
  173SOPE  H18Z19703   2.787   6.070   9.024  0.9008  0.8589 -0.1459
  174SOPE     N19704   1.711   5.843  10.811  0.5637  0.0456 -0.8412
  174SOPE   HN119705   1.756   5.928  10.850 -0.3560  0.4655 -0.6805
  174SOPE   HN219706   1.611   5.848  10.783  0.0219 -0.2102  0.9557
  174SOPE   HN319707   1.719   5.765  10.880  0.3401 -0.4273 -1.3388
  174SOPE   C1219708   1.787   5.806  10.682  0.4237  1.3161 -0.6748
  174SOPE  H12A19709   1.752   5.880  10.607 -2.3630 -0.0725 -0.8379
  174SOPE  H12B19710   1.755   5.705  10.649 -0.9852  2.7067 -3.7327
  174SOPE   C1119711   1.943   5.802  10.715 -0.0354  0.6759  0.0319
  174SOPE  H11A19712   1.975   5.903  10.748  0.8878  0.0421  1.1358
  174SOPE  H11B19713   2.006   5.773  10.628 -0.3134  0.4778 -0.1047
  174SOPE     P19714   1.993   5.562  10.816 -0.2096 -0.4450  0.7330
  174SOPE   O1319715   1.895   5.511  10.719 -0.1742 -0.3666 -0.0980
  174SOPE   O1419716   1.989   5.505  10.954 -0.3872 -0.2177 -0.2145
  174SOPE   O1219717   1.976   5.720  10.829 -0.1082  0.1534  0.6097
  174SOPE   O1119718   2.133   5.522  10.747 -0.1483 -0.0933 -0.3322
  174SOPE    C119719   2.248   5.604  10.759  0.3599 -1.1590  0.3388
  174SOPE    HA19720   2.336   5.539  10.778  1.5715  0.5635  0.7440
  174SOPE    HB19721   2.232   5.662  10.853  0.2696  1.1218 -1.0488
  174SOPE    C219722   2.275   5.688  10.627  0.8055 -0.4734  0.1705
  174SOPE    HS19723   2.211   5.779  10.628  0.5028 -0.6688 -0.9639
  174SOPE   O2119724   2.239   5.614  10.510  0.3461 -0.2595 -0.0748
  174SOPE   C2119725   2.224   5.691  10.406  0.2446  0.2901 -0.5205
  174SOPE   O2219726   2.231   5.813  10.401 -0.2022  0.0773 -0.2792
  174SOPE   C2219727   2.194   5.598  10.290  0.4829 -0.5024  0.0928
  174SOPE   H2R19728   2.150   5.502  10.324  0.0116 -0.1836  0.3782
  174SOPE   H2S19729   2.288   5.573  10.236 -0.3279  0.7948 -1.9764
  174SOPE    C319730   2.421   5.739  10.624  0.8692 -0.0725  0.6429
  174SOPE    HX19731   2.417   5.796  10.719 -1.1383  0.9260 -0.0186
  174SOPE    HY19732   2.431   5.806  10.536  1.2844 -1.1676 -0.1602
  174SOPE   O3119733   2.530   5.638  10.636 -0.1357 -0.7689  0.7962
  174SOPE   C3119734   2.585   5.603  10.527 -0.3734 -0.3275  0.7848
  174SOPE   O3219735   2.555   5.645  10.414 -0.3917  0.2539  0.7098
  174SOPE   C3219736   2.702   5.505  10.553 -0.1534  0.4660 -0.0209
  174SOPE   H2X19737   2.645   5.429  10.611 -0.3978  0.4871 -0.2340
  174SOPE   H2Y19738   2.780   5.544  10.623 -0.2583 -2.0870  1.5922
  174SOPE   C2319739   2.100   5.664  10.188 -0.1734  0.6177  0.0002
  174SOPE   H3R19740   2.138   5.764  10.160  1.4697 -0.0953 -0.3976
  174SOPE   H3S19741   1.996   5.679  10.225  1.0918  2.3910  2.9719
  174SOPE   C2419742   2.095   5.575  10.058 -0.4042  0.7720 -0.2368
  174SOPE   H4R19743   2.053   5.627   9.970  0.0558  0.1910 -0.8085
  174SOPE   H4S19744   2.198   5.544  10.028 -0.3530 -0.0817  0.7904
  174SOPE   C2519745   2.017   5.448  10.071  0.3924 -0.2149  0.1279
  174SOPE   H5R19746   2.033   5.370   9.993 -0.1929 -1.3347  1.1176
  174SOPE   H5S19747   2.042   5.399  10.168 -2.9030 -0.7783  0.7380
  174SOPE   C2619748   1.866   5.468  10.085 -0.3601  0.5617 -0.1896
  174SOPE   H6R19749   1.832   5.520  10.177  0.7374  1.2315 -0.1546
  174SOPE   H6S19750   1.840   5.528   9.995  0.3937 -0.9416 -1.4272
  174SOPE   C2719751   1.785   5.337  10.080 -1.1739  0.2912 -0.1335
  174SOPE   H7R19752   1.794   5.285   9.983 -2.2360  0.9284 -0.5889
  174SOPE   H7S19753   1.817   5.270  10.163 -1.9575  2.9472  2.4097
  174SOPE   C2819754   1.635   5.355  10.122 -0.3353 -0.0558  0.6488
  174SOPE   H8R19755   1.636   5.404  10.222 -1.2989  2.3829 -0.5141
  174SOPE   H8S19756   1.593   5.418  10.041  0.0278 -1.6356 -0.8091
  174SOPE   C2919757   1.554   5.227  10.123  0.4339 -0.2026  0.6097
  174SOPE   H9119758   1.587   5.156  10.199  1.3396 -0.5813 -0.1239
  174SOPE  C21019759   1.473   5.172  10.028  0.0385 -0.4664  0.0486
  174SOPE  H10119760   1.426   5.074  10.037 -1.5323  0.0128 -2.4736
  174SOPE  C21119761   1.455   5.230   9.894  0.3423  0.0496 -0.4488
  174SOPE  H11R19762   1.479   5.338   9.898  0.7509 -0.0802  0.8274
  174SOPE  H11S19763   1.348   5.219   9.866 -0.2817  0.0025  1.8847
  174SOPE  C21219764   1.540   5.151   9.785  0.0444  0.4971  0.4569
  174SOPE  H12R19765   1.647   5.149   9.817  0.0922  1.0235  0.3379
  174SOPE  H12S19766   1.544   5.202   9.687  0.9571  1.1157  0.8113
  174SOPE  C21319767   1.504   5.003   9.770 -0.0968 -0.3094 -0.0383
  174SOPE  H13R19768   1.394   4.998   9.780 -0.2295  2.1552  0.1196
  174SOPE  H13S19769   1.553   4.954   9.857 -0.1417 -2.1402 -1.0195
  174SOPE  C21419770   1.567   4.942   9.648 -0.1899 -0.1453 -0.9279
  174SOPE  H14R19771   1.542   4.834   9.655  0.8065 -0.3050  0.4213
  174SOPE  H14S19772   1.677   4.958   9.643 -0.3311  0.7525 -1.2328
  174SOPE  C21519773   1.501   4.995   9.518  0.4079  0.1186 -0.2567
  174SOPE  H15R19774   1.549   5.091   9.489 -0.3417  1.0881  1.5849
  174SOPE  H15S19775   1.393   5.020   9.526  0.4882  1.0029 -1.8257
  174SOPE  C21619776   1.517   4.897   9.398  0.2771  0.2400 -0.1588
  174SOPE  H16R19777   1.460   4.802   9.397  2.2379 -0.9875  1.0189
  174SOPE  H16S19778   1.623   4.862   9.402  0.3547  0.6244  3.2238
  174SOPE  C21719779   1.483   4.961   9.264  0.0542 -0.9548  0.2191
  174SOPE  H17R19780   1.516   4.896   9.180  0.6455 -0.6223  0.1904
  174SOPE  H17S19781   1.546   5.052   9.256  2.8365 -2.9309 -1.4397
  174SOPE  C21819782   1.333   4.998   9.232  0.7094  0.2976  0.1511
  174SOPE  H18R19783   1.265   4.913   9.254  0.2777  0.4901 -0.4203
  174SOPE  H18S19784   1.330   5.037   9.128  0.2510 -0.3905 -0.1001
  174SOPE  H18T19785   1.318   5.085   9.300 -0.1308  1.1339 -1.0752
  174SOPE   C3319786   2.767   5.445  10.428 -0.0692 -0.3719  0.2362
  174SOPE   H3X19787   2.793   5.527  10.356 -0.4451  0.1795  0.7237
  174SOPE   H3Y19788   2.708   5.362  10.383 -0.3228 -1.9483  3.4074
  174SOPE   C3419789   2.905   5.382  10.449 -0.6434 -0.5809 -0.0133
  174SOPE   H4X19790   2.890   5.295  10.517  1.4727 -0.0927  1.1366
  174SOPE   H4Y19791   2.968   5.463  10.492 -0.4421 -0.5476 -0.3734
  174SOPE   C3519792   2.967   5.333  10.318  0.2619  0.0590  0.0593
  174SOPE   H5X19793   2.965   5.416  10.245  1.7322  0.1033  0.0526
  174SOPE   H5Y19794   2.904   5.252  10.276 -1.8436  0.5907  2.0700
  174SOPE   C3619795   3.119   5.285  10.327  0.4936 -1.0132  0.7409
  174SOPE   H6X19796   3.125   5.206  10.405  0.8941 -0.6254  1.1037
  174SOPE   H6Y19797   3.181   5.370  10.362  1.1800 -1.7748  1.3784
  174SOPE   C3719798   3.165   5.230  10.194 -0.3087  0.8024  0.4177
  174SOPE   H7X19799   3.072   5.196  10.145  0.0640  0.6375 -0.1688
  174SOPE   H7Y19800   3.239   5.148  10.205  0.6813  1.3227 -2.0998
  174SOPE   C3819801   3.238   5.341  10.116 -0.7373 -0.2018  0.9756
  174SOPE   H8X19802   3.318   5.393  10.172  0.4496 -0.3970 -0.4912
  174SOPE   H8Y19803   3.159   5.419  10.122  0.3612  0.9419  0.7518
  174SOPE   C3919804   3.293   5.299   9.978  0.1971  0.5126  0.4424
  174SOPE   H9X19805   3.237   5.207   9.952 -0.6297  1.1164  0.0909
  174SOPE   H9Y19806   3.400   5.269   9.981 -1.0051 -4.1530  1.2755
  174SOPE  C31019807   3.280   5.407   9.868 -0.5951 -0.2759  0.2503
  174SOPE  H10X19808   3.359   5.483   9.886 -0.1514 -0.1654 -2.0393
  174SOPE  H10Y19809   3.184   5.463   9.875 -1.0597 -1.0242 -0.1801
  174SOPE  C31119810   3.285   5.340   9.727  0.2084  0.0697  0.3587
  174SOPE  H11X19811   3.182   5.302   9.714 -0.0589  0.6718  0.7223
  174SOPE  H11Y19812   3.369   5.267   9.724  1.3687  1.4083 -1.8858
  174SOPE  C31219813   3.322   5.435   9.607 -0.9587 -0.1075  0.3908
  174SOPE  H12X19814   3.227   5.490   9.589 -0.2938 -0.0719 -3.2875
  174SOPE  H12Y19815   3.337   5.363   9.524  0.1061 -0.2665  0.7089
  174SOPE  C31319816   3.461   5.507   9.617 -0.5410  0.3470  0.4066
  174SOPE  H13X19817   3.539   5.433   9.645 -0.8613  0.2291  0.9978
  174SOPE  H13Y19818   3.462   5.582   9.698  0.2006 -2.1112  2.7461
  174SOPE  C31419819   3.499   5.568   9.476  0.1533 -0.3603  0.9437
  174SOPE  H14X19820   3.427   5.650   9.455 -0.4547 -1.6944 -2.5176
  174SOPE  H14Y19821   3.504   5.501   9.388  0.4353  1.7272 -0.6464
  174SOPE  C31519822   3.634   5.649   9.477 -0.0736 -0.0453  0.2362
  174SOPE  H15X19823   3.714   5.594   9.531 -0.6545  0.3880  1.5376
  174SOPE  H15Y19824   3.624   5.746   9.530  3.0242  0.1843  0.4808
  174SOPE  C31619825   3.688   5.683   9.332  0.2843 -0.4844 -0.6992
  174SOPE  H16X19826   3.691   5.602   9.256  0.6088  0.0873 -1.3072
  174SOPE  H16Y19827   3.788   5.724   9.358 -0.1999  0.0091  0.4382
  174SOPE  C31719828   3.613   5.815   9.280 -0.2561 -0.1425  1.0532
  174SOPE  H17X19829   3.621   5.900   9.350  0.0664 -0.8362  1.8754
  174SOPE  H17Y19830   3.505   5.790   9.272  0.0161 -0.7071 -1.4238
  174SOPE  C31819831   3.672   5.855   9.139 -0.0769 -0.0577 -0.7030
  174SOPE  H18X19832   3.775   5.896   9.144  0.3042 -1.2826  2.5749
  174SOPE  H18Y19833   3.609   5.939   9.103  0.6085  0.2795 -1.1326
  174SOPE  H18Z19834   3.653   5.768   9.071 -0.6022 -0.3124 -0.2349
  175SOPE     N19835   4.685   0.217  10.826 -0.6413 -0.5135  0.7112
  175SOPE   HN119836   4.756   0.159  10.876 -0.0610  0.4133  0.9724
  175SOPE   HN219837   4.588   0.202  10.860 -0.6888  1.6696  1.5746
  175SOPE   HN319838   4.682   0.182  10.728  0.0808 -0.4182  0.6520
  175SOPE   C1219839   4.724   0.361  10.835  0.2108 -0.2946 -0.2661
  175SOPE  H12A19840   4.835   0.370  10.831  0.3236 -1.6343 -0.2518
  175SOPE  H12B19841   4.691   0.405  10.931  1.6929 -1.1555  0.6500
  175SOPE   C1119842   4.672   0.439  10.711  0.3146  0.1111  0.6240
  175SOPE  H11A19843   4.727   0.405  10.621  0.0663  1.3616 -0.0106
  175SOPE  H11B19844   4.703   0.546  10.717  0.6280  0.0650 -0.1116
  175SOPE     P19845   4.431   0.538  10.672 -0.1758 -0.4000 -0.1674
  175SOPE   O1319846   4.471   0.655  10.759  0.6295  0.3046 -0.5513
  175SOPE   O1419847   4.288   0.495  10.671  0.2028  0.6957  0.4119
  175SOPE   O1219848   4.527   0.418  10.695 -0.3441  0.2876  0.4678
  175SOPE   O1119849   4.466   0.570  10.519 -0.0432 -0.0470  0.0450
  175SOPE    C119850   4.435   0.697  10.466  0.1830 -0.1301 -0.2284
  175SOPE    HA19851   4.518   0.771  10.471  0.5473 -0.6279  1.2824
  175SOPE    HB19852   4.357   0.749  10.526  1.0454  1.1344 -0.1925
  175SOPE    C219853   4.373   0.694  10.324  0.0358  0.2129 -0.1034
  175SOPE    HS19854   4.317   0.789  10.313  4.0566  2.8563  1.1830
  175SOPE   O2119855   4.289   0.584  10.307 -0.1701  0.1436  0.4094
  175SOPE   C2119856   4.177   0.583  10.377  0.5987 -0.1383 -0.0648
  175SOPE   O2219857   4.118   0.678  10.426  0.1607 -0.3503 -0.0969
  175SOPE   C2219858   4.129   0.437  10.375  0.7376 -0.5335 -0.0211
  175SOPE   H2R19859   4.159   0.394  10.473  0.8681  0.0013  0.1724
  175SOPE   H2S19860   4.176   0.378  10.293  2.0476  2.8295 -1.7862
  175SOPE    C319861   4.482   0.682  10.214  0.2997  0.3992 -0.4262
  175SOPE    HX19862   4.554   0.601  10.242  1.2184  1.0553 -0.8712
  175SOPE    HY19863   4.539   0.777  10.209  1.7200 -0.4227 -0.1567
  175SOPE   O3119864   4.424   0.653  10.088 -0.5927 -0.1936 -0.6896
  175SOPE   C3119865   4.411   0.522  10.061 -0.6556 -0.2558  0.2163
  175SOPE   O3219866   4.453   0.429  10.129 -0.0268 -0.2834  0.6790
  175SOPE   C3219867   4.324   0.509   9.932 -0.3959 -0.4046 -0.6306
  175SOPE   H2X19868   4.345   0.596   9.866  3.4762 -0.5040  0.3294
  175SOPE   H2Y19869   4.217   0.512   9.961 -0.2915  1.4107 -0.3798
  175SOPE   C2319870   3.979   0.427  10.340 -0.1125 -0.0443  0.2899
  175SOPE   H3R19871   3.921   0.490  10.411 -1.8087 -2.6307  1.2535
  175SOPE   H3S19872   3.940   0.327  10.365 -0.1025  0.3597  1.9916
  175SOPE   C2419873   3.938   0.468  10.193  0.1193  0.2986 -0.7770
  175SOPE   H4R19874   3.830   0.492  10.206 -0.3682 -1.1918 -2.0429
  175SOPE   H4S19875   3.991   0.560  10.161  1.5566  0.1339  1.0344
  175SOPE   C2519876   3.955   0.354  10.088  0.8892 -0.2889 -0.4133
  175SOPE   H5R19877   3.997   0.394   9.994  0.0011 -0.7238 -0.9983
  175SOPE   H5S19878   4.027   0.281  10.130  0.1800 -1.0893 -0.5614
  175SOPE   C2619879   3.831   0.277  10.038 -0.7308  0.1836 -0.1771
  175SOPE   H6R19880   3.774   0.239  10.125  1.1597  0.2919  1.1464
  175SOPE   H6S19881   3.757   0.349   9.996 -0.4352  0.7894  0.3384
  175SOPE   C2719882   3.850   0.166   9.940 -0.4626  0.2711 -0.2390
  175SOPE   H7R19883   3.902   0.190   9.844  3.7710  0.6111  2.0499
  175SOPE   H7S19884   3.904   0.081   9.986  2.7308  1.6893 -1.2434
  175SOPE   C2819885   3.716   0.106   9.903 -0.7559 -0.2125 -0.3565
  175SOPE   H8R19886   3.740   0.010   9.851 -0.7952 -1.2678  1.5151
  175SOPE   H8S19887   3.656   0.085   9.994 -0.7934  1.0880 -0.0701
  175SOPE   C2919888   3.626   0.190   9.807 -0.2558 -0.0511 -0.4166
  175SOPE   H9119889   3.625   0.293   9.845  1.0878 -0.5410  1.0199
  175SOPE  C21019890   3.575   0.144   9.695  0.0429  0.1531 -0.0080
  175SOPE  H10119891   3.514   0.204   9.626  1.5433  0.8037 -0.8103
  175SOPE  C21119892   3.583   0.007   9.644  0.8225 -0.3153 -0.0473
  175SOPE  H11R19893   3.513  -0.059   9.700  1.1607 -0.6024  0.0356
  175SOPE  H11S19894   3.688  -0.027   9.650  0.5377 -1.0953  0.6009
  175SOPE  C21219895   3.549   0.009   9.493  0.0996  0.0397 -0.4856
  175SOPE  H12R19896   3.439   0.022   9.480 -0.8605 -2.4589  3.8663
  175SOPE  H12S19897   3.562  -0.093   9.450  0.2531 -0.0380 -0.2571
  175SOPE  C21319898   3.637   0.093   9.401  0.2518 -0.6231 -0.1748
  175SOPE  H13R19899   3.741   0.091   9.439 -0.5378 -1.6088  2.0415
  175SOPE  H13S19900   3.602   0.198   9.414 -1.4656 -1.1737 -0.1259
  175SOPE  C21419901   3.624   0.067   9.249 -0.2736 -0.5763  0.8256
  175SOPE  H14R19902   3.650  -0.041   9.237  1.3542 -0.1777  0.5539
  175SOPE  H14S19903   3.691   0.139   9.197 -3.0562  1.3517 -0.1385
  175SOPE  C21519904   3.479   0.100   9.192  0.5859 -0.3055  0.9476
  175SOPE  H15R19905   3.460   0.209   9.206  2.8264  0.2406 -0.1724
  175SOPE  H15S19906   3.411   0.041   9.257  2.4765  0.7029  3.9354
  175SOPE  C21619907   3.472   0.073   9.047 -0.1187 -0.6980  0.0824
  175SOPE  H16R19908   3.566   0.116   9.007 -0.3347 -1.4365 -1.2451
  175SOPE  H16S19909   3.390   0.129   8.997  1.5699  0.8040 -1.0885
  175SOPE  C21719910   3.462  -0.074   9.005 -0.4467  0.1568  0.3212
  175SOPE  H17R19911   3.541  -0.140   9.045 -0.7497  0.6389  1.7455
  175SOPE  H17S19912   3.467  -0.074   8.894 -0.2222  0.7747  0.3259
  175SOPE  C21819913   3.333  -0.130   9.061 -0.2000 -0.1124 -0.0249
  175SOPE  H18R19914   3.253  -0.054   9.050 -1.0097 -0.8806  0.4247
  175SOPE  H18S19915   3.352  -0.137   9.170 -0.0566 -0.0133 -0.0429
  175SOPE  H18T19916   3.299  -0.232   9.031  1.1463 -0.8152  0.7890
  175SOPE   C3319917   4.363   0.387   9.851 -0.6163 -0.1635 -0.0906
  175SOPE   H3X19918   4.410   0.309   9.914  1.2476  0.1637 -1.0335
  175SOPE   H3Y19919   4.430   0.418   9.769  0.4340  0.4505  0.9906
  175SOPE   C3419920   4.245   0.310   9.785 -0.1718  0.4884 -0.5950
  175SOPE   H4X19921   4.190   0.264   9.870 -0.4012  3.4538  0.9382
  175SOPE   H4Y19922   4.292   0.232   9.721 -0.6100  0.3760 -0.7820
  175SOPE   C3519923   4.145   0.408   9.722  0.1093  0.0936  0.4833
  175SOPE   H5X19924   4.205   0.490   9.676 -0.8187  0.2551 -0.4435
  175SOPE   H5Y19925   4.083   0.451   9.804 -1.7282 -1.2637 -0.1696
  175SOPE   C3619926   4.043   0.352   9.614  0.2218 -1.0734  0.3807
  175SOPE   H6X19927   3.976   0.273   9.655 -2.0176  0.4933 -0.1571
  175SOPE   H6Y19928   4.099   0.308   9.529 -0.7869 -1.4067 -0.1137
  175SOPE   C3719929   3.946   0.464   9.566 -0.4961 -0.1954  0.3498
  175SOPE   H7X19930   4.007   0.541   9.514 -1.4093  0.8555  0.8182
  175SOPE   H7Y19931   3.892   0.511   9.651 -0.5582  2.1167 -0.9237
  175SOPE   C3819932   3.835   0.424   9.464 -0.1392 -0.2009 -0.2122
  175SOPE   H8X19933   3.761   0.355   9.511  1.2333 -1.0730  0.7379
  175SOPE   H8Y19934   3.896   0.378   9.384  2.5160 -0.0595  1.6448
  175SOPE   C3919935   3.745   0.540   9.416 -0.5620  0.2955 -0.2748
  175SOPE   H9X19936   3.807   0.627   9.386 -0.6566  1.0637  1.7025
  175SOPE   H9Y19937   3.681   0.584   9.495  2.0352  2.9744  0.4384
  175SOPE  C31019938   3.669   0.504   9.291 -0.0610  0.1436 -0.3922
  175SOPE  H10X19939   3.609   0.592   9.260  0.5189  0.8647  0.5071
  175SOPE  H10Y19940   3.598   0.423   9.319  1.2385 -0.8696  0.0442
  175SOPE  C31119941   3.752   0.461   9.165  0.3967  0.6187 -0.4724
  175SOPE  H11X19942   3.816   0.373   9.189 -3.7446 -2.3413  0.2864
  175SOPE  H11Y19943   3.822   0.544   9.141  0.0155  0.8517 -0.7640
  175SOPE  C31219944   3.661   0.445   9.046  0.2302 -0.3727  0.8000
  175SOPE  H12X19945   3.583   0.523   9.061  1.8088  1.9008 -2.3691
  175SOPE  H12Y19946   3.606   0.349   9.040  0.4634 -0.4936  0.5837
  175SOPE  C31319947   3.740   0.463   8.911 -0.3609  0.8583 -0.1829
  175SOPE  H13X19948   3.817   0.384   8.915 -0.3187  1.0072  3.1852
  175SOPE  H13Y19949   3.798   0.558   8.910  0.2546  0.5064  1.6120
  175SOPE  C31419950   3.654   0.461   8.784 -0.2163 -0.4643 -0.3286
  175SOPE  H14X19951   3.728   0.484   8.704  1.1818 -2.1221  0.4771
  175SOPE  H14Y19952   3.587   0.550   8.789  0.6284  0.0765  1.7813
  175SOPE  C31519953   3.579   0.330   8.769  0.1532  0.3456 -0.6570
  175SOPE  H15X19954   3.496   0.348   8.841 -0.8773 -2.7279 -1.0188
  175SOPE  H15Y19955   3.650   0.252   8.805  0.9609  1.8049  0.9830
  175SOPE  C31619956   3.518   0.304   8.629  0.3251 -0.1503  0.2132
  175SOPE  H16X19957   3.606   0.314   8.561 -0.6185  0.5113 -0.9213
  175SOPE  H16Y19958   3.451   0.385   8.594  0.3911  0.5110  1.5603
  175SOPE  C31719959   3.464   0.161   8.606  0.2010  0.6364 -0.6051
  175SOPE  H17X19960   3.376   0.168   8.538 -0.4350 -1.1002 -0.0069
  175SOPE  H17Y19961   3.424   0.129   8.705  0.5385 -0.7039 -0.8883
  175SOPE  C31819962   3.571   0.059   8.553  0.6501 -0.4839  0.7763
  175SOPE  H18X19963   3.660   0.076   8.616  1.7613 -2.6900 -0.1596
  175SOPE  H18Y19964   3.610   0.083   8.451 -2.8900  2.4566 -0.0034
  175SOPE  H18Z19965   3.536  -0.046   8.563 -0.8651  0.2608  3.8098
  176SOPE     N19966   3.067   0.630  10.526 -0.5775 -0.1896 -0.0466
  176SOPE   HN119967   3.004   0.638  10.608  1.4867 -1.5643  1.7285
  176SOPE   HN219968   3.043   0.703  10.457 -1.4684 -0.1356  0.3177
  176SOPE   HN319969   3.052   0.533  10.490  1.3350 -0.1475 -1.0789
  176SOPE   C1219970   3.200   0.627  10.585 -0.3873 -0.0236  0.7678
  176SOPE  H12A19971   3.227   0.728  10.624  1.4194 -0.1360 -0.1334
  176SOPE  H12B19972   3.275   0.591  10.512  0.1649  1.0951  0.7745
  176SOPE   C1119973   3.207   0.533  10.704  0.6207  1.0651 -0.0102
  176SOPE  H11A19974   3.168   0.436  10.667  3.7512 -0.1294 -0.3272
  176SOPE  H11B19975   3.135   0.574  10.778 -2.3735 -0.2697 -2.0893
  176SOPE     P19976   3.472   0.496  10.710 -0.0692  0.2414  0.2097
  176SOPE   O1319977   3.563   0.442  10.819 -0.1635 -0.3316 -0.2911
  176SOPE   O1419978   3.520   0.615  10.630 -0.4539  0.1577  0.8085
  176SOPE   O1219979   3.328   0.528  10.770  0.2907 -0.5132 -0.1280
  176SOPE   O1119980   3.440   0.380  10.612  0.1922  0.1978 -0.5564
  176SOPE    C119981   3.499   0.393  10.484  0.0086 -0.2033  0.4433
  176SOPE    HA19982   3.610   0.390  10.487 -0.0299 -3.7837  1.3409
  176SOPE    HB19983   3.463   0.483  10.432 -0.6946 -0.7645 -0.0437
  176SOPE    C219984   3.459   0.275  10.396  0.5479  0.2094 -0.4772
  176SOPE    HS19985   3.348   0.276  10.402  0.5866 -1.4615  0.8818
  176SOPE   O2119986   3.513   0.160  10.460  0.0018 -0.8092 -0.1789
  176SOPE   C2119987   3.459   0.047  10.424 -0.0488 -0.3712  0.0278
  176SOPE   O2219988   3.346   0.036  10.373 -1.2100 -0.4284 -0.1488
  176SOPE   C2219989   3.557  -0.068  10.453  0.2295  0.4386  0.3546
  176SOPE   H2R19990   3.506  -0.163  10.480 -1.4736  1.8849  2.4207
  176SOPE   H2S19991   3.613  -0.033  10.543 -0.3814  0.3529  0.7743
  176SOPE    C319992   3.494   0.278  10.244  0.1815 -0.4197 -0.3341
  176SOPE    HX19993   3.604   0.261  10.250  0.3906  1.5790  2.3709
  176SOPE    HY19994   3.479   0.376  10.194  0.1393  0.7053  1.8328
  176SOPE   O3119995   3.433   0.170  10.168  0.1391 -0.2537 -0.0101
  176SOPE   C3119996   3.339   0.194  10.079  0.0091 -0.4779  0.0537
  176SOPE   O3219997   3.308   0.308  10.043  0.1083  0.1800 -0.0069
  176SOPE   C3219998   3.297   0.066  10.009  0.1309  0.6407  0.1878
  176SOPE   H2X19999   3.294  -0.017  10.083  2.0973 -0.4828 -0.9466
  176SOPE   H2Y20000   3.376   0.028   9.941 -1.0986  0.0091 -0.8975
  176SOPE   C2320001   3.667  -0.082  10.347 -0.4835 -0.0960  0.0535
  176SOPE   H3R20002   3.739  -0.160  10.380 -0.8547 -0.2216  0.5864
  176SOPE   H3S20003   3.726   0.011  10.334 -1.4016  0.4566 -0.1909
  176SOPE   C2420004   3.605  -0.138  10.219 -0.1975  0.5700 -0.0062
  176SOPE   H4R20005   3.516  -0.078  10.192 -0.2518  0.2054 -0.6491
  176SOPE   H4S20006   3.679  -0.137  10.136  1.1911 -0.4048  1.1851
  176SOPE   C2520007   3.572  -0.289  10.218  0.1450  0.5736 -0.1208
  176SOPE   H5R20008   3.650  -0.340  10.279  0.9132  1.6032 -0.2280
  176SOPE   H5S20009   3.472  -0.291  10.268 -1.3872  0.7276 -3.0510
  176SOPE   C2620010   3.559  -0.350  10.082  0.5208  1.0729 -0.5732
  176SOPE   H6R20011   3.654  -0.323  10.030  0.4572 -1.0658 -1.8684
  176SOPE   H6S20012   3.541  -0.458  10.101  1.6800  0.6006 -2.1001
  176SOPE   C2720013   3.443  -0.284  10.015 -0.4107 -0.4077 -0.2247
  176SOPE   H7R20014   3.352  -0.312  10.074 -0.6704 -2.0140 -1.3463
  176SOPE   H7S20015   3.439  -0.173  10.022 -2.1024 -0.3264 -2.0202
  176SOPE   C2820016   3.421  -0.326   9.864  0.4262  0.1683 -0.1654
  176SOPE   H8R20017   3.509  -0.300   9.801 -0.3422  1.5972 -0.6760
  176SOPE   H8S20018   3.408  -0.436   9.877  0.6115  0.2828  1.1104
  176SOPE   C2920019   3.313  -0.264   9.781 -0.4392  0.0974 -0.4931
  176SOPE   H9120020   3.253  -0.195   9.842 -1.9813 -0.4561 -1.3538
  176SOPE  C21020021   3.284  -0.293   9.653  0.6138  0.1110  0.6749
  176SOPE  H10120022   3.189  -0.257   9.611  0.3332  0.2905  1.4561
  176SOPE  C21120023   3.355  -0.401   9.577  0.9114  0.4484  0.2332
  176SOPE  H11R20024   3.272  -0.456   9.529  0.3279 -0.0045  1.7345
  176SOPE  H11S20025   3.417  -0.472   9.637  2.5133  2.1183  0.5989
  176SOPE  C21220026   3.451  -0.349   9.478 -0.1992  0.5865  0.5484
  176SOPE  H12R20027   3.536  -0.290   9.519  0.1925 -0.0149  0.6133
  176SOPE  H12S20028   3.406  -0.279   9.405  0.6436  0.0641 -0.4930
  176SOPE  C21320029   3.513  -0.462   9.392  0.6359 -1.0222 -1.2333
  176SOPE  H13R20030   3.427  -0.527   9.364 -0.1879 -0.4981  0.0648
  176SOPE  H13S20031   3.581  -0.520   9.457  1.2547 -0.0491 -1.0020
  176SOPE  C21420032   3.599  -0.423   9.272  0.5698 -0.4869 -0.5668
  176SOPE  H14R20033   3.689  -0.372   9.313 -0.8643 -0.3653  2.5413
  176SOPE  H14S20034   3.547  -0.348   9.207  0.4879 -0.5743 -0.6022
  176SOPE  C21520035   3.642  -0.544   9.182  0.3146 -1.1025  0.5974
  176SOPE  H15R20036   3.546  -0.588   9.146 -0.0248  0.8190 -0.8863
  176SOPE  H15S20037   3.696  -0.622   9.241  2.6001 -0.6765 -0.8872
  176SOPE  C21620038   3.736  -0.513   9.064 -0.9085  0.0488  0.0055
  176SOPE  H16R20039   3.758  -0.607   9.009 -0.5208  0.5459 -0.6964
  176SOPE  H16S20040   3.831  -0.478   9.111  0.5084 -3.4147 -0.0808
  176SOPE  C21720041   3.682  -0.409   8.968  0.2522  0.3998 -0.4186
  176SOPE  H17R20042   3.688  -0.311   9.019 -1.8350 -0.3580  1.3337
  176SOPE  H17S20043   3.576  -0.434   8.946 -0.5198 -0.0390  3.5793
  176SOPE  C21820044   3.757  -0.405   8.838 -0.0357  0.2493 -0.2683
  176SOPE  H18R20045   3.769  -0.511   8.804 -1.8400  0.4505 -1.5903
  176SOPE  H18S20046   3.854  -0.353   8.853 -0.6633  0.9169  1.5097
  176SOPE  H18T20047   3.706  -0.358   8.751  0.2092  0.6527 -0.1942
  176SOPE   C3320048   3.168   0.085   9.930 -0.4942  0.3797  0.5223
  176SOPE   H3X20049   3.094   0.148   9.984 -1.8197 -1.7405  1.2501
  176SOPE   H3Y20050   3.103  -0.006   9.937  1.6343 -1.1592  0.8035
  176SOPE   C3420051   3.197   0.116   9.777 -0.0967  0.0499  0.6468
  176SOPE   H4X20052   3.284   0.058   9.741 -0.2554  1.6102 -2.3927
  176SOPE   H4Y20053   3.227   0.223   9.769  2.4285 -0.5735  1.3420
  176SOPE   C3520054   3.079   0.080   9.686 -0.0576 -0.0870 -0.1868
  176SOPE   H5X20055   2.987   0.119   9.733  0.0660 -0.0784  0.0487
  176SOPE   H5Y20056   3.074  -0.031   9.692  2.5244 -0.3125 -1.3451
  176SOPE   C3620057   3.104   0.122   9.541  0.7287  0.0920  0.8662
  176SOPE   H6X20058   3.203   0.094   9.499 -0.5486 -0.9067 -1.6017
  176SOPE   H6Y20059   3.097   0.232   9.555  0.9449  0.0510  1.3070
  176SOPE   C3720060   2.998   0.078   9.440  0.1696  0.2014 -0.0784
  176SOPE   H7X20061   2.895   0.108   9.470 -2.1973 -2.8101 -4.4453
  176SOPE   H7Y20062   2.995  -0.032   9.455 -0.0957  0.3126  0.6879
  176SOPE   C3820063   3.034   0.096   9.291  0.9859  0.3572 -0.2329
  176SOPE   H8X20064   3.128   0.044   9.262  0.5046 -0.0660 -1.0836
  176SOPE   H8Y20065   3.052   0.200   9.259  1.5801  0.2554 -0.2419
  176SOPE   C3920066   2.921   0.024   9.217 -0.2385  0.2553  0.7517
  176SOPE   H9X20067   2.822   0.037   9.268 -0.0487 -3.0921  2.0690
  176SOPE   H9Y20068   2.938  -0.083   9.240 -0.7666  0.2446  1.1189
  176SOPE  C31020069   2.903   0.064   9.070 -0.0107  0.2983 -0.2935
  176SOPE  H10X20070   2.995   0.036   9.015 -0.1229 -0.9222  0.1207
  176SOPE  H10Y20071   2.891   0.173   9.052 -0.6689 -0.0770 -2.1911
  176SOPE  C31120072   2.781  -0.015   9.017  1.0289  0.2463 -0.1714
  176SOPE  H11X20073   2.684   0.019   9.059  0.4257 -0.8090 -0.6853
  176SOPE  H11Y20074   2.782  -0.119   9.056 -1.4228  0.4692  0.6034
  176SOPE  C31220075   2.771  -0.014   8.863  0.0683 -0.5180 -0.1781
  176SOPE  H12X20076   2.852  -0.072   8.813  0.0446  0.2290 -1.0965
  176SOPE  H12Y20077   2.780   0.089   8.822  2.4263 -0.4946  0.3195
  176SOPE  C31320078   2.635  -0.080   8.812 -0.7580 -0.6565  0.2241
  176SOPE  H13X20079   2.549  -0.043   8.872 -1.4745 -2.3777  0.2966
  176SOPE  H13Y20080   2.645  -0.190   8.827 -0.1147 -0.4093  1.7308
  176SOPE  C31420081   2.605  -0.046   8.668  0.1006  0.3524 -0.2885
  176SOPE  H14X20082   2.515  -0.093   8.622 -0.2245 -0.3460  1.0407
  176SOPE  H14Y20083   2.692  -0.071   8.603 -1.3596 -0.5246 -1.9460
  176SOPE  C31520084   2.568   0.103   8.652 -0.1086  0.3364  0.9796
  176SOPE  H15X20085   2.652   0.161   8.696  0.0760  0.1233  0.9128
  176SOPE  H15Y20086   2.471   0.133   8.697 -0.6129  0.4149 -0.1431
  176SOPE  C31620087   2.566   0.141   8.505 -0.0567 -0.0271 -0.0742
  176SOPE  H16X20088   2.492   0.069   8.466 -1.2747 -0.1997  2.4182
  176SOPE  H16Y20089   2.671   0.128   8.470  0.0765  2.4289 -0.7328
  176SOPE  C31720090   2.516   0.283   8.482 -0.0006 -0.2317 -0.1630
  176SOPE  H17X20091   2.413   0.296   8.521 -0.7538 -0.8283 -1.8969
  176SOPE  H17Y20092   2.504   0.302   8.373  1.0644 -0.8259 -0.3958
  176SOPE  C31820093   2.613   0.383   8.541  0.1150 -0.5148  0.0648
  176SOPE  H18X20094   2.715   0.369   8.499  1.5104 -1.2931  3.5179
  176SOPE  H18Y20095   2.616   0.380   8.652 -0.3629 -1.8063  0.0540
  176SOPE  H18Z20096   2.578   0.483   8.508  2.9073  0.0139 -1.3627
  177SOPE     N20097   3.349   5.616  11.281  0.0770 -0.5888  1.3128
  177SOPE   HN120098   3.250   5.624  11.313 -0.4994 -2.4334  0.0818
  177SOPE   HN220099   3.403   5.535  11.316 -0.5795 -1.8100 -0.4249
  177SOPE   HN320100   3.400   5.704  11.303  1.2183 -1.1939  1.1156
  177SOPE   C1220101   3.362   5.605  11.132  0.3775  0.0834  0.6076
  177SOPE  H12A20102   3.465   5.637  11.106 -0.0057 -0.3347 -1.5059
  177SOPE  H12B20103   3.286   5.672  11.086  0.4758 -0.3834 -0.2359
  177SOPE   C1120104   3.347   5.459  11.080 -0.7911 -0.7869 -0.1149
  177SOPE  H11A20105   3.385   5.452  10.976 -0.4706 -0.1994 -0.0341
  177SOPE  H11B20106   3.242   5.421  11.078 -0.3342 -2.0810 -0.3828
  177SOPE     P20107   3.565   5.317  11.119 -0.0415  0.0383 -0.0135
  177SOPE   O1320108   3.602   5.213  11.212 -0.0898 -0.5338  0.3738
  177SOPE   O1420109   3.642   5.445  11.119 -0.0816  0.3358 -0.4791
  177SOPE   O1220110   3.421   5.365  11.160 -0.2604 -0.1083  0.1390
  177SOPE   O1120111   3.543   5.249  10.983 -0.3862 -0.0940  0.3691
  177SOPE    C120112   3.630   5.138  10.940 -0.1603 -0.3999  0.0414
  177SOPE    HA20113   3.653   5.074  11.028  3.3013  0.7803  0.0905
  177SOPE    HB20114   3.725   5.177  10.898 -0.1864 -0.3293  0.0466
  177SOPE    C220115   3.562   5.065  10.818  0.0170 -0.3824 -0.0622
  177SOPE    HS20116   3.589   4.958  10.836 -0.2110 -0.7598 -1.8866
  177SOPE   O2120117   3.628   5.108  10.694  0.0415  0.1802 -0.1414
  177SOPE   C2120118   3.666   5.007  10.616 -0.1425 -0.2337  0.6774
  177SOPE   O2220119   3.639   4.894  10.628  0.1817  0.1086 -0.1315
  177SOPE   C2220120   3.733   5.065  10.490  0.1636 -0.1716  0.0285
  177SOPE   H2R20121   3.833   5.108  10.513 -0.4809  0.5015  1.6163
  177SOPE   H2S20122   3.655   5.138  10.463 -0.5097  0.0784  2.5183
  177SOPE    C320123   3.409   5.092  10.820 -0.9772 -0.2777 -0.8152
  177SOPE    HX20124   3.388   5.199  10.802  2.9875  0.6421 -0.5593
  177SOPE    HY20125   3.364   5.066  10.918  2.3091 -0.6885  0.6788
  177SOPE   O3120126   3.349   5.000  10.730  0.2151 -0.0216 -0.1547
  177SOPE   C3120127   3.313   5.047  10.617 -0.5176 -0.2058 -0.0820
  177SOPE   O3220128   3.329   5.160  10.573  0.6711  0.0488  0.0264
  177SOPE   C3220129   3.252   4.935  10.531 -0.1463  0.3265 -0.2362
  177SOPE   H2X20130   3.149   4.971  10.509 -0.5388 -1.2468 -1.0421
  177SOPE   H2Y20131   3.252   4.841  10.590  1.1850  1.3157  1.4100
  177SOPE   C2320132   3.763   4.961  10.380 -0.1981 -0.1255  0.8187
  177SOPE   H3R20133   3.678   4.899  10.343  1.1825 -2.1570  1.0024
  177SOPE   H3S20134   3.838   4.895  10.427 -0.3099 -1.4450 -0.7839
  177SOPE   C2420135   3.826   5.019  10.253  0.7502  0.9888 -0.9129
  177SOPE   H4R20136   3.873   5.114  10.287 -1.8665  1.9432  0.1780
  177SOPE   H4S20137   3.898   4.944  10.214  0.9545  0.4213  0.5293
  177SOPE   C2520138   3.716   5.037  10.153 -0.5902  0.0798  0.8100
  177SOPE   H5R20139   3.665   4.940  10.134  0.5207 -0.8544  2.3612
  177SOPE   H5S20140   3.634   5.105  10.183 -0.0612  1.0952 -0.0145
  177SOPE   C2620141   3.779   5.086  10.019  0.4656  0.0950 -0.2248
  177SOPE   H6R20142   3.866   5.154  10.028 -0.6616  1.7149 -1.2136
  177SOPE   H6S20143   3.793   4.995   9.958 -0.0892 -0.0521 -0.1331
  177SOPE   C2720144   3.677   5.171   9.941  0.1612  0.2385  0.3597
  177SOPE   H7R20145   3.584   5.113   9.922  0.5716 -0.9841  1.9227
  177SOPE   H7S20146   3.643   5.255  10.004 -0.4235 -0.5461  1.1084
  177SOPE   C2820147   3.729   5.214   9.806 -0.1404 -0.8378 -0.9354
  177SOPE   H8R20148   3.640   5.249   9.751  0.7762  2.3698 -0.4734
  177SOPE   H8S20149   3.797   5.300   9.828 -0.7052 -0.6266  0.0324
  177SOPE   C2920150   3.783   5.106   9.719 -0.3805 -0.1810  0.2184
  177SOPE   H9120151   3.766   5.001   9.746 -3.4356 -0.1800 -1.4568
  177SOPE  C21020152   3.850   5.143   9.608 -0.1767 -0.4548 -0.6154
  177SOPE  H10120153   3.884   5.063   9.541 -0.9330 -0.3781 -1.0907
  177SOPE  C21120154   3.871   5.286   9.553  0.2180  0.2640  0.5718
  177SOPE  H11R20155   3.979   5.311   9.550  0.4148 -0.2811  2.5137
  177SOPE  H11S20156   3.823   5.366   9.613  0.5492 -0.6773  2.1316
  177SOPE  C21220157   3.816   5.296   9.410  0.5038  0.3364 -0.1537
  177SOPE  H12R20158   3.885   5.258   9.332  0.6684  2.4335 -1.0616
  177SOPE  H12S20159   3.809   5.404   9.382 -0.4372  0.2686 -0.2096
  177SOPE  C21320160   3.671   5.243   9.406  0.5130 -0.2059  0.6368
  177SOPE  H13R20161   3.622   5.300   9.487  2.0123  1.0440  0.6865
  177SOPE  H13S20162   3.665   5.134   9.427  0.3744 -0.7614 -2.0908
  177SOPE  C21420163   3.617   5.273   9.266  0.1019 -0.0360 -0.3246
  177SOPE  H14R20164   3.684   5.229   9.190 -0.0330 -0.7183 -0.0589
  177SOPE  H14S20165   3.610   5.381   9.243  0.1948 -0.2485 -1.3742
  177SOPE  C21520166   3.469   5.216   9.249  0.1442 -0.0612  0.0896
  177SOPE  H15R20167   3.390   5.262   9.312  0.4589 -0.4974  0.8080
  177SOPE  H15S20168   3.473   5.111   9.285  0.0414 -0.1900 -0.2762
  177SOPE  C21620169   3.421   5.227   9.101  0.3469 -0.3114 -0.2444
  177SOPE  H16R20170   3.400   5.332   9.070  0.1405 -0.5714 -1.0006
  177SOPE  H16S20171   3.326   5.169   9.099 -0.7224  1.4042 -0.9365
  177SOPE  C21720172   3.503   5.154   8.995 -0.1062  0.1823 -0.2582
  177SOPE  H17R20173   3.528   5.053   9.033  0.1310  0.2101 -0.3436
  177SOPE  H17S20174   3.600   5.201   8.972  0.1054 -1.0963 -2.0618
  177SOPE  C21820175   3.438   5.140   8.860  0.1094  0.4232 -0.6282
  177SOPE  H18R20176   3.331   5.114   8.851  0.6038 -1.5882 -0.9381
  177SOPE  H18S20177   3.484   5.065   8.792 -1.9774 -1.1572 -0.3386
  177SOPE  H18T20178   3.440   5.236   8.803  0.9147 -0.1164 -1.5356
  177SOPE   C3320179   3.323   4.922  10.396  0.1081 -0.5629 -0.9027
  177SOPE   H3X20180   3.428   4.931  10.432 -0.3645  2.4791 -0.1138
  177SOPE   H3Y20181   3.307   5.014  10.335  1.3828 -1.0528 -1.9935
  177SOPE   C3420182   3.305   4.790  10.320 -0.5256  0.2385 -0.7315
  177SOPE   H4X20183   3.196   4.778  10.300 -0.5923 -0.7902  0.1783
  177SOPE   H4Y20184   3.341   4.706  10.383  1.0573 -0.3020 -2.3149
  177SOPE   C3520185   3.390   4.785  10.187  0.1588 -0.8250  0.6618
  177SOPE   H5X20186   3.393   4.678  10.156  0.0937 -0.9524  1.0861
  177SOPE   H5Y20187   3.497   4.809  10.205 -0.8836  3.7311  1.2392
  177SOPE   C3620188   3.338   4.862  10.073  0.0374 -0.0899 -0.2629
  177SOPE   H6X20189   3.331   4.972  10.093  1.5278 -0.1512  0.7109
  177SOPE   H6Y20190   3.240   4.815  10.053  0.9229 -1.7594 -0.7291
  177SOPE   C3720191   3.413   4.838   9.939  0.0206  1.1374  0.0551
  177SOPE   H7X20192   3.431   4.730   9.922  1.6072  1.8100 -2.8874
  177SOPE   H7Y20193   3.515   4.881   9.949  1.1643 -1.2403 -0.9654
  177SOPE   C3820194   3.330   4.886   9.821  0.0399 -0.4414  0.3367
  177SOPE   H8X20195   3.284   4.986   9.839  0.1304 -0.1682 -0.8814
  177SOPE   H8Y20196   3.241   4.823   9.797 -2.3965  2.5114  1.2871
  177SOPE   C3920197   3.425   4.901   9.702  0.4806  0.2741  0.6623
  177SOPE   H9X20198   3.470   4.799   9.704 -1.4396 -0.5845  0.8542
  177SOPE   H9Y20199   3.507   4.974   9.718  1.8413 -1.1941  0.6201
  177SOPE  C31020200   3.374   4.953   9.567  0.6101 -0.4182 -0.6394
  177SOPE  H10X20201   3.452   4.981   9.494 -0.6665  1.5691 -1.2811
  177SOPE  H10Y20202   3.323   5.045   9.603 -2.0945 -1.9999 -0.2500
  177SOPE  C31120203   3.267   4.866   9.506  0.1119 -0.6357  0.2932
  177SOPE  H11X20204   3.178   4.876   9.572  0.1147 -0.6114  0.2935
  177SOPE  H11Y20205   3.303   4.762   9.514 -0.8854 -1.0104 -0.0959
  177SOPE  C31220206   3.240   4.893   9.355 -0.5813 -0.3427  0.2327
  177SOPE  H12X20207   3.263   4.996   9.322 -1.6293 -1.1679 -3.3493
  177SOPE  H12Y20208   3.132   4.887   9.329 -0.2738 -0.8331 -0.9739
  177SOPE  C31320209   3.324   4.795   9.266 -0.4830 -0.2039  0.1948
  177SOPE  H13X20210   3.318   4.692   9.305 -1.7547 -0.6888 -1.2082
  177SOPE  H13Y20211   3.431   4.822   9.272 -0.2511 -1.6603  3.3807
  177SOPE  C31420212   3.283   4.793   9.115 -0.5621  0.9316  0.2596
  177SOPE  H14X20213   3.376   4.764   9.061  0.0292  2.5538  0.3776
  177SOPE  H14Y20214   3.248   4.894   9.085 -2.9302  0.3232  0.9086
  177SOPE  C31520215   3.175   4.691   9.079  0.0795 -0.2927 -0.2412
  177SOPE  H15X20216   3.093   4.699   9.153  0.6308  2.0436  0.1650
  177SOPE  H15Y20217   3.226   4.596   9.106 -0.3842 -0.6466 -0.6086
  177SOPE  C31620218   3.124   4.700   8.935  0.6373  0.6733  0.1702
  177SOPE  H16X20219   3.205   4.665   8.868 -0.6904 -0.7422 -0.7317
  177SOPE  H16Y20220   3.100   4.801   8.896 -1.5507 -0.6987 -2.1994
  177SOPE  C31720221   3.003   4.604   8.895  0.2730 -0.3007 -0.4691
  177SOPE  H17X20222   2.925   4.618   8.973  1.3652 -0.2042  0.6326
  177SOPE  H17Y20223   3.033   4.497   8.900 -3.1228 -1.2331  1.8233
  177SOPE  C31820224   2.950   4.638   8.761 -0.4618 -0.7418  0.2137
  177SOPE  H18X20225   3.030   4.618   8.686  0.2532 -0.8625  1.0037
  177SOPE  H18Y20226   2.917   4.744   8.756  1.8690 -0.0401 -1.2196
  177SOPE  H18Z20227   2.862   4.575   8.736  0.8648 -2.1025 -1.1454
  178SOPE     N20228   0.579   3.545  10.693 -0.0162 -0.3377  0.0161
  178SOPE   HN120229   0.524   3.600  10.762 -0.8743 -0.9614 -0.1581
  178SOPE   HN220230   0.649   3.610  10.653  0.0492 -0.6299 -0.3435
  178SOPE   HN320231   0.514   3.522  10.615  2.3713 -2.0122 -1.5240
  178SOPE   C1220232   0.649   3.421  10.747 -0.2829  1.1072 -0.2147
  178SOPE  H12A20233   0.721   3.454  10.825 -1.9098  0.7622  1.4698
  178SOPE  H12B20234   0.706   3.379  10.662  0.4089  1.2049  0.2015
  178SOPE   C1120235   0.542   3.328  10.800  0.3065 -0.5969  0.2592
  178SOPE  H11A20236   0.475   3.378  10.873  1.3872  1.9200 -0.4410
  178SOPE  H11B20237   0.583   3.240  10.855  1.7687  0.2863  0.6080
  178SOPE     P20238   0.373   3.138  10.696  0.7737 -0.0116 -0.0851
  178SOPE   O1320239   0.252   3.160  10.608  0.2898 -0.4553  0.3498
  178SOPE   O1420240   0.348   3.082  10.831  0.2174  1.0505  0.2044
  178SOPE   O1220241   0.456   3.277  10.694 -0.1230  0.3890 -0.3985
  178SOPE   O1120242   0.469   3.041  10.626 -0.0465  0.6478 -0.2196
  178SOPE    C120243   0.579   3.079  10.548 -0.3942  0.6239  0.1872
  178SOPE    HA20244   0.662   3.013  10.581  1.5560  3.2856  0.7939
  178SOPE    HB20245   0.607   3.187  10.547 -2.1535  1.0980  1.3294
  178SOPE    C220246   0.557   3.044  10.399 -0.0475 -0.0523  0.6749
  178SOPE    HS20247   0.539   2.935  10.400  1.5047 -0.4193 -3.0627
  178SOPE   O2120248   0.675   3.073  10.325  0.1167 -0.2210 -0.0766
  178SOPE   C2120249   0.714   2.989  10.227 -0.4902 -0.2611 -0.3081
  178SOPE   O2220250   0.669   2.876  10.218 -0.1262 -0.2930 -0.0377
  178SOPE   C2220251   0.838   3.039  10.151  0.3614  0.4354 -0.0128
  178SOPE   H2R20252   0.931   2.991  10.189 -0.0074 -0.2629 -0.0028
  178SOPE   H2S20253   0.843   3.150  10.160  1.5244  0.4039 -0.1252
  178SOPE    C320254   0.439   3.115  10.330  0.3011  0.0173 -0.1142
  178SOPE    HX20255   0.461   3.223  10.351 -2.0721  0.4926  0.0581
  178SOPE    HY20256   0.348   3.091  10.389  0.0786  2.1999  0.5011
  178SOPE   O3120257   0.441   3.087  10.188 -0.4459  0.0499 -0.1344
  178SOPE   C3120258   0.371   2.985  10.147  0.1483  0.6938 -0.2527
  178SOPE   O3220259   0.284   2.925  10.210 -0.4772 -0.9470 -0.4688
  178SOPE   C3220260   0.420   2.948  10.004 -0.6368  0.2314 -0.8088
  178SOPE   H2X20261   0.368   2.854   9.978 -2.3129  0.4218  1.7562
  178SOPE   H2Y20262   0.529   2.929  10.002 -0.7539 -1.1429  3.0907
  178SOPE   C2320263   0.816   3.013   9.999 -0.9558 -0.0021  0.0400
  178SOPE   H3R20264   0.711   3.034   9.972 -1.2419  0.0570  1.1857
  178SOPE   H3S20265   0.846   2.908   9.980 -2.6061  0.0265 -3.0321
  178SOPE   C2420266   0.898   3.108   9.907 -0.1882  0.2974 -0.6590
  178SOPE   H4R20267   0.882   3.210   9.949 -0.8545 -0.2365  0.4101
  178SOPE   H4S20268   1.006   3.093   9.929 -0.2775  0.0606 -0.3856
  178SOPE   C2520269   0.863   3.092   9.761  0.3974  0.7766 -0.2293
  178SOPE   H5R20270   0.757   3.109   9.735  0.6198 -0.1431 -1.8173
  178SOPE   H5S20271   0.924   3.171   9.711 -0.1791  1.9136  0.8271
  178SOPE   C2620272   0.902   2.956   9.700 -0.3772  0.0284 -0.0745
  178SOPE   H6R20273   1.012   2.956   9.715  0.0073 -1.2818 -2.5560
  178SOPE   H6S20274   0.857   2.869   9.752  0.2141  0.3484  0.9964
  178SOPE   C2720275   0.873   2.961   9.552  0.0387 -0.2349  1.1129
  178SOPE   H7R20276   0.885   2.859   9.509  0.6708  0.3285 -0.0519
  178SOPE   H7S20277   0.766   2.981   9.535  0.4305  2.1010  1.3158
  178SOPE   C2820278   0.946   3.069   9.476 -0.3841 -0.4839 -0.3748
  178SOPE   H8R20279   0.920   3.167   9.524 -1.3173 -0.7549 -0.3052
  178SOPE   H8S20280   1.056   3.061   9.486 -0.4464 -1.6332 -0.5618
  178SOPE   C2920281   0.926   3.071   9.326  0.3653 -0.9690  0.1463
  178SOPE   H9120282   0.880   3.162   9.285  0.0169 -0.1064  2.3805
  178SOPE  C21020283   0.963   2.977   9.240 -0.1182  0.4263  0.1346
  178SOPE  H10120284   0.953   3.006   9.134 -1.7350  1.0206  0.4351
  178SOPE  C21120285   1.034   2.843   9.260  0.5129 -0.8102  0.7280
  178SOPE  H11R20286   0.963   2.758   9.253 -2.1958  1.4777 -1.0831
  178SOPE  H11S20287   1.083   2.850   9.360  0.5406  2.3611  0.5668
  178SOPE  C21220288   1.142   2.813   9.151 -0.3719 -0.1393  0.4805
  178SOPE  H12R20289   1.205   2.727   9.185  0.8684  0.6478  0.1934
  178SOPE  H12S20290   1.211   2.899   9.148 -0.4146 -0.1257 -0.2536
  178SOPE  C21320291   1.081   2.785   9.013  0.0119  0.4430  0.0680
  178SOPE  H13R20292   1.027   2.874   8.975 -1.4292 -0.5846 -0.3592
  178SOPE  H13S20293   1.015   2.695   9.019 -2.1789  2.0395  0.6942
  178SOPE  C21420294   1.185   2.766   8.901  0.4131 -0.1199 -0.2904
  178SOPE  H14R20295   1.245   2.674   8.923  0.4149 -0.2495 -0.8122
  178SOPE  H14S20296   1.268   2.839   8.888  1.3959 -1.2583 -0.5845
  178SOPE  C21520297   1.118   2.721   8.767 -0.3993 -0.0640 -0.4244
  178SOPE  H15R20298   1.085   2.820   8.729 -1.5355 -0.4110 -0.3597
  178SOPE  H15S20299   1.028   2.658   8.782 -0.2078 -0.5992 -1.4517
  178SOPE  C21620300   1.220   2.675   8.667  0.0665 -0.2551  0.6219
  178SOPE  H16R20301   1.171   2.581   8.632 -1.5505  0.0476  1.9784
  178SOPE  H16S20302   1.306   2.637   8.725 -0.4650 -1.0992  0.8669
  178SOPE  C21720303   1.252   2.769   8.554  0.6204  0.5550  0.1712
  178SOPE  H17R20304   1.306   2.706   8.480  0.1565  0.6668 -0.2647
  178SOPE  H17S20305   1.328   2.845   8.580  1.3094  0.0209 -0.2375
  178SOPE  C21820306   1.131   2.834   8.484  0.2175  0.3399  0.1068
  178SOPE  H18R20307   1.044   2.767   8.465 -0.4081  1.5264 -1.3095
  178SOPE  H18S20308   1.147   2.870   8.380  2.1707  0.9356  0.6063
  178SOPE  H18T20309   1.092   2.922   8.539  1.1041  0.3840  0.6642
  178SOPE   C3320310   0.373   3.054   9.904  0.5653 -0.7009 -0.6316
  178SOPE   H3X20311   0.412   3.157   9.918 -0.8367  0.1600 -2.7302
  178SOPE   H3Y20312   0.264   3.071   9.922  0.4297 -2.3052  0.0984
  178SOPE   C3420313   0.380   3.019   9.755  0.6130 -0.0576  0.1641
  178SOPE   H4X20314   0.312   2.937   9.720 -0.2618  0.5334  0.4698
  178SOPE   H4Y20315   0.484   2.992   9.727  0.6536  0.2267  0.0449
  178SOPE   C3520316   0.344   3.137   9.659  0.0806 -0.3394 -0.0462
  178SOPE   H5X20317   0.400   3.231   9.677 -1.9459  1.1864 -1.5532
  178SOPE   H5Y20318   0.237   3.168   9.666  0.0915 -0.4470  0.6295
  178SOPE   C3620319   0.353   3.091   9.509  0.0793  0.0372 -0.8069
  178SOPE   H6X20320   0.306   3.169   9.446  0.9332 -0.3959 -2.0034
  178SOPE   H6Y20321   0.293   2.998   9.496  1.6667 -1.1875  0.3189
  178SOPE   C3720322   0.502   3.076   9.463 -0.4598 -0.3262  0.0889
  178SOPE   H7X20323   0.537   2.980   9.506 -0.0651  0.0499  0.6142
  178SOPE   H7Y20324   0.567   3.160   9.496  0.3497 -1.3232  1.0720
  178SOPE   C3820325   0.517   3.083   9.311 -0.0140  0.4624  1.0135
  178SOPE   H8X20326   0.613   3.033   9.285 -0.2179  0.1195  0.9141
  178SOPE   H8Y20327   0.519   3.186   9.269  2.0180  0.2521  0.5575
  178SOPE   C3920328   0.407   3.004   9.225 -0.4568 -0.2658 -0.1477
  178SOPE   H9X20329   0.305   3.046   9.242 -0.2563  0.1464  0.0594
  178SOPE   H9Y20330   0.404   2.898   9.258 -1.2026 -0.1693  0.1064
  178SOPE  C31020331   0.418   2.999   9.071 -0.2342 -0.3879 -0.6083
  178SOPE  H10X20332   0.464   3.092   9.031 -0.4789  1.0553  2.2872
  178SOPE  H10Y20333   0.321   2.970   9.024 -1.6453  0.5125  1.6648
  178SOPE  C31120334   0.508   2.883   9.028  0.7277  0.6548  0.1013
  178SOPE  H11X20335   0.466   2.839   8.935 -0.0748 -0.7567  1.1014
  178SOPE  H11Y20336   0.498   2.797   9.097 -0.5734  0.3660 -0.4384
  178SOPE  C31220337   0.650   2.919   8.996 -0.3793  0.2784  0.1676
  178SOPE  H12X20338   0.711   2.828   8.975 -1.6576 -0.5037 -0.2194
  178SOPE  H12Y20339   0.685   2.967   9.090 -2.5827  1.5248  0.3850
  178SOPE  C31320340   0.659   3.025   8.881  0.1981  0.0031 -0.3864
  178SOPE  H13X20341   0.677   3.130   8.914  4.7986 -0.5864 -0.5771
  178SOPE  H13Y20342   0.559   3.016   8.835  0.0253 -1.2210  0.2036
  178SOPE  C31420343   0.764   2.984   8.775  0.4566 -0.2270 -0.3915
  178SOPE  H14X20344   0.763   2.874   8.759 -0.1298 -0.0795 -1.4206
  178SOPE  H14Y20345   0.867   3.022   8.794  0.6168 -0.4991 -0.6994
  178SOPE  C31520346   0.725   3.057   8.644 -0.0833  0.5841 -0.1872
  178SOPE  H15X20347   0.705   3.164   8.664 -0.8827  0.5224 -0.6232
  178SOPE  H15Y20348   0.631   3.008   8.610 -0.8062  0.3648  2.0737
  178SOPE  C31620349   0.824   3.046   8.525 -0.2032 -0.6495  0.3289
  178SOPE  H16X20350   0.861   2.943   8.509 -0.4644 -0.8169  0.8023
  178SOPE  H16Y20351   0.921   3.087   8.559 -0.0488 -0.0086 -0.8554
  178SOPE  C31720352   0.792   3.122   8.400  0.5458 -0.0626  0.4494
  178SOPE  H17X20353   0.783   3.231   8.417 -1.8219 -0.2299  0.2982
  178SOPE  H17Y20354   0.695   3.089   8.356 -0.1143  2.0094  0.3280
  178SOPE  C31820355   0.886   3.113   8.281 -0.2521 -0.0641 -0.2104
  178SOPE  H18X20356   0.880   3.018   8.223  1.6799 -0.5478  0.3404
  178SOPE  H18Y20357   0.992   3.132   8.310 -0.4285 -1.2400  1.2343
  178SOPE  H18Z20358   0.856   3.188   8.205  0.0487 -0.5393 -0.8049
  179SOPE     N20359   5.538   3.605   6.655 -0.7469  0.1991  0.0834
  179SOPE   HN120360   5.625   3.555   6.628 -0.1281  1.6707 -0.7135
  179SOPE   HN220361   5.556   3.654   6.745  0.7758  0.6999 -0.4719
  179SOPE   HN320362   5.474   3.526   6.678  0.1003  0.1775  2.4359
  179SOPE   C1220363   5.494   3.694   6.548  0.8461 -0.4019 -0.5831
  179SOPE  H12A20364   5.413   3.750   6.600  0.5285 -1.2134 -0.1830
  179SOPE  H12B20365   5.451   3.635   6.464 -0.2116  1.2706 -1.2251
  179SOPE   C1120366   5.606   3.789   6.513 -0.8488 -0.3140  0.2370
  179SOPE  H11A20367   5.658   3.835   6.599  0.6220 -0.0571 -0.7528
  179SOPE  H11B20368   5.565   3.868   6.447 -0.0255 -0.5648 -0.5976
  179SOPE     P20369   5.799   3.780   6.336 -0.7857  0.2161  0.3052
  179SOPE   O1320370   5.745   3.798   6.205 -0.6591  0.3051 -0.0612
  179SOPE   O1420371   5.916   3.692   6.338  0.0318 -0.5711  0.0719
  179SOPE   O1220372   5.699   3.717   6.434  0.5003  0.2277  0.3124
  179SOPE   O1120373   5.835   3.923   6.390 -0.3986 -0.1662 -0.2628
  179SOPE    C120374   5.957   3.950   6.465  0.2172 -0.0854  0.3253
  179SOPE    HA20375   6.005   4.039   6.418 -1.0058  0.7645  0.6711
  179SOPE    HB20376   6.044   3.882   6.452  0.8944  0.4938  1.7028
  179SOPE    C220377   5.931   3.985   6.621 -0.7623  0.7234 -0.4929
  179SOPE    HS20378   6.027   4.020   6.664 -0.1899  0.2804 -1.3853
  179SOPE   O2120379   5.877   3.871   6.696 -0.5716  0.0778 -0.1505
  179SOPE   C2120380   5.975   3.797   6.739 -0.6170 -0.3235 -0.0798
  179SOPE   O2220381   6.093   3.816   6.729 -0.2225 -0.2523  0.1970
  179SOPE   C2220382   5.907   3.666   6.815  0.4101  0.1249 -0.5402
  179SOPE   H2R20383   5.872   3.610   6.726  0.8979 -2.5106  0.8876
  179SOPE   H2S20384   5.812   3.706   6.859 -0.2243 -0.3519 -1.4604
  179SOPE    C320385   5.835   4.111   6.628  0.2458  0.4894  0.0915
  179SOPE    HX20386   5.750   4.086   6.562  0.2270  1.1901 -0.1468
  179SOPE    HY20387   5.888   4.200   6.586  1.4950 -0.3272 -0.0967
  179SOPE   O3120388   5.774   4.138   6.758 -1.1436  0.1831 -0.5285
  179SOPE   C3120389   5.869   4.185   6.847  0.0174  0.6618  0.1757
  179SOPE   O3220390   5.988   4.201   6.822 -0.0230  0.6586  0.0791
  179SOPE   C3220391   5.803   4.239   6.971 -0.5398 -0.6350  0.3071
  179SOPE   H2X20392   5.715   4.301   6.942  1.3313  0.5463 -3.1404
  179SOPE   H2Y20393   5.867   4.316   7.020 -2.3116  2.3059 -1.7987
  179SOPE   C2320394   5.994   3.578   6.903 -0.0249  0.8357  0.1833
  179SOPE   H3R20395   6.084   3.539   6.850  1.0590  0.2278  2.3926
  179SOPE   H3S20396   5.938   3.492   6.944  0.8736  0.4504  0.6224
  179SOPE   C2420397   6.034   3.652   7.031 -0.6668 -0.2947 -0.4394
  179SOPE   H4R20398   6.114   3.728   7.016 -1.4976 -0.1444 -4.9136
  179SOPE   H4S20399   5.942   3.706   7.063  0.0708 -0.4886  2.1275
  179SOPE   C2520400   6.081   3.553   7.146  0.5728  0.6317  0.0729
  179SOPE   H5R20401   6.036   3.451   7.150 -2.5966  1.8582 -2.1220
  179SOPE   H5S20402   6.188   3.530   7.130  0.9070  1.5835  0.9312
  179SOPE   C2620403   6.069   3.620   7.284  0.6117 -0.4085  0.2519
  179SOPE   H6R20404   6.131   3.711   7.295  0.5072 -0.3331  0.2185
  179SOPE   H6S20405   5.963   3.650   7.296  0.3523 -1.3746  0.4558
  179SOPE   C2720406   6.105   3.521   7.392 -0.4745 -1.2077  0.5554
  179SOPE   H7R20407   6.013   3.458   7.396 -0.8377 -0.7310 -0.1302
  179SOPE   H7S20408   6.195   3.466   7.359 -0.5597 -1.4255  0.6880
  179SOPE   C2820409   6.130   3.589   7.531  0.2261 -0.5620 -0.3721
  179SOPE   H8R20410   6.185   3.511   7.589  0.8500  0.1622  0.0162
  179SOPE   H8S20411   6.207   3.669   7.519  0.2549 -0.1661  2.1057
  179SOPE   C2920412   5.998   3.629   7.593 -0.4714  0.2490  0.2627
  179SOPE   H9120413   5.904   3.595   7.547 -0.7940 -0.7797  1.6234
  179SOPE  C21020414   5.977   3.677   7.717 -0.7730 -0.3979 -0.1026
  179SOPE  H10120415   5.875   3.707   7.745 -0.2352  1.2357  0.1830
  179SOPE  C21120416   6.090   3.719   7.812  0.1847  0.3211 -0.5229
  179SOPE  H11R20417   6.083   3.830   7.815  1.4628  0.3852  1.1866
  179SOPE  H11S20418   6.192   3.679   7.790  0.1866  1.2276 -2.2805
  179SOPE  C21220419   6.054   3.674   7.960 -0.0945  0.1580  0.5823
  179SOPE  H12R20420   6.146   3.690   8.021  0.3740 -0.7370  0.1148
  179SOPE  H12S20421   6.031   3.565   7.955  1.3007 -0.1227  0.2019
  179SOPE  C21320422   5.945   3.758   8.035 -1.0279  0.6179 -0.2288
  179SOPE  H13R20423   5.851   3.725   7.986 -0.5773 -0.4845 -0.3516
  179SOPE  H13S20424   5.954   3.869   8.033  1.8932  0.5268  3.5465
  179SOPE  C21420425   5.945   3.746   8.189 -0.3927  0.0046  0.5724
  179SOPE  H14R20426   6.030   3.806   8.227 -0.9602  1.4970 -0.4504
  179SOPE  H14S20427   5.943   3.639   8.216 -0.1816 -0.1002  0.1744
  179SOPE  C21520428   5.821   3.810   8.251 -0.4101 -0.2528  0.1728
  179SOPE  H15R20429   5.732   3.750   8.221  0.4046 -0.7168 -1.4117
  179SOPE  H15S20430   5.804   3.912   8.210  1.1288 -0.3202 -0.6678
  179SOPE  C21620431   5.816   3.811   8.404 -0.2847  0.6101 -0.2662
  179SOPE  H16R20432   5.740   3.889   8.427 -0.9198 -0.3144  0.8268
  179SOPE  H16S20433   5.910   3.843   8.453  0.3825 -1.3106 -0.2514
  179SOPE  C21720434   5.792   3.671   8.469  0.8090 -0.5368  0.3033
  179SOPE  H17R20435   5.854   3.593   8.419 -1.0008 -2.2199  0.6428
  179SOPE  H17S20436   5.685   3.646   8.456  1.0938 -1.9196  0.5135
  179SOPE  C21820437   5.811   3.670   8.614  0.1611 -0.3497 -0.1079
  179SOPE  H18R20438   5.782   3.572   8.659  2.5260 -0.2586  1.7252
  179SOPE  H18S20439   5.731   3.731   8.660 -1.6363 -2.6929  0.0116
  179SOPE  H18T20440   5.909   3.702   8.656  0.5837  0.0626 -1.3944
  179SOPE   C3320441   5.764   4.123   7.067 -1.0769 -0.2345 -0.3505
  179SOPE   H3X20442   5.724   4.030   7.022 -0.4933 -0.9420  0.5811
  179SOPE   H3Y20443   5.675   4.152   7.128 -0.3445 -0.1662  0.6993
  179SOPE   C3420444   5.878   4.080   7.164 -0.2870 -0.4758 -0.5801
  179SOPE   H4X20445   5.948   4.164   7.180 -1.5238  0.4945 -0.2339
  179SOPE   H4Y20446   5.924   3.990   7.116 -1.8140 -0.6546 -1.7704
  179SOPE   C3520447   5.826   4.037   7.305 -0.3868  0.2685  0.0103
  179SOPE   H5X20448   5.738   3.973   7.282  1.8589 -2.0978 -2.3474
  179SOPE   H5Y20449   5.799   4.126   7.365 -0.0582 -0.0021  0.5655
  179SOPE   C3620450   5.937   3.950   7.383  0.2512  0.5860 -0.3186
  179SOPE   H6X20451   6.002   3.886   7.319 -1.8475 -1.4362 -0.5156
  179SOPE   H6Y20452   5.883   3.880   7.451 -1.3370  1.1674 -0.9391
  179SOPE   C3720453   6.022   4.039   7.471  0.3396  0.6099 -0.1391
  179SOPE   H7X20454   6.080   4.098   7.396  0.2378  2.5317  1.2614
  179SOPE   H7Y20455   6.087   3.965   7.524  0.0765  1.0333  0.7826
  179SOPE   C3820456   5.949   4.103   7.592  1.0458 -0.4059 -0.3181
  179SOPE   H8X20457   5.886   4.020   7.631  1.9320 -2.0208 -2.2565
  179SOPE   H8Y20458   5.874   4.176   7.556  0.3926 -2.1030 -2.5015
  179SOPE   C3920459   6.048   4.155   7.693 -0.2483  0.3128 -0.4864
  179SOPE   H9X20460   6.073   4.259   7.661  0.7631 -0.9081 -3.9557
  179SOPE   H9Y20461   6.136   4.089   7.673 -2.0037 -2.0384 -0.5832
  179SOPE  C31020462   6.000   4.145   7.832  0.0916  0.8522  0.2797
  179SOPE  H10X20463   5.984   4.039   7.864 -2.4072  0.5528 -1.7774
  179SOPE  H10Y20464   5.900   4.190   7.853  0.3358  1.3732  0.3164
  179SOPE  C31120465   6.102   4.214   7.928 -0.4912  0.2753 -0.2019
  179SOPE  H11X20466   6.128   4.309   7.878 -0.9147 -0.0836 -1.1207
  179SOPE  H11Y20467   6.191   4.147   7.926 -1.1675 -0.6884  1.2304
  179SOPE  C31220468   6.034   4.229   8.061  0.3045 -0.1350  0.2031
  179SOPE  H12X20469   5.924   4.227   8.052 -0.0160  2.3551  2.7970
  179SOPE  H12Y20470   6.061   4.328   8.105 -0.2972 -0.2535  0.8570
  179SOPE  C31320471   6.086   4.136   8.168 -0.0405  0.0901  0.3900
  179SOPE  H13X20472   6.194   4.159   8.160 -0.0402  0.6505  1.7601
  179SOPE  H13Y20473   6.059   4.031   8.143 -0.5415  0.8687 -2.4732
  179SOPE  C31420474   6.037   4.176   8.308 -0.3375  0.2147 -0.0092
  179SOPE  H14X20475   6.081   4.272   8.342  2.5002 -1.0500  0.0390
  179SOPE  H14Y20476   6.076   4.107   8.387  1.2709  0.8889 -0.1917
  179SOPE  C31520477   5.881   4.197   8.319 -0.8272 -0.3547  0.4869
  179SOPE  H15X20478   5.833   4.122   8.252  0.5204  0.6592 -1.6671
  179SOPE  H15Y20479   5.859   4.300   8.284 -1.6520 -0.0330  1.9086
  179SOPE  C31620480   5.835   4.184   8.469  0.4800  0.0097 -0.5783
  179SOPE  H16X20481   5.901   4.253   8.526  0.2664 -0.0482 -0.2624
  179SOPE  H16Y20482   5.855   4.078   8.498 -0.9579 -0.5141 -1.4437
  179SOPE  C31720483   5.697   4.226   8.483 -0.0313  0.1268  0.1372
  179SOPE  H17X20484   5.632   4.164   8.417  1.9020 -1.2885 -0.4566
  179SOPE  H17Y20485   5.697   4.333   8.454 -2.7334  0.4200  1.0099
  179SOPE  C31820486   5.633   4.194   8.621  0.2882 -0.3647  0.7196
  179SOPE  H18X20487   5.680   4.266   8.691 -0.4258  0.6168  0.2145
  179SOPE  H18Y20488   5.664   4.090   8.644 -0.2073 -1.2907 -2.5664
  179SOPE  H18Z20489   5.525   4.219   8.611  0.9029  1.6879 -1.5640
  180SOPE     N20490   4.906   3.734   6.060  0.1872  0.0568  0.6083
  180SOPE   HN120491   4.866   3.690   5.975  2.7171 -0.2829 -0.4203
  180SOPE   HN220492   4.876   3.832   6.039 -0.5141 -0.6503 -1.8484
  180SOPE   HN320493   5.008   3.723   6.048  0.4277  0.9296  1.7320
  180SOPE   C1220494   4.856   3.702   6.195 -0.0078 -0.4439 -0.1125
  180SOPE  H12A20495   4.879   3.595   6.216  2.9788  0.2053  0.1206
  180SOPE  H12B20496   4.749   3.727   6.212  0.3009 -0.2685  1.7212
  180SOPE   C1120497   4.939   3.774   6.304 -0.4511  0.4518  0.4461
  180SOPE  H11A20498   4.906   3.754   6.408 -1.1082  1.2416  0.3866
  180SOPE  H11B20499   4.916   3.882   6.293  0.8730  0.7283  0.3600
  180SOPE     P20500   5.151   3.644   6.372  0.2734  0.2188  0.2773
  180SOPE   O1320501   5.273   3.605   6.287 -0.1815 -0.5291  0.1615
  180SOPE   O1420502   5.043   3.546   6.403 -0.0274  0.6780 -0.1633
  180SOPE   O1220503   5.078   3.762   6.289 -0.4213  0.4509  0.2234
  180SOPE   O1120504   5.187   3.712   6.510 -0.7008  0.4846  0.0543
  180SOPE    C120505   5.133   3.818   6.592  0.0124  0.1220 -0.6131
  180SOPE    HA20506   5.029   3.836   6.559  0.5796 -0.0780 -2.6132
  180SOPE    HB20507   5.193   3.905   6.555  0.9186 -0.2490 -0.0350
  180SOPE    C220508   5.134   3.812   6.745  0.3440  0.1835 -0.2986
  180SOPE    HS20509   5.240   3.790   6.770  0.4996  0.6397 -0.5530
  180SOPE   O2120510   5.046   3.703   6.793 -0.1413  0.3524  0.1514
  180SOPE   C2120511   5.099   3.588   6.806  0.1463 -0.1476 -0.1432
  180SOPE   O2220512   5.217   3.565   6.812 -1.4797  0.2797 -0.4648
  180SOPE   C2220513   4.990   3.481   6.827 -0.3572 -0.5924 -0.7119
  180SOPE   H2R20514   4.934   3.468   6.731  0.6124  0.3327 -1.4166
  180SOPE   H2S20515   4.915   3.527   6.895  0.2895 -0.2823 -0.2031
  180SOPE    C320516   5.087   3.944   6.803 -0.0290  0.3215  0.7196
  180SOPE    HX20517   4.997   3.979   6.749 -0.3224 -0.0498  0.9692
  180SOPE    HY20518   5.168   4.020   6.791 -2.0854  2.5894  0.9004
  180SOPE   O3120519   5.062   3.939   6.942  0.2283  0.2173  0.3578
  180SOPE   C3120520   4.934   3.926   6.980  0.0112  0.1248  0.3501
  180SOPE   O3220521   4.838   3.922   6.905  0.6301 -0.4527  0.0206
  180SOPE   C3220522   4.938   3.886   7.123 -0.5413  0.1427 -0.1061
  180SOPE   H2X20523   5.042   3.886   7.161  0.1556 -1.2516 -1.9093
  180SOPE   H2Y20524   4.910   3.779   7.124 -1.5228  0.3731 -1.3764
  180SOPE   C2320525   5.048   3.351   6.892 -0.4755  0.8233  0.3508
  180SOPE   H3R20526   5.131   3.313   6.830 -1.4159 -2.7255  1.1575
  180SOPE   H3S20527   4.962   3.280   6.889 -1.4354  1.9704  0.1175
  180SOPE   C2420528   5.076   3.370   7.039 -0.2431  0.5491 -0.3141
  180SOPE   H4R20529   5.131   3.281   7.078 -1.0312  0.2197  0.0413
  180SOPE   H4S20530   5.146   3.456   7.049  1.9106 -1.1640 -0.1503
  180SOPE   C2520531   4.954   3.412   7.126 -0.5499  0.0041 -0.2227
  180SOPE   H5R20532   4.912   3.511   7.098  2.0090  1.9712  2.4835
  180SOPE   H5S20533   4.871   3.338   7.122 -1.7854  1.3299  0.3327
  180SOPE   C2620534   4.986   3.441   7.279  0.7576 -0.2300  0.4728
  180SOPE   H6R20535   5.030   3.355   7.334 -0.5254 -1.7768 -0.8670
  180SOPE   H6S20536   5.067   3.516   7.276 -1.0131  1.6608 -1.8273
  180SOPE   C2720537   4.870   3.500   7.362  0.1290  0.0794 -0.1498
  180SOPE   H7R20538   4.799   3.552   7.295  1.2657  1.8741 -0.0095
  180SOPE   H7S20539   4.814   3.416   7.407 -0.2079  0.9876  1.1680
  180SOPE   C2820540   4.921   3.579   7.478  0.0494 -0.2629 -0.6570
  180SOPE   H8R20541   4.992   3.522   7.541  0.3748  2.5157  1.5716
  180SOPE   H8S20542   4.983   3.662   7.438 -0.1168  1.3734  2.3402
  180SOPE   C2920543   4.812   3.640   7.559 -0.0106 -0.7919  0.2479
  180SOPE   H9120544   4.742   3.700   7.499  0.5578  2.1079  2.4032
  180SOPE  C21020545   4.798   3.639   7.692  0.2747 -0.2321 -0.0007
  180SOPE  H10120546   4.710   3.685   7.740 -1.1136  0.5843 -3.1960
  180SOPE  C21120547   4.883   3.570   7.795  0.0924 -0.2756  0.1884
  180SOPE  H11R20548   4.919   3.649   7.865  1.8060 -0.4213 -0.5021
  180SOPE  H11S20549   4.969   3.525   7.741  0.4319 -0.7135  1.0683
  180SOPE  C21220550   4.806   3.462   7.867  0.3122 -0.1949  0.8989
  180SOPE  H12R20551   4.766   3.382   7.802 -2.5126  1.4814  0.4798
  180SOPE  H12S20552   4.713   3.512   7.900  0.8672  0.9370  0.7840
  180SOPE  C21320553   4.887   3.398   7.984  0.4342 -0.1846  0.5598
  180SOPE  H13R20554   4.934   3.478   8.044 -0.0446  0.0097  0.6780
  180SOPE  H13S20555   4.965   3.341   7.929  1.5928  0.3481  1.6334
  180SOPE  C21420556   4.820   3.300   8.082 -0.6119 -0.0364 -0.5026
  180SOPE  H14R20557   4.894   3.277   8.162  0.8556  0.3687 -1.7137
  180SOPE  H14S20558   4.799   3.205   8.029  1.5037 -0.9402  0.2464
  180SOPE  C21520559   4.695   3.363   8.151  0.1838  0.0918 -0.2735
  180SOPE  H15R20560   4.650   3.298   8.229 -2.0254  0.3162 -1.3117
  180SOPE  H15S20561   4.610   3.380   8.080 -0.8135  2.7199  1.4925
  180SOPE  C21620562   4.715   3.510   8.208  0.7664  0.0423  0.2904
  180SOPE  H16R20563   4.723   3.584   8.126 -0.8361 -1.2458 -1.0804
  180SOPE  H16S20564   4.808   3.506   8.268  1.2383 -0.8272 -0.4752
  180SOPE  C21720565   4.600   3.557   8.308 -0.9234  0.5249  0.3702
  180SOPE  H17R20566   4.505   3.545   8.252 -0.3650  0.1475 -0.5023
  180SOPE  H17S20567   4.616   3.665   8.324  0.2960  0.4652 -0.3674
  180SOPE  C21820568   4.601   3.484   8.436  0.0440 -0.3615  0.8484
  180SOPE  H18R20569   4.562   3.384   8.406 -0.4500 -0.3254  1.3545
  180SOPE  H18S20570   4.532   3.537   8.504  1.8588  0.3598  2.1456
  180SOPE  H18T20571   4.703   3.478   8.479  0.4700  1.4989  0.1235
  180SOPE   C3320572   4.846   3.961   7.223 -0.4510  0.4977  0.1496
  180SOPE   H3X20573   4.871   3.923   7.324  0.9473  0.2010 -0.2936
  180SOPE   H3Y20574   4.739   3.945   7.200  0.4927 -2.3887 -2.7608
  180SOPE   C3420575   4.876   4.116   7.236  0.3681  0.2476 -0.3156
  180SOPE   H4X20576   4.795   4.150   7.303  1.1085 -0.4693  0.9643
  180SOPE   H4Y20577   4.861   4.162   7.136 -1.1193  0.8505  0.1752
  180SOPE   C3520578   5.004   4.168   7.290 -1.0457 -0.2199 -0.8977
  180SOPE   H5X20579   4.987   4.275   7.313 -2.4758 -0.6651  0.2234
  180SOPE   H5Y20580   5.089   4.160   7.219 -0.4030  1.0638 -0.2838
  180SOPE   C3620581   5.061   4.094   7.420 -1.3768 -0.1244 -0.3809
  180SOPE   H6X20582   5.145   4.156   7.460 -0.9782 -2.9507  3.5162
  180SOPE   H6Y20583   5.107   3.996   7.396 -1.0461 -0.0909  0.0914
  180SOPE   C3720584   4.961   4.067   7.534 -0.2149 -0.4066  0.0120
  180SOPE   H7X20585   4.894   3.981   7.510  1.7453 -2.4058  1.4755
  180SOPE   H7Y20586   4.896   4.155   7.550  0.6025  0.3991 -1.0211
  180SOPE   C3820587   5.016   4.022   7.669 -1.3930 -0.1034 -0.5144
  180SOPE   H8X20588   5.099   4.090   7.699 -0.6558 -0.8769 -0.7822
  180SOPE   H8Y20589   5.054   3.918   7.658 -0.8214  0.0293  0.1736
  180SOPE   C3920590   4.916   4.012   7.780 -0.5031 -0.3416 -0.3235
  180SOPE   H9X20591   4.839   3.945   7.737  0.0501 -0.9609 -0.3522
  180SOPE   H9Y20592   4.873   4.111   7.808  0.2378 -0.0839 -0.0815
  180SOPE  C31020593   4.973   3.938   7.907  0.3860 -1.1278 -0.5395
  180SOPE  H10X20594   5.069   3.988   7.931  0.1419 -1.3410  0.9633
  180SOPE  H10Y20595   5.012   3.837   7.880 -0.1719 -1.1663 -1.2119
  180SOPE  C31120596   4.878   3.936   8.033 -0.7553  0.0755 -0.0695
  180SOPE  H11X20597   4.779   3.888   8.020 -0.0963 -1.1220 -0.7933
  180SOPE  H11Y20598   4.864   4.037   8.076 -0.1833 -0.7772  2.1956
  180SOPE  C31220599   4.954   3.861   8.140 -0.4543  0.2967  0.7641
  180SOPE  H12X20600   5.061   3.887   8.132 -0.6158  0.6778 -0.1666
  180SOPE  H12Y20601   4.932   3.752   8.142  0.0748  0.1897  0.9029
  180SOPE  C31320602   4.914   3.895   8.286 -0.0098 -0.2687  0.6217
  180SOPE  H13X20603   4.820   3.842   8.312 -0.4004  0.3264  0.4619
  180SOPE  H13Y20604   4.908   4.006   8.293  1.5820 -0.0716 -0.8218
  180SOPE  C31420605   5.015   3.833   8.396  0.3653  0.5494  0.2295
  180SOPE  H14X20606   5.114   3.881   8.382 -0.4139  1.8651 -0.9884
  180SOPE  H14Y20607   5.023   3.725   8.370  0.5929  0.0473  2.3147
  180SOPE  C31520608   4.971   3.856   8.542 -0.0344  0.0435  0.3403
  180SOPE  H15X20609   5.024   3.794   8.617  0.8520 -0.4167 -0.6543
  180SOPE  H15Y20610   4.872   3.805   8.551 -0.3032  0.1865 -1.5989
  180SOPE  C31620611   4.973   4.005   8.592  0.3866 -0.3891  0.4786
  180SOPE  H16X20612   4.901   4.070   8.537  1.2033 -1.1990 -1.6132
  180SOPE  H16Y20613   5.076   4.042   8.574  0.6331 -1.6653 -0.8291
  180SOPE  C31720614   4.963   4.020   8.741  0.7178 -0.2356 -0.1403
  180SOPE  H17X20615   4.982   4.127   8.762  1.2772 -0.3139 -0.2622
  180SOPE  H17Y20616   5.044   3.961   8.788 -0.6364 -1.3348  0.8796
  180SOPE  C31820617   4.830   3.972   8.794 -0.1341 -0.6838 -0.3326
  180SOPE  H18X20618   4.821   3.864   8.769  1.9180 -0.6764 -1.2263
  180SOPE  H18Y20619   4.749   4.023   8.737 -0.3773  1.3918  1.8287
  180SOPE  H18Z20620   4.822   3.992   8.902 -0.6818 -0.7072 -0.3655
  181SOPE     N20621   4.728   2.235   6.154 -0.5223 -0.0605 -0.2292
  181SOPE   HN120622   4.676   2.298   6.218  0.0592 -2.1985  2.4106
  181SOPE   HN220623   4.740   2.144   6.204 -0.2533 -0.3091 -0.7339
  181SOPE   HN320624   4.820   2.277   6.129 -0.8171  0.0647 -1.1175
  181SOPE   C1220625   4.672   2.216   6.022 -0.0305  0.3881 -0.4159
  181SOPE  H12A20626   4.725   2.136   5.967  0.3315 -0.9381  1.7959
  181SOPE  H12B20627   4.670   2.312   5.966 -0.4836  1.7701  1.8790
  181SOPE   C1120628   4.531   2.171   6.043 -0.1755  0.4329  0.1397
  181SOPE  H11A20629   4.530   2.073   6.096  2.1505  0.2665 -0.0759
  181SOPE  H11B20630   4.486   2.165   5.941 -2.6138  0.0445  1.1887
  181SOPE     P20631   4.305   2.241   6.131 -0.0089 -0.0431 -0.1523
  181SOPE   O1320632   4.253   2.173   6.009 -0.1895 -0.4815  0.4544
  181SOPE   O1420633   4.232   2.354   6.179  0.5544  0.3773 -0.0723
  181SOPE   O1220634   4.458   2.275   6.115  0.0415 -0.3087  0.0225
  181SOPE   O1120635   4.315   2.133   6.240  0.2707 -0.2898  0.8426
  181SOPE    C120636   4.221   2.027   6.244  0.1424  0.8628 -0.7441
  181SOPE    HA20637   4.203   1.983   6.143 -0.3818  0.5942 -0.5340
  181SOPE    HB20638   4.122   2.072   6.269 -0.0562 -0.1241  0.2630
  181SOPE    C220639   4.277   1.920   6.337  0.0304  0.1448 -0.3983
  181SOPE    HS20640   4.204   1.836   6.324 -2.0853  2.0324 -1.0199
  181SOPE   O2120641   4.278   1.962   6.472  0.1402  0.0728 -0.5328
  181SOPE   C2120642   4.164   1.972   6.533 -0.9135 -0.4675  0.3128
  181SOPE   O2220643   4.055   1.941   6.491 -0.0160 -0.2963 -0.1543
  181SOPE   C2220644   4.180   2.043   6.666 -0.2475 -0.9282  0.3501
  181SOPE   H2R20645   4.080   2.053   6.712 -0.5442 -1.1853 -0.2391
  181SOPE   H2S20646   4.226   2.143   6.650  1.0793 -1.6004 -0.1412
  181SOPE    C320647   4.415   1.859   6.300  0.5369  0.0435  0.7546
  181SOPE    HX20648   4.487   1.941   6.322  1.1780  0.0037 -1.1037
  181SOPE    HY20649   4.431   1.844   6.191  0.5222 -0.4033  0.8127
  181SOPE   O3120650   4.440   1.738   6.375 -0.2235  0.0420  0.6047
  181SOPE   C3120651   4.569   1.704   6.383 -0.3673  0.6535  0.2928
  181SOPE   O3220652   4.662   1.762   6.332 -0.1720  0.1504 -0.4466
  181SOPE   C3220653   4.573   1.588   6.486  0.4822  0.0618  0.2980
  181SOPE   H2X20654   4.667   1.533   6.462  1.1153  2.4915 -2.9799
  181SOPE   H2Y20655   4.498   1.506   6.474  0.8885 -0.2129 -0.3749
  181SOPE   C2320656   4.268   1.966   6.774  0.3662 -0.2477 -0.7010
  181SOPE   H3R20657   4.366   1.949   6.725  0.7864 -0.7382  0.2998
  181SOPE   H3S20658   4.214   1.871   6.793  0.3694 -0.2812 -0.8607
  181SOPE   C2420659   4.279   2.050   6.898  0.2420  0.4690 -0.2650
  181SOPE   H4R20660   4.332   2.139   6.857  2.5217  0.3914  2.3756
  181SOPE   H4S20661   4.176   2.081   6.927  0.3220  0.1816  0.3292
  181SOPE   C2520662   4.356   1.994   7.016 -0.1288  0.2544 -0.0987
  181SOPE   H5R20663   4.316   1.898   7.055 -0.0869 -0.7572 -2.5034
  181SOPE   H5S20664   4.460   1.978   6.980  0.1309 -0.4041  0.9001
  181SOPE   C2620665   4.377   2.088   7.134 -0.3954 -1.0071  0.7489
  181SOPE   H6R20666   4.407   2.192   7.108  0.3973 -0.9571  1.8303
  181SOPE   H6S20667   4.278   2.100   7.183  0.4696  1.7370  1.9781
  181SOPE   C2720668   4.470   2.032   7.245 -0.6952  0.2770 -0.2143
  181SOPE   H7R20669   4.426   1.935   7.278  2.5562 -0.3135  2.7464
  181SOPE   H7S20670   4.574   2.019   7.207 -0.0969 -0.8749  1.7418
  181SOPE   C2820671   4.485   2.125   7.367 -0.0824 -0.0291  0.0773
  181SOPE   H8R20672   4.515   2.228   7.340  1.1663 -0.3862  0.0753
  181SOPE   H8S20673   4.384   2.135   7.413  0.4359  0.2641  1.1699
  181SOPE   C2920674   4.586   2.079   7.464 -0.1264 -0.0105  0.0067
  181SOPE   H9120675   4.653   2.004   7.419  1.0118  0.7602  0.3961
  181SOPE  C21020676   4.612   2.131   7.586  0.5215  0.4700  1.1147
  181SOPE  H10120677   4.679   2.077   7.655  0.9761  0.0838  0.3846
  181SOPE  C21120678   4.546   2.244   7.658 -0.0575  0.9850  0.4129
  181SOPE  H11R20679   4.481   2.299   7.587 -0.3277 -1.9572 -1.7030
  181SOPE  H11S20680   4.626   2.312   7.695  0.4731  0.0427  1.0178
  181SOPE  C21220681   4.461   2.196   7.781 -0.2823 -0.2144 -0.3785
  181SOPE  H12R20682   4.366   2.144   7.753  0.0638 -0.0505 -1.8618
  181SOPE  H12S20683   4.427   2.291   7.827 -2.0857 -0.4896 -1.0875
  181SOPE  C21320684   4.532   2.112   7.889  0.1749 -0.0331  0.8166
  181SOPE  H13R20685   4.608   2.177   7.937 -0.6848  1.7007 -0.0960
  181SOPE  H13S20686   4.585   2.026   7.843  1.5316  2.3045 -2.1401
  181SOPE  C21420687   4.437   2.083   8.004 -0.1403  0.0098 -0.6736
  181SOPE  H14R20688   4.351   2.019   7.978 -0.9456  1.4201 -1.5220
  181SOPE  H14S20689   4.397   2.183   8.030  0.3703 -0.3426  1.5406
  181SOPE  C21520690   4.493   2.011   8.128  0.1881  0.6536  0.3006
  181SOPE  H15R20691   4.591   2.058   8.150  0.1780  0.3572  0.9803
  181SOPE  H15S20692   4.495   1.905   8.096 -0.1397  1.1738 -1.5510
  181SOPE  C21620693   4.400   2.024   8.243  0.3508  0.1990  0.1923
  181SOPE  H16R20694   4.308   1.968   8.216 -0.1354  0.3329  1.5513
  181SOPE  H16S20695   4.372   2.131   8.257  0.8773  0.0982  2.0824
  181SOPE  C21720696   4.461   1.987   8.382 -0.3015 -0.3919  0.4699
  181SOPE  H17R20697   4.384   1.979   8.462  1.0901 -0.8169  1.7960
  181SOPE  H17S20698   4.533   2.067   8.410 -1.2068  0.8470 -0.6652
  181SOPE  C21820699   4.519   1.839   8.370 -0.3238 -0.3837  0.9971
  181SOPE  H18R20700   4.440   1.762   8.360  1.6226 -2.3621  0.4677
  181SOPE  H18S20701   4.583   1.837   8.461  1.4882  2.2984 -0.1301
  181SOPE  H18T20702   4.584   1.830   8.280 -2.0123 -1.1894 -0.1670
  181SOPE   C3320703   4.590   1.643   6.629 -0.1209 -0.4317  0.4939
  181SOPE   H3X20704   4.512   1.716   6.661  0.0925 -0.1534  0.3857
  181SOPE   H3Y20705   4.682   1.705   6.639  0.7272 -1.2655 -1.9354
  181SOPE   C3420706   4.588   1.538   6.738 -0.1958  0.4700 -0.0574
  181SOPE   H4X20707   4.672   1.465   6.726  0.4652  1.0309  1.0360
  181SOPE   H4Y20708   4.497   1.474   6.736  0.2870 -0.2825  1.0576
  181SOPE   C3520709   4.600   1.606   6.875  0.0973 -0.0721  0.8407
  181SOPE   H5X20710   4.500   1.633   6.913 -1.6824 -1.3495 -2.6999
  181SOPE   H5Y20711   4.659   1.699   6.861 -1.9652  1.1835  0.2964
  181SOPE   C3620712   4.675   1.526   6.984 -0.4284  0.2274 -0.3606
  181SOPE   H6X20713   4.784   1.522   6.966  0.1128  0.0645  2.7722
  181SOPE   H6Y20714   4.627   1.426   6.980 -1.2301  0.6041 -0.3709
  181SOPE   C3720715   4.658   1.588   7.121 -0.1514  0.3784 -0.0039
  181SOPE   H7X20716   4.554   1.623   7.138 -0.1741 -0.1454  1.0293
  181SOPE   H7Y20717   4.726   1.675   7.111 -1.0260  0.7423 -3.4997
  181SOPE   C3820718   4.699   1.501   7.244 -0.4198 -0.1199 -0.0343
  181SOPE   H8X20719   4.792   1.446   7.219  0.0658  0.4813  0.4461
  181SOPE   H8Y20720   4.624   1.420   7.259 -1.2683  1.1398  2.9467
  181SOPE   C3920721   4.715   1.588   7.364 -0.2558  0.0410  0.1291
  181SOPE   H9X20722   4.617   1.640   7.370 -0.3141 -0.2492  1.8659
  181SOPE   H9Y20723   4.797   1.661   7.351 -0.4583  0.6546  2.0443
  181SOPE  C31020724   4.752   1.504   7.492 -0.9590  0.3267  0.5111
  181SOPE  H10X20725   4.847   1.451   7.470 -1.4182  0.1394 -1.1624
  181SOPE  H10Y20726   4.678   1.432   7.533 -1.5648  0.7596  0.1870
  181SOPE  C31120727   4.777   1.594   7.615  0.0973  0.0702  0.7324
  181SOPE  H11X20728   4.827   1.687   7.582 -0.7590  0.5464  0.7659
  181SOPE  H11Y20729   4.835   1.539   7.692  0.1495  0.5076  1.0064
  181SOPE  C31220730   4.640   1.642   7.683  0.0263 -0.5953  0.3733
  181SOPE  H12X20731   4.568   1.559   7.696  0.6642 -1.2858 -0.3986
  181SOPE  H12Y20732   4.586   1.704   7.608 -0.1701 -0.8245  0.3238
  181SOPE  C31320733   4.660   1.727   7.815  0.2002  1.0142  0.6514
  181SOPE  H13X20734   4.566   1.770   7.855 -0.3674 -1.4319  2.0741
  181SOPE  H13Y20735   4.733   1.810   7.801  1.1665 -0.3717 -2.9158
  181SOPE  C31420736   4.706   1.637   7.936 -1.0196  0.0082  0.1376
  181SOPE  H14X20737   4.772   1.553   7.907  0.2982  1.7476 -2.0407
  181SOPE  H14Y20738   4.612   1.593   7.977  0.5270 -1.8574  1.7147
  181SOPE  C31520739   4.784   1.723   8.040  0.2589 -0.4028  0.4754
  181SOPE  H15X20740   4.715   1.786   8.099 -0.4351 -0.3994 -0.3320
  181SOPE  H15Y20741   4.863   1.783   7.991  1.0480  1.1584  3.5603
  181SOPE  C31620742   4.872   1.640   8.134  0.1470 -0.2891 -0.4270
  181SOPE  H16X20743   4.965   1.696   8.160 -0.8037  0.5168  1.3852
  181SOPE  H16Y20744   4.902   1.543   8.089 -0.8231 -0.5382 -0.5518
  181SOPE  C31720745   4.801   1.614   8.269 -0.2963  0.3646  0.1134
  181SOPE  H17X20746   4.779   1.700   8.336  0.9393  0.1846  0.7622
  181SOPE  H17Y20747   4.864   1.543   8.327  0.7857  0.8670 -0.4358
  181SOPE  C31820748   4.663   1.544   8.254 -0.4659 -0.9794 -0.1676
  181SOPE  H18X20749   4.673   1.443   8.208 -1.3252 -1.1979  0.1112
  181SOPE  H18Y20750   4.597   1.610   8.195 -2.0835 -3.7778 -1.5901
  181SOPE  H18Z20751   4.625   1.531   8.358  2.4539  0.7571  1.1828
  182SOPE     N20752   4.684   3.228   6.068 -0.2837 -0.1456 -0.1260
  182SOPE   HN120753   4.662   3.134   6.030  2.3295 -1.0861  0.5565
  182SOPE   HN220754   4.615   3.299   6.037 -1.2874 -1.7897 -1.7849
  182SOPE   HN320755   4.777   3.265   6.040 -0.0561 -0.2177  0.5239
  182SOPE   C1220756   4.681   3.224   6.216  0.4202 -0.0529  0.5148
  182SOPE  H12A20757   4.580   3.188   6.245 -0.9049  2.2411 -1.1208
  182SOPE  H12B20758   4.684   3.330   6.249 -0.8030  0.7416 -1.8303
  182SOPE   C1120759   4.805   3.143   6.269 -0.0129  0.3472 -0.0298
  182SOPE  H11A20760   4.793   3.040   6.229 -0.2879  0.2425  0.3185
  182SOPE  H11B20761   4.803   3.158   6.379  0.5207  1.5469 -0.1798
  182SOPE     P20762   5.060   3.106   6.227  0.8577  0.0987 -0.2544
  182SOPE   O1320763   5.176   3.187   6.267  0.4960 -0.1237  0.2454
  182SOPE   O1420764   5.077   3.033   6.099  0.0796  0.3752 -0.9281
  182SOPE   O1220765   4.935   3.196   6.218  0.1810 -0.2240  0.0410
  182SOPE   O1120766   5.020   2.998   6.342  0.5149  0.2366 -0.3305
  182SOPE    C120767   5.100   2.879   6.349 -0.4153  0.3039 -0.1730
  182SOPE    HA20768   5.203   2.912   6.373  0.2010 -0.0504 -2.1802
  182SOPE    HB20769   5.093   2.822   6.253  0.4062 -0.1876  0.0489
  182SOPE    C220770   5.056   2.785   6.469  0.1605  0.7413  0.2037
  182SOPE    HS20771   4.947   2.794   6.485 -0.0492 -0.4169 -0.5345
  182SOPE   O2120772   5.135   2.829   6.584  0.5691 -0.0481  0.0859
  182SOPE   C2120773   5.063   2.882   6.686 -0.1875  0.4470 -0.7348
  182SOPE   O2220774   4.941   2.879   6.699 -0.4356 -0.1986  0.1422
  182SOPE   C2220775   5.163   2.947   6.782 -0.6429 -0.3115  0.2952
  182SOPE   H2R20776   5.200   3.045   6.745  1.5771 -1.7563 -1.4683
  182SOPE   H2S20777   5.249   2.877   6.785  1.0383  1.6546 -1.1752
  182SOPE    C320778   5.074   2.634   6.443 -0.7231  0.1362 -1.2447
  182SOPE    HX20779   5.168   2.609   6.390 -0.9833 -2.0821 -0.6826
  182SOPE    HY20780   4.998   2.600   6.369  1.2471 -1.7963 -2.4346
  182SOPE   O3120781   5.082   2.561   6.567 -0.6346  0.2081  0.5440
  182SOPE   C3120782   4.965   2.522   6.620  0.5103  0.1397  0.0311
  182SOPE   O3220783   4.852   2.550   6.575 -0.0285  0.2362  0.3642
  182SOPE   C3220784   4.989   2.420   6.728  0.2524 -0.9218  0.2607
  182SOPE   H2X20785   5.066   2.348   6.692  1.9249  1.4996 -1.1368
  182SOPE   H2Y20786   4.893   2.366   6.742 -0.8132  0.1674 -2.5469
  182SOPE   C2320787   5.099   2.970   6.917 -0.8741 -0.7020 -1.0905
  182SOPE   H3R20788   5.021   3.050   6.916  1.6208  1.8301 -1.3428
  182SOPE   H3S20789   5.183   3.009   6.979 -2.2839  0.6603  0.0066
  182SOPE   C2420790   5.056   2.845   6.998  0.0535  0.1430 -0.0651
  182SOPE   H4R20791   4.986   2.779   6.942  0.5568  0.0947 -0.6494
  182SOPE   H4S20792   5.138   2.770   6.997 -1.3884 -1.4636 -0.4531
  182SOPE   C2520793   4.990   2.884   7.128  0.2227  0.2492 -0.6928
  182SOPE   H5R20794   4.921   2.963   7.091 -0.2012  0.1763 -0.0565
  182SOPE   H5S20795   4.929   2.796   7.159 -0.3444  0.6435 -0.6763
  182SOPE   C2620796   5.082   2.934   7.239  1.1974 -0.8338 -0.5919
  182SOPE   H6R20797   5.142   3.014   7.191 -0.1193 -0.4610 -1.6433
  182SOPE   H6S20798   5.015   2.968   7.320  2.5672  0.2990  0.0724
  182SOPE   C2720799   5.172   2.826   7.304 -0.1986  0.7248 -0.2591
  182SOPE   H7R20800   5.102   2.745   7.333  2.0675 -1.6905 -1.4059
  182SOPE   H7S20801   5.244   2.778   7.235 -0.6477  0.2897 -0.4204
  182SOPE   C2820802   5.260   2.881   7.415 -0.8221 -0.9179 -0.2739
  182SOPE   H8R20803   5.190   2.915   7.494 -0.8018  0.5497 -0.8583
  182SOPE   H8S20804   5.328   2.800   7.449  0.3159  0.2740  0.3503
  182SOPE   C2920805   5.338   2.991   7.356  0.0672  0.5381  0.7203
  182SOPE   H9120806   5.415   2.958   7.285  1.2375  1.3795  1.5843
  182SOPE  C21020807   5.333   3.123   7.388  0.1228 -0.5527 -0.2045
  182SOPE  H10120808   5.388   3.195   7.326 -0.6067  1.3909  1.3565
  182SOPE  C21120809   5.259   3.184   7.501  0.3547 -1.0398  0.1990
  182SOPE  H11R20810   5.166   3.128   7.526 -2.0108  1.4986 -2.6235
  182SOPE  H11S20811   5.210   3.281   7.478  0.2190 -0.8623  1.1946
  182SOPE  C21220812   5.354   3.210   7.623 -0.5051  0.0569 -0.2427
  182SOPE  H12R20813   5.440   3.274   7.593 -0.4674 -0.4411 -1.2442
  182SOPE  H12S20814   5.397   3.109   7.645 -2.2564 -0.5547  0.4417
  182SOPE  C21320815   5.277   3.242   7.753 -0.5683 -0.3615  0.7758
  182SOPE  H13R20816   5.207   3.161   7.783 -0.8595 -0.9426 -1.4192
  182SOPE  H13S20817   5.216   3.332   7.733  1.3318  0.9397  0.6903
  182SOPE  C21420818   5.365   3.247   7.883 -0.3124 -0.3968 -0.2993
  182SOPE  H14R20819   5.445   3.324   7.875  1.5202 -2.5237 -4.1817
  182SOPE  H14S20820   5.416   3.148   7.884 -0.3344 -0.4134 -0.5625
  182SOPE  C21520821   5.284   3.260   8.009 -0.0972  0.1017  0.9715
  182SOPE  H15R20822   5.235   3.163   8.030 -2.4224  0.9531 -0.2461
  182SOPE  H15S20823   5.198   3.319   7.970 -0.3182 -0.2775  0.8867
  182SOPE  C21620824   5.347   3.333   8.130  0.0296  0.2437 -0.4147
  182SOPE  H16R20825   5.375   3.433   8.090  1.0232 -0.2780 -1.0338
  182SOPE  H16S20826   5.441   3.280   8.153 -0.0850 -0.1444 -0.8368
  182SOPE  C21720827   5.260   3.335   8.257 -0.2426  0.1671  0.2743
  182SOPE  H17R20828   5.335   3.347   8.338  1.6747 -0.8335 -1.3051
  182SOPE  H17S20829   5.193   3.248   8.273  1.4405 -1.6547 -2.2129
  182SOPE  C21820830   5.148   3.443   8.260 -0.0954  0.8150 -0.0015
  182SOPE  H18R20831   5.184   3.547   8.247  1.0329  0.2539 -1.5295
  182SOPE  H18S20832   5.104   3.431   8.362  1.0040 -2.0467  0.2022
  182SOPE  H18T20833   5.073   3.421   8.182 -0.4279 -0.6119  0.7013
  182SOPE   C3320834   5.038   2.492   6.859  0.2185 -0.6836 -0.0114
  182SOPE   H3X20835   4.965   2.570   6.889 -1.3848 -1.3884 -1.9056
  182SOPE   H3Y20836   5.136   2.537   6.834 -0.8592  0.7943 -1.7927
  182SOPE   C3420837   5.053   2.395   6.973 -0.0077 -0.0906  0.2776
  182SOPE   H4X20838   5.118   2.310   6.942 -0.5284  0.1388 -1.4754
  182SOPE   H4Y20839   4.955   2.349   6.996  0.5857 -2.0312 -0.9202
  182SOPE   C3520840   5.112   2.461   7.103  0.0334 -0.5821 -0.5541
  182SOPE   H5X20841   5.030   2.523   7.146 -1.0989 -2.1822 -0.3442
  182SOPE   H5Y20842   5.205   2.514   7.074  0.7817 -2.3272 -1.3743
  182SOPE   C3620843   5.144   2.348   7.213  0.6676  0.1861 -0.6247
  182SOPE   H6X20844   5.229   2.296   7.165  1.8534 -0.8769  2.4933
  182SOPE   H6Y20845   5.058   2.283   7.235  0.9336 -0.3290 -1.0946
  182SOPE   C3720846   5.179   2.407   7.347 -0.0705  0.5508 -0.1159
  182SOPE   H7X20847   5.108   2.479   7.394  1.0656  2.6889 -1.5519
  182SOPE   H7Y20848   5.274   2.464   7.332  1.4409 -1.7307  0.4706
  182SOPE   C3820849   5.221   2.302   7.450  0.0698 -0.1238  0.7441
  182SOPE   H8X20850   5.308   2.239   7.419 -1.8069 -1.7682 -1.2972
  182SOPE   H8Y20851   5.137   2.230   7.453  0.6318 -0.8996 -1.3330
  182SOPE   C3920852   5.243   2.364   7.592  0.4403 -0.3844  0.1036
  182SOPE   H9X20853   5.145   2.394   7.636 -0.1091 -0.7978 -0.8188
  182SOPE   H9Y20854   5.287   2.465   7.574 -1.8279  0.5313 -0.5491
  182SOPE  C31020855   5.317   2.274   7.691 -0.8427  0.3950  0.3212
  182SOPE  H10X20856   5.392   2.211   7.638 -2.5638 -0.1866 -1.4574
  182SOPE  H10Y20857   5.250   2.193   7.724 -0.8506  0.7739  1.2533
  182SOPE  C31120858   5.384   2.353   7.804  0.1652  0.3592  0.1121
  182SOPE  H11X20859   5.463   2.421   7.766  1.8612 -0.9107  1.3261
  182SOPE  H11Y20860   5.424   2.280   7.877  2.0903 -0.2258 -1.5023
  182SOPE  C31220861   5.288   2.442   7.873  1.1101  0.3315  0.0053
  182SOPE  H12X20862   5.215   2.378   7.928  2.6703 -0.8983  0.6832
  182SOPE  H12Y20863   5.228   2.506   7.804 -1.3126 -1.0837  0.7098
  182SOPE  C31320864   5.359   2.536   7.970  0.2422  0.3298  0.0647
  182SOPE  H13X20865   5.446   2.579   7.916 -0.8325  3.5307  0.7831
  182SOPE  H13Y20866   5.406   2.472   8.047  0.1882 -4.0362 -3.3356
  182SOPE  C31420867   5.266   2.641   8.033 -0.4713  0.0553 -0.2380
  182SOPE  H14X20868   5.181   2.586   8.079 -1.7499  0.5071 -2.0261
  182SOPE  H14Y20869   5.218   2.711   7.961  1.1671  0.7202 -0.6924
  182SOPE  C31520870   5.330   2.725   8.141  1.0507 -0.5167  0.5159
  182SOPE  H15X20871   5.415   2.785   8.101  1.6746 -0.8588  1.3208
  182SOPE  H15Y20872   5.367   2.648   8.213  3.5873 -2.3031 -2.5395
  182SOPE  C31620873   5.232   2.827   8.202 -0.0630  0.6973  0.1710
  182SOPE  H16X20874   5.134   2.774   8.208  0.9174 -0.8445  3.5089
  182SOPE  H16Y20875   5.240   2.915   8.134  2.0765 -0.9246 -1.7560
  182SOPE  C31720876   5.258   2.881   8.341  1.0457 -0.7388 -0.4184
  182SOPE  H17X20877   5.255   2.787   8.399 -1.2772 -0.5043 -0.0925
  182SOPE  H17Y20878   5.175   2.951   8.367  2.9874  1.1727  0.7984
  182SOPE  C31820879   5.396   2.944   8.360  0.1854 -0.1081  0.0129
  182SOPE  H18X20880   5.478   2.887   8.311 -0.4494  0.0032 -1.2229
  182SOPE  H18Y20881   5.435   2.919   8.460  1.1309  0.9806 -0.0621
  182SOPE  H18Z20882   5.400   3.055   8.346 -1.8368 -0.2823 -2.3338
  183SOPE     N20883   0.765   0.096   6.363 -0.2586 -0.3417 -0.3906
  183SOPE   HN120884   0.732   0.110   6.461  0.0166 -1.6722 -0.0922
  183SOPE   HN220885   0.753  -0.002   6.331 -0.1241 -0.1221 -1.1277
  183SOPE   HN320886   0.863   0.128   6.351  0.9670 -3.5448  0.6414
  183SOPE   C1220887   0.669   0.155   6.264 -0.1446  0.3826  0.1786
  183SOPE  H12A20888   0.574   0.103   6.284  0.6571 -1.9483 -1.8026
  183SOPE  H12B20889   0.697   0.110   6.166  1.4173  0.0524  0.7552
  183SOPE   C1120890   0.676   0.305   6.254  0.5123  0.0403 -0.4446
  183SOPE  H11A20891   0.655   0.348   6.354  0.6112  1.6184 -1.0938
  183SOPE  H11B20892   0.590   0.332   6.188 -0.5326 -2.4752 -0.1931
  183SOPE     P20893   0.832   0.490   6.160  0.1729  0.0158  0.4075
  183SOPE   O1320894   0.745   0.539   6.047  0.1369 -0.3273  0.1104
  183SOPE   O1420895   0.978   0.499   6.136  0.1541 -0.1933 -0.0885
  183SOPE   O1220896   0.796   0.340   6.193  0.0845 -0.0603  0.4474
  183SOPE   O1120897   0.794   0.562   6.295  0.3914  0.1210  0.3074
  183SOPE    C120898   0.686   0.653   6.300  0.5497 -0.6853 -0.1893
  183SOPE    HA20899   0.592   0.595   6.307 -0.1557  0.5132  0.6558
  183SOPE    HB20900   0.690   0.725   6.215  0.0870 -0.3395  0.0780
  183SOPE    C220901   0.706   0.752   6.421 -0.5906  0.1231 -0.1898
  183SOPE    HS20902   0.624   0.827   6.424  0.5551  1.3674  1.2913
  183SOPE   O2120903   0.835   0.823   6.418 -0.8859  0.5287  0.1724
  183SOPE   C2120904   0.821   0.944   6.353 -0.7354 -0.2915  0.2401
  183SOPE   O2220905   0.720   0.992   6.307  0.0719  0.1642  0.0827
  183SOPE   C2220906   0.957   1.010   6.337 -0.0498 -0.1779 -0.3248
  183SOPE   H2R20907   0.935   1.114   6.303  0.0473 -0.2064 -0.4775
  183SOPE   H2S20908   0.999   0.959   6.248  0.9068 -2.7170  1.5388
  183SOPE    C320909   0.705   0.669   6.555 -0.4043  0.9008 -0.5928
  183SOPE    HX20910   0.775   0.588   6.527 -0.0822  0.8871  0.2449
  183SOPE    HY20911   0.602   0.631   6.570  0.0608 -0.6849 -1.3143
  183SOPE   O3120912   0.764   0.738   6.668 -0.6618  0.6915 -0.0143
  183SOPE   C3120913   0.818   0.664   6.760  0.3703  0.9496  0.1678
  183SOPE   O3220914   0.838   0.542   6.753  0.4927  0.0001  0.3447
  183SOPE   C3220915   0.866   0.753   6.872  0.4120 -0.7030  0.5076
  183SOPE   H2X20916   0.963   0.797   6.839 -0.3038 -0.6721 -1.6559
  183SOPE   H2Y20917   0.892   0.689   6.959 -0.7935 -1.8242  0.0583
  183SOPE   C2320918   1.056   0.992   6.457 -0.5325  0.0762 -0.0098
  183SOPE   H3R20919   1.150   1.045   6.433 -0.4922  1.0064  2.1364
  183SOPE   H3S20920   1.087   0.885   6.459  1.5418  0.6275 -1.5295
  183SOPE   C2420921   0.998   1.050   6.588  0.4922 -0.2270  0.4980
  183SOPE   H4R20922   0.959   1.153   6.577  1.5891  0.2267  0.8319
  183SOPE   H4S20923   0.909   0.987   6.608 -0.4441  0.7213 -0.6356
  183SOPE   C2520924   1.100   1.058   6.703  0.6649 -0.5586  1.2422
  183SOPE   H5R20925   1.106   0.957   6.751 -1.0106 -0.4645  1.6735
  183SOPE   H5S20926   1.194   1.105   6.667  1.6327 -0.9269  3.1699
  183SOPE   C2620927   1.056   1.158   6.817 -0.1861 -0.2213  0.9026
  183SOPE   H6R20928   1.038   1.253   6.763 -1.1270 -0.3309  1.0307
  183SOPE   H6S20929   0.961   1.132   6.868  0.3197 -2.6665  0.6926
  183SOPE   C2720930   1.168   1.179   6.916  0.0795 -0.1269  0.0062
  183SOPE   H7R20931   1.176   1.094   6.986  1.2896 -0.0331 -0.0160
  183SOPE   H7S20932   1.268   1.183   6.869  0.4803 -0.9116  0.7835
  183SOPE   C2820933   1.167   1.309   6.997 -0.5744 -0.2976 -0.0315
  183SOPE   H8R20934   1.263   1.308   7.052 -0.7989 -0.7819  0.3544
  183SOPE   H8S20935   1.179   1.388   6.919 -2.5519  0.4881  0.4272
  183SOPE   C2920936   1.044   1.339   7.077 -0.2282  0.0861 -0.0478
  183SOPE   H9120937   0.952   1.317   7.020 -0.6057  0.6573  0.3343
  183SOPE  C21020938   1.025   1.375   7.207  0.1424 -0.0114 -0.6361
  183SOPE  H10120939   0.921   1.381   7.241  0.7833  2.3267  1.0443
  183SOPE  C21120940   1.134   1.410   7.312 -0.3383 -0.6336 -0.5091
  183SOPE  H11R20941   1.100   1.494   7.377 -2.3297 -0.5627 -1.6001
  183SOPE  H11S20942   1.229   1.441   7.263 -0.8582  0.7442 -0.7018
  183SOPE  C21220943   1.185   1.301   7.411 -0.4804  0.7926 -0.3821
  183SOPE  H12R20944   1.266   1.354   7.466  1.5198 -0.8136 -1.6995
  183SOPE  H12S20945   1.230   1.213   7.359 -1.1415  1.2056 -1.6757
  183SOPE  C21320946   1.073   1.271   7.511  0.3293  0.2607  0.4934
  183SOPE  H13R20947   0.987   1.227   7.454 -0.3714  1.2698  0.7470
  183SOPE  H13S20948   1.036   1.364   7.559 -1.9774 -1.0070  1.2819
  183SOPE  C21420949   1.099   1.155   7.612 -0.0043 -0.1870  0.6244
  183SOPE  H14R20950   1.158   1.085   7.550 -2.0390 -0.7046 -0.7620
  183SOPE  H14S20951   0.998   1.112   7.633 -0.7973  2.0375  1.5523
  183SOPE  C21520952   1.176   1.194   7.744  0.4621 -0.1588 -0.0579
  183SOPE  H15R20953   1.280   1.226   7.720  0.3260  1.4864  1.4274
  183SOPE  H15S20954   1.190   1.109   7.813  1.2210  0.1258  0.1410
  183SOPE  C21620955   1.110   1.299   7.829  0.6971 -0.5481 -0.3708
  183SOPE  H16R20956   1.010   1.261   7.857 -0.0609  1.3068 -0.4838
  183SOPE  H16S20957   1.090   1.386   7.763 -1.1040  0.1548  1.0812
  183SOPE  C21720958   1.188   1.355   7.950 -0.1857 -0.5226  0.5346
  183SOPE  H17R20959   1.126   1.442   7.981  0.5705  0.3362 -0.3205
  183SOPE  H17S20960   1.288   1.393   7.920 -0.5458  3.3403  3.8011
  183SOPE  C21820961   1.224   1.259   8.064 -0.3873  0.1469 -0.2321
  183SOPE  H18R20962   1.187   1.307   8.157 -1.7357  1.6276 -1.5027
  183SOPE  H18S20963   1.334   1.248   8.070 -0.4444 -1.2745 -1.5952
  183SOPE  H18T20964   1.180   1.156   8.066  1.9525 -0.8724  0.1627
  183SOPE   C3320965   0.774   0.867   6.914  0.4184 -0.0648  0.7421
  183SOPE   H3X20966   0.673   0.825   6.930 -0.2131  0.5873 -1.3731
  183SOPE   H3Y20967   0.770   0.944   6.834  0.0525 -0.7309  0.1133
  183SOPE   C3420968   0.821   0.922   7.049 -1.2099 -0.6831  0.5925
  183SOPE   H4X20969   0.803   1.032   7.055  0.1259 -0.3099 -1.6885
  183SOPE   H4Y20970   0.931   0.909   7.046 -1.2870 -1.2922  0.5205
  183SOPE   C3520971   0.750   0.851   7.168 -0.1092 -0.1657  0.0413
  183SOPE   H5X20972   0.758   0.744   7.143 -1.2407 -0.4371  0.7844
  183SOPE   H5Y20973   0.643   0.882   7.164  0.3938  2.2406  3.0789
  183SOPE   C3620974   0.807   0.866   7.305 -0.4424  0.1417 -0.4493
  183SOPE   H6X20975   0.824   0.975   7.308 -0.4357  0.2702 -3.5445
  183SOPE   H6Y20976   0.906   0.815   7.314 -0.8579 -0.7094 -0.6101
  183SOPE   C3720977   0.704   0.846   7.417  0.3059 -0.1750 -0.6706
  183SOPE   H7X20978   0.670   0.740   7.417 -0.6649  0.1302 -0.8732
  183SOPE   H7Y20979   0.617   0.913   7.404  0.2583 -0.2725 -0.8626
  183SOPE   C3820980   0.766   0.888   7.556 -0.1293 -0.3608 -0.9426
  183SOPE   H8X20981   0.798   0.994   7.559 -1.4095  0.0019  2.0961
  183SOPE   H8Y20982   0.861   0.839   7.587  0.5620 -0.4079 -3.0807
  183SOPE   C3920983   0.656   0.874   7.666  0.5871 -0.5293  0.1183
  183SOPE   H9X20984   0.603   0.780   7.641  1.2356 -0.4406 -1.6494
  183SOPE   H9Y20985   0.578   0.953   7.663 -0.0822 -0.9797  3.1201
  183SOPE  C31020986   0.702   0.870   7.811 -0.6060  0.3559  0.0558
  183SOPE  H10X20987   0.756   0.776   7.837  0.1962  0.2651 -1.7922
  183SOPE  H10Y20988   0.613   0.870   7.876 -0.7774 -0.9357 -0.1557
  183SOPE  C31120989   0.803   0.986   7.843 -0.0451 -0.8526  0.0445
  183SOPE  H11X20990   0.761   1.081   7.803 -0.8304 -0.5429  1.5731
  183SOPE  H11Y20991   0.906   0.979   7.803 -0.6858  0.2770 -1.8867
  183SOPE  C31220992   0.806   1.004   7.999  0.4571 -0.1346 -0.0421
  183SOPE  H12X20993   0.699   1.018   8.026  0.3020 -2.7427  0.8919
  183SOPE  H12Y20994   0.868   1.092   8.026 -0.9153  0.2069  2.1104
  183SOPE  C31320995   0.871   0.885   8.084  0.5842  0.3025  0.7835
  183SOPE  H13X20996   0.979   0.912   8.085  0.6944  0.0385 -1.1420
  183SOPE  H13Y20997   0.858   0.786   8.034  0.6142 -0.6177  2.5576
  183SOPE  C31420998   0.818   0.874   8.227  0.2841  0.2728 -0.1153
  183SOPE  H14X20999   0.867   0.960   8.278 -0.1355  1.1433 -1.1625
  183SOPE  H14Y21000   0.869   0.793   8.284  0.4852 -0.2451 -1.0220
  183SOPE  C31521001   0.670   0.872   8.252  0.7855 -0.3402  0.0112
  183SOPE  H15X21002   0.642   0.779   8.199  1.2298 -0.0945 -0.6602
  183SOPE  H15Y21003   0.610   0.955   8.209  1.7952 -0.5205 -1.7751
  183SOPE  C31621004   0.639   0.853   8.404  0.0166  0.3320  1.2121
  183SOPE  H16X21005   0.645   0.957   8.443  2.4779  0.8076 -0.3239
  183SOPE  H16Y21006   0.717   0.790   8.451  0.5754  0.7708  0.8749
  183SOPE  C31721007   0.494   0.801   8.425  0.5287  0.1971 -0.4889
  183SOPE  H17X21008   0.466   0.813   8.532 -1.1001 -1.5935 -0.6675
  183SOPE  H17Y21009   0.481   0.693   8.404  1.5388 -0.0332  0.0338
  183SOPE  C31821010   0.388   0.876   8.348  0.0057 -0.4921 -0.5639
  183SOPE  H18X21011   0.410   0.984   8.334  0.6974 -0.0037  3.6646
  183SOPE  H18Y21012   0.289   0.851   8.392  0.4199 -1.6066 -0.2280
  183SOPE  H18Z21013   0.372   0.820   8.253 -0.6111  1.1940 -1.4743
  184SOPE     N21014   0.756   1.722   5.918  0.0194 -0.2726  0.1911
  184SOPE   HN121015   0.678   1.782   5.884 -0.0179 -0.4434 -0.0211
  184SOPE   HN221016   0.838   1.786   5.926  0.2206 -0.1818 -2.3277
  184SOPE   HN321017   0.786   1.653   5.846  2.0449  0.1819  0.5693
  184SOPE   C1221018   0.725   1.650   6.046  0.6047  0.0578  0.1248
  184SOPE  H12A21019   0.758   1.712   6.132  0.7041  0.0775  0.0724
  184SOPE  H12B21020   0.790   1.561   6.059 -0.6878 -0.5664  2.6893
  184SOPE   C1121021   0.575   1.616   6.071 -0.3468 -0.1692  0.6321
  184SOPE  H11A21022   0.514   1.708   6.066  1.3279  0.9421  0.3782
  184SOPE  H11B21023   0.570   1.581   6.176  0.0940 -0.3335  0.5998
  184SOPE     P21024   0.569   1.383   5.967 -0.1656  0.1134 -0.4681
  184SOPE   O1321025   0.711   1.354   5.951  0.4920 -0.5465 -0.0539
  184SOPE   O1421026   0.485   1.322   5.859 -0.1324 -0.1471 -0.1109
  184SOPE   O1221027   0.544   1.535   5.957 -0.2514  0.7632  0.1154
  184SOPE   O1121028   0.517   1.337   6.113 -0.0115 -0.5210 -0.2724
  184SOPE    C121029   0.376   1.342   6.156 -0.4521  1.0250 -0.2027
  184SOPE    HA21030   0.315   1.254   6.126  0.9134  0.0885 -0.2724
  184SOPE    HB21031   0.327   1.428   6.105 -2.1364  0.5192  0.5186
  184SOPE    C221032   0.358   1.370   6.302  0.2356 -0.3706  0.3400
  184SOPE    HS21033   0.413   1.464   6.323 -0.1258 -0.4700  1.8125
  184SOPE   O2121034   0.416   1.262   6.385  0.1887 -0.4163 -0.4476
  184SOPE   C2121035   0.488   1.297   6.488 -0.2919 -0.0202 -0.3495
  184SOPE   O2221036   0.521   1.413   6.505  0.2175 -0.1571 -0.5700
  184SOPE   C2221037   0.534   1.172   6.567 -0.1989  0.4209 -0.1739
  184SOPE   H2R21038   0.574   1.094   6.500  2.5708  1.8554 -0.2631
  184SOPE   H2S21039   0.446   1.126   6.618  1.0032  0.6074  2.0989
  184SOPE    C321040   0.210   1.403   6.333  0.1548  0.4544 -0.0393
  184SOPE    HX21041   0.153   1.310   6.315 -0.5737  0.8693  0.1270
  184SOPE    HY21042   0.173   1.483   6.266 -0.7556  0.9470  1.0417
  184SOPE   O3121043   0.191   1.438   6.471 -0.0841 -0.0558 -0.5735
  184SOPE   C3121044   0.211   1.565   6.510 -0.8554  1.0111  0.4919
  184SOPE   O3221045   0.263   1.654   6.444  0.2943  0.7620 -0.2488
  184SOPE   C3221046   0.171   1.569   6.658  0.0522 -0.1521 -0.7750
  184SOPE   H2X21047   0.138   1.470   6.696 -0.5324  0.4637  0.3496
  184SOPE   H2Y21048   0.085   1.639   6.665 -1.7984 -2.4510 -0.0084
  184SOPE   C2321049   0.638   1.203   6.681  0.4436  0.0056  0.0830
  184SOPE   H3R21050   0.716   1.274   6.646  0.4667 -1.0661 -2.1434
  184SOPE   H3S21051   0.688   1.105   6.692 -0.3933 -0.2374  1.8671
  184SOPE   C2421052   0.573   1.257   6.805 -0.0135  0.1120  0.2453
  184SOPE   H4R21053   0.554   1.364   6.785 -3.9692 -0.3367  1.0606
  184SOPE   H4S21054   0.470   1.215   6.805 -0.8512  2.1412  0.7041
  184SOPE   C2521055   0.625   1.225   6.942 -0.4168  0.8916  0.7071
  184SOPE   H5R21056   0.611   1.116   6.960 -1.1951  0.6115 -1.5123
  184SOPE   H5S21057   0.736   1.226   6.945 -0.3257  0.7613 -1.7111
  184SOPE   C2621058   0.554   1.311   7.049 -0.1068  0.2419  0.4763
  184SOPE   H6R21059   0.562   1.416   7.013  1.3667 -0.4241 -1.1736
  184SOPE   H6S21060   0.446   1.286   7.054 -0.0877  0.0965  0.1326
  184SOPE   C2721061   0.626   1.296   7.182  0.0674  0.2529 -0.2190
  184SOPE   H7R21062   0.633   1.187   7.206 -0.4426 -0.2986 -2.4499
  184SOPE   H7S21063   0.733   1.327   7.177  0.4487 -1.2408 -2.0527
  184SOPE   C2821064   0.568   1.388   7.281 -0.0050 -0.5660  0.0552
  184SOPE   H8R21065   0.643   1.395   7.362  0.3068 -4.6362  0.2233
  184SOPE   H8S21066   0.536   1.481   7.229  0.7188 -0.2052  0.2576
  184SOPE   C2921067   0.440   1.325   7.332 -0.2021 -1.0969  0.1989
  184SOPE   H9121068   0.376   1.284   7.253 -0.5363 -0.3626  0.0806
  184SOPE  C21021069   0.386   1.333   7.449  0.0095 -0.1430  0.2990
  184SOPE  H10121070   0.293   1.275   7.456  0.5413 -0.9368  0.9681
  184SOPE  C21121071   0.440   1.395   7.571 -0.4168  0.1204  0.1875
  184SOPE  H11R21072   0.365   1.471   7.603 -1.8835 -1.4494  0.5324
  184SOPE  H11S21073   0.541   1.441   7.563 -0.3246 -0.1828 -0.4131
  184SOPE  C21221074   0.441   1.301   7.691  0.1954  0.1200 -0.0862
  184SOPE  H12R21075   0.460   1.195   7.665 -3.8892 -1.0035  1.1628
  184SOPE  H12S21076   0.337   1.295   7.729  0.0837  2.5231  0.0679
  184SOPE  C21321077   0.539   1.341   7.805 -0.4800  0.5808 -0.0739
  184SOPE  H13R21078   0.519   1.445   7.839  0.2656  0.0896  1.9217
  184SOPE  H13S21079   0.647   1.345   7.779 -0.5228 -0.9739 -0.5280
  184SOPE  C21421080   0.513   1.256   7.931 -0.8288  0.3229  0.3900
  184SOPE  H14R21081   0.522   1.146   7.920  1.5707  0.4307  1.0144
  184SOPE  H14S21082   0.412   1.291   7.960 -1.3848 -0.8190 -0.1523
  184SOPE  C21521083   0.607   1.294   8.047 -0.8008 -0.5617 -0.0235
  184SOPE  H15R21084   0.609   1.405   8.043 -2.3674 -0.5091  0.1976
  184SOPE  H15S21085   0.712   1.263   8.027 -0.4167 -0.0365  1.1268
  184SOPE  C21621086   0.569   1.255   8.190 -1.3115  0.2503 -0.3957
  184SOPE  H16R21087   0.538   1.151   8.211 -3.3728  0.9801  0.3877
  184SOPE  H16S21088   0.475   1.311   8.213 -2.2934 -1.8751  0.8408
  184SOPE  C21721089   0.674   1.301   8.296 -0.4706 -0.3229 -0.2801
  184SOPE  H17R21090   0.700   1.408   8.285  1.0355 -0.6002  0.5641
  184SOPE  H17S21091   0.773   1.264   8.264  0.1983  0.8929  0.3495
  184SOPE  C21821092   0.648   1.288   8.445 -0.2446 -0.2242 -0.7226
  184SOPE  H18R21093   0.543   1.320   8.461  0.0338  0.8142 -0.9654
  184SOPE  H18S21094   0.722   1.347   8.504 -2.0944  1.3285  0.0754
  184SOPE  H18T21095   0.651   1.182   8.480 -0.7783  0.3077  0.9970
  184SOPE   C3321096   0.297   1.616   6.747 -0.2490  0.1375 -0.0200
  184SOPE   H3X21097   0.328   1.716   6.708 -1.3043  0.8217  0.8606
  184SOPE   H3Y21098   0.385   1.552   6.724  0.6487  1.3332  0.0248
  184SOPE   C3421099   0.270   1.614   6.898 -0.1993  0.0814 -0.4210
  184SOPE   H4X21100   0.264   1.506   6.927 -0.1289 -0.4258 -2.2686
  184SOPE   H4Y21101   0.176   1.672   6.914  0.6393  0.5454  3.3210
  184SOPE   C3521102   0.370   1.681   6.991  0.8149 -0.2184 -0.2375
  184SOPE   H5X21103   0.392   1.786   6.961 -0.0456 -0.5354 -2.0601
  184SOPE   H5Y21104   0.468   1.629   6.999  0.2627 -0.9725  2.0922
  184SOPE   C3621105   0.317   1.675   7.136 -0.8092  0.2270 -0.2693
  184SOPE   H6X21106   0.416   1.679   7.188 -0.5877 -1.6885 -0.5267
  184SOPE   H6Y21107   0.276   1.574   7.157  2.5140 -1.1786 -0.2216
  184SOPE   C3721108   0.230   1.789   7.173  0.4931  0.8936  0.1172
  184SOPE   H7X21109   0.147   1.801   7.100  0.9760  1.5977 -0.3198
  184SOPE   H7Y21110   0.285   1.884   7.189 -0.0521  0.9915  1.4877
  184SOPE   C3821111   0.158   1.762   7.306  0.5070  0.2195  0.9198
  184SOPE   H8X21112   0.103   1.667   7.293  0.2211  0.4676  0.2807
  184SOPE   H8Y21113   0.074   1.835   7.316  1.8947  1.9958 -0.2159
  184SOPE   C3921114   0.259   1.756   7.423  0.1906  0.2880  0.3328
  184SOPE   H9X21115   0.282   1.864   7.438 -1.5053  0.9321 -1.3528
  184SOPE   H9Y21116   0.352   1.702   7.396 -0.5257 -0.8105  0.0459
  184SOPE  C31021117   0.203   1.691   7.548 -0.6377  0.4236 -0.1555
  184SOPE  H10X21118   0.222   1.582   7.538  0.9337  0.5784  0.8835
  184SOPE  H10Y21119   0.094   1.706   7.562 -1.0553 -2.1429 -0.4802
  184SOPE  C31121120   0.266   1.742   7.672  0.2009 -0.2040  0.5145
  184SOPE  H11X21121   0.257   1.851   7.691 -0.2452 -0.0319 -0.6892
  184SOPE  H11Y21122   0.374   1.718   7.675  0.8575  2.2392 -1.9402
  184SOPE  C31221123   0.205   1.676   7.803 -0.1902 -0.8425  0.4383
  184SOPE  H12X21124   0.197   1.568   7.779 -2.0290 -0.6897  0.3339
  184SOPE  H12Y21125   0.115   1.725   7.844  0.5467  1.5389 -0.6886
  184SOPE  C31321126   0.311   1.678   7.928  0.2704  0.0106  0.3523
  184SOPE  H13X21127   0.340   1.784   7.944  0.2971  0.0907 -0.2167
  184SOPE  H13Y21128   0.410   1.637   7.900  0.0009  0.3642 -1.1378
  184SOPE  C31421129   0.270   1.615   8.068  0.5632 -0.1751  0.0557
  184SOPE  H14X21130   0.270   1.505   8.051  0.0910 -0.6780  3.0269
  184SOPE  H14Y21131   0.171   1.661   8.092  0.7296  0.9786 -1.4182
  184SOPE  C31521132   0.375   1.647   8.168  0.4428 -0.3493  0.2689
  184SOPE  H15X21133   0.390   1.757   8.171 -1.7910 -0.0456  0.8404
  184SOPE  H15Y21134   0.472   1.595   8.148  1.2310  1.9304 -2.0598
  184SOPE  C31621135   0.339   1.602   8.313  0.1278 -0.5200  0.2054
  184SOPE  H16X21136   0.350   1.492   8.316  2.4271 -0.4044 -2.1740
  184SOPE  H16Y21137   0.236   1.639   8.333  0.1117  0.3864 -1.4410
  184SOPE  C31721138   0.435   1.649   8.412 -0.4638 -0.1397  0.1268
  184SOPE  H17X21139   0.442   1.760   8.416  0.4529 -0.2481  2.1461
  184SOPE  H17Y21140   0.536   1.620   8.376 -0.9781 -0.3678 -1.1670
  184SOPE  C31821141   0.407   1.589   8.548 -0.2512 -0.7498 -0.2173
  184SOPE  H18X21142   0.335   1.649   8.607  1.2017  1.3040 -0.4491
  184SOPE  H18Y21143   0.500   1.591   8.609  0.1872 -1.8372 -0.8533
  184SOPE  H18Z21144   0.383   1.481   8.538  0.4539 -0.9712  0.4205
  185SAPI   C1221145   3.840   6.130  11.343 -0.6174 -0.6715 -0.2449
  185SAPI    H221146   3.863   6.022  11.355  0.0972 -0.7064 -1.8718
  185SAPI    O221147   3.767   6.161  11.458  0.2918 -0.6342 -0.2245
  185SAPI   HO221148   3.770   6.085  11.516 -0.3635  0.1305  0.8401
  185SAPI   C1321149   3.974   6.192  11.337  0.2545  0.6476 -0.2427
  185SAPI    H321150   4.027   6.162  11.244 -1.4056  0.8786 -1.2706
  185SAPI    O321151   4.059   6.165  11.454 -0.5841 -0.2534  0.1532
  185SAPI   HO321152   4.080   6.251  11.490  0.5637 -1.3473  2.1624
  185SAPI   C1421153   3.960   6.344  11.317  0.0453 -0.0937  0.0745
  185SAPI    H421154   3.910   6.385  11.407 -0.2793  1.3050 -0.7299
  185SAPI    O421155   4.084   6.416  11.294 -0.0509  0.1068  0.8914
  185SAPI   HO421156   4.075   6.509  11.272  1.8049  0.7137  2.5503
  185SAPI   C1521157   3.864   6.372  11.195 -1.1773 -0.4520  0.1168
  185SAPI    H521158   3.921   6.339  11.105 -0.4452  3.2202 -0.8300
  185SAPI    O521159   3.841   6.510  11.176  1.0506  0.0507  0.7012
  185SAPI   HO521160   3.879   6.535  11.092 -0.1747  0.0444  0.1316
  185SAPI   C1621161   3.729   6.299  11.196 -0.1230  0.6946 -0.0273
  185SAPI    H621162   3.673   6.337  11.284  1.5291 -0.5261  1.5948
  185SAPI    O621163   3.646   6.322  11.080 -0.3061  0.1672 -0.9982
  185SAPI   HO621164   3.594   6.242  11.068  1.9163 -1.4975  0.2103
  185SAPI   C1121165   3.759   6.152  11.214  0.9289  0.1797  0.1143
  185SAPI    H121166   3.816   6.125  11.122 -0.2555 -2.5515  0.1127
  185SAPI     P21167   3.642   5.919  11.154  0.0667  0.4666 -0.1143
  185SAPI   O1321168   3.519   5.848  11.196  0.2993  0.2266  0.0549
  185SAPI   O1421169   3.777   5.862  11.180 -0.0093  0.1953 -0.1982
  185SAPI   O1221170   3.633   6.077  11.222  0.1981  0.6403  0.0062
  185SAPI   O1121171   3.623   5.943  11.006  0.0783  0.0765 -0.0617
  185SAPI    C121172   3.493   5.985  10.955  0.2015 -0.5060  0.1668
  185SAPI    HA21173   3.421   5.900  10.957  0.7606 -1.0329 -1.3123
  185SAPI    HB21174   3.449   6.067  11.016  0.5865  1.8421 -2.5970
  185SAPI    C221175   3.495   6.022  10.806 -0.3137  0.9095 -0.2386
  185SAPI    HS21176   3.392   6.046  10.771 -1.0468 -0.9481  0.6191
  185SAPI   O2121177   3.553   5.918  10.732  0.1867 -0.4267 -0.3754
  185SAPI   C2121178   3.465   5.819  10.712  0.6385  0.2539 -0.7788
  185SAPI   O2221179   3.347   5.825  10.750 -0.1829  0.3405  0.5053
  185SAPI   C2221180   3.515   5.707  10.626 -0.1014  0.3689 -0.3110
  185SAPI   H2R21181   3.616   5.739  10.592 -0.7116  1.3037 -1.2862
  185SAPI   H2S21182   3.512   5.615  10.689 -0.3961  1.0330  0.6503
  185SAPI    C321183   3.578   6.149  10.798  0.0885 -0.1573  0.3550
  185SAPI    HX21184   3.664   6.137  10.867  0.2126  1.7508  0.5550
  185SAPI    HY21185   3.518   6.232  10.840 -0.7292  0.0175 -1.1507
  185SAPI   O3121186   3.613   6.178  10.669  0.1836 -0.5344  0.3121
  185SAPI   C3121187   3.736   6.169  10.623  0.2591  0.0040  0.4477
  185SAPI   O3221188   3.835   6.138  10.686  0.3290 -0.5410 -1.5336
  185SAPI   C3221189   3.730   6.208  10.474 -0.3099 -0.7790  0.6227
  185SAPI   H2X21190   3.757   6.316  10.478  2.2381 -1.3514 -0.0381
  185SAPI   H2Y21191   3.627   6.188  10.438  0.0017 -0.5220 -0.4475
  185SAPI   C2321192   3.424   5.683  10.509  0.1260 -0.4113 -0.4208
  185SAPI   H3R21193   3.318   5.691  10.544  0.5183  2.9720  0.2203
  185SAPI   H3S21194   3.453   5.582  10.472 -2.0455 -0.1129 -3.1369
  185SAPI   C2421195   3.438   5.786  10.396 -0.1340 -0.2755  0.0698
  185SAPI   H4R21196   3.545   5.788  10.366 -0.0202  0.6936  0.5411
  185SAPI   H4S21197   3.417   5.885  10.442 -0.2581 -1.0319  1.6752
  185SAPI   C2521198   3.337   5.753  10.285 -0.1963  0.0093 -0.2601
  185SAPI   H5R21199   3.230   5.778  10.299 -0.3718 -0.7509 -0.2066
  185SAPI   C2621200   3.366   5.689  10.173  0.0770  0.1375 -0.0516
  185SAPI   H6R21201   3.285   5.683  10.100  0.6451 -1.1340 -0.5903
  185SAPI   C2721202   3.494   5.638  10.115 -0.5775  0.4312 -0.0407
  185SAPI   H7R21203   3.477   5.534  10.082  0.2939  0.2558  0.0648
  185SAPI   H7S21204   3.567   5.638  10.199  2.3395 -1.2879 -2.4850
  185SAPI   C2821205   3.538   5.710   9.989 -0.0501  0.0174  0.6526
  185SAPI   H8R21206   3.472   5.794   9.964 -0.1342 -0.2102  0.1090
  185SAPI   C2921207   3.647   5.686   9.919 -0.6476  0.1979  0.1157
  185SAPI   H9R21208   3.673   5.756   9.838 -1.8703  0.5261  0.0013
  185SAPI  C21021209   3.752   5.579   9.957  0.0589  0.0132 -0.8023
  185SAPI  H10R21210   3.765   5.512   9.870  1.0664 -0.9575  0.0869
  185SAPI  H10S21211   3.711   5.524  10.043 -0.1345  1.6570  0.1816
  185SAPI  C21121212   3.890   5.637   9.989 -0.8215  0.3157 -0.2043
  185SAPI  H11R21213   3.899   5.675  10.091  0.9101  2.9054 -1.2840
  185SAPI  C21221214   3.996   5.651   9.904 -0.0931 -0.2254 -0.0669
  185SAPI  H12R21215   4.088   5.683   9.955 -0.1012 -1.2029  0.5675
  185SAPI  C21321216   4.006   5.620   9.754 -0.0478  0.0566 -0.8303
  185SAPI  H13R21217   3.904   5.599   9.715 -1.3733  1.4839  1.7378
  185SAPI  H13S21218   4.050   5.519   9.740 -0.0199 -0.2397  1.2850
  185SAPI  C21421219   4.070   5.722   9.674 -0.7257 -0.2240 -0.4947
  185SAPI  H14R21220   4.051   5.825   9.708 -0.3145 -0.5014  0.5909
  185SAPI  C21521221   4.141   5.703   9.559  0.0378 -0.4747 -1.0884
  185SAPI  H15R21222   4.167   5.798   9.509  0.0040  1.7019  2.8243
  185SAPI  C21621223   4.184   5.576   9.491  0.3696 -0.2458  1.2904
  185SAPI  H16R21224   4.123   5.486   9.512 -1.5221  1.0978  1.6860
  185SAPI  H16S21225   4.292   5.553   9.500  0.5742  0.6690  1.2302
  185SAPI  C21721226   4.152   5.595   9.335 -0.5041 -0.4425 -0.0369
  185SAPI  H17R21227   4.046   5.627   9.335 -0.6798 -1.0085 -1.1602
  185SAPI  H17S21228   4.154   5.495   9.287  1.6667  0.1223 -1.1830
  185SAPI  C21821229   4.250   5.669   9.250  0.0770 -0.2810  0.0511
  185SAPI  H18R21230   4.350   5.625   9.272 -0.4204 -0.8673  1.1813
  185SAPI  H18S21231   4.254   5.778   9.272  0.1289 -0.8453  3.0260
  185SAPI  C21921232   4.212   5.641   9.097  0.6356  0.1836  0.0868
  185SAPI  H19R21233   4.215   5.533   9.071  2.1213  0.3180 -0.3975
  185SAPI  H19S21234   4.279   5.697   9.027 -0.3826 -1.2869 -2.1424
  185SAPI  C22021235   4.069   5.695   9.075 -0.7492 -0.1025 -0.5924
  185SAPI  H20R21236   4.057   5.795   9.122  0.0374 -0.4415  0.3537
  185SAPI  H20S21237   3.994   5.624   9.117 -0.4194  0.1052  0.3564
  185SAPI  H20T21238   4.057   5.690   8.965  0.8227 -2.7964 -0.7006
  185SAPI   C3321239   3.833   6.132  10.392  0.2578 -0.1064  0.4231
  185SAPI   H3X21240   3.820   6.022  10.400  2.3345 -0.5990 -2.0488
  185SAPI   H3Y21241   3.927   6.152  10.448  1.3374 -3.5632 -0.0505
  185SAPI   C3421242   3.848   6.172  10.247  0.5113 -0.3387 -1.3310
  185SAPI   H4X21243   3.954   6.162  10.215  0.8117 -3.0499  0.3514
  185SAPI   H4Y21244   3.822   6.279  10.231  3.2767  0.2902 -1.8209
  185SAPI   C3521245   3.774   6.078  10.153  0.2285  0.3260  0.3762
  185SAPI   H5X21246   3.668   6.073  10.185 -0.1010  0.2855 -0.7178
  185SAPI   H5Y21247   3.817   5.975  10.157  1.0755  0.7061  1.3560
  185SAPI   C3621248   3.772   6.121  10.005  0.1533 -0.3122  0.0039
  185SAPI   H6X21249   3.735   6.225   9.996  0.0697 -0.2559  0.9172
  185SAPI   H6Y21250   3.689   6.068   9.955  0.4304  0.5380 -1.3657
  185SAPI   C3721251   3.904   6.102   9.937  0.0617 -0.2118  0.1442
  185SAPI   H7X21252   3.937   5.998   9.960  2.2422  1.0294  2.9544
  185SAPI   H7Y21253   3.975   6.176   9.978 -0.9516  0.9774 -0.2252
  185SAPI   C3821254   3.896   6.140   9.785 -0.7593 -0.4926 -0.3020
  185SAPI   H8X21255   3.995   6.133   9.736  0.3772 -0.2944  1.8978
  185SAPI   H8Y21256   3.858   6.244   9.783  1.6763  0.4017 -1.6984
  185SAPI   C3921257   3.804   6.059   9.697 -0.1582  0.1619  1.1857
  185SAPI   H9X21258   3.698   6.076   9.728 -0.3125  0.1383  0.6750
  185SAPI   H9Y21259   3.841   5.956   9.712  0.5578  0.1570 -0.5100
  185SAPI  C31021260   3.825   6.090   9.544 -0.0176  0.1261 -0.5012
  185SAPI  H10X21261   3.811   6.201   9.543 -1.4502 -0.0495 -1.7079
  185SAPI  H10Y21262   3.746   6.049   9.477 -0.3675 -0.2784  0.1513
  185SAPI  C31121263   3.957   6.046   9.482  1.4975  0.5234 -0.1129
  185SAPI  H11X21264   3.965   5.936   9.481 -1.0858  0.0882  5.8474
  185SAPI  H11Y21265   4.035   6.093   9.545  1.7975 -0.5139  0.2886
  185SAPI  C31221266   3.979   6.093   9.336  0.3264  0.5276  0.5000
  185SAPI  H12X21267   3.954   6.201   9.329  2.6473  1.0451 -0.1558
  185SAPI  H12Y21268   3.906   6.044   9.268  1.5504 -1.1353  0.3737
  185SAPI  C31321269   4.119   6.073   9.279  0.6646 -0.4732 -0.6928
  185SAPI  H13X21270   4.143   5.966   9.296 -0.5062 -0.1707  3.2004
  185SAPI  H13Y21271   4.187   6.138   9.338 -0.8358 -0.1330  0.7008
  185SAPI  C31421272   4.127   6.099   9.126 -0.4268  0.5227  0.0052
  185SAPI  H14X21273   4.033   6.080   9.070  0.1174 -0.1876 -0.6817
  185SAPI  H14Y21274   4.203   6.023   9.097  0.3108  0.6224  1.5983
  185SAPI  C31521275   4.171   6.243   9.088  0.5015  0.7726 -0.2273
  185SAPI  H15X21276   4.275   6.278   9.107  1.4123 -1.3285 -1.2727
  185SAPI  H15Y21277   4.098   6.307   9.143 -0.1564  0.2730 -0.5152
  185SAPI  C31621278   4.161   6.280   8.946  0.4802 -0.9054 -0.0106
  185SAPI  H16X21279   4.057   6.264   8.911 -0.0691 -1.5979  1.9043
  185SAPI  H16Y21280   4.222   6.206   8.890  4.1950  1.8882  0.1061
  185SAPI  C31721281   4.218   6.420   8.899 -0.0966 -0.3220 -0.7017
  185SAPI  H17X21282   4.141   6.486   8.944  1.5526 -0.0783  1.8503
  185SAPI  H17Y21283   4.208   6.420   8.788  0.7191 -0.6497 -0.7813
  185SAPI  C31821284   4.351   6.463   8.950  0.3743  0.2093 -0.3665
  185SAPI  H18X21285   4.346   6.504   9.053  1.9107 -0.0218 -0.1855
  185SAPI  H18Y21286   4.378   6.551   8.888 -0.4708  0.6854 -0.0650
  185SAPI  H18Z21287   4.427   6.383   8.962  0.5411  0.3199 -0.6530
  186SAPI   C1221288   3.998   3.036  10.643  0.4477  0.2637 -0.2408
  186SAPI    H221289   3.926   3.065  10.564 -1.2982 -1.7533  0.5964
  186SAPI    O221290   3.922   3.049  10.764 -0.6732  0.3386  0.0680
  186SAPI   HO221291   3.832   3.021  10.751 -0.5071 -0.1023 -0.1443
  186SAPI   C1321292   4.036   2.888  10.628  0.3906  0.1288  0.6967
  186SAPI    H321293   4.087   2.885  10.529  2.3008 -1.6329  1.6815
  186SAPI    O321294   3.925   2.804  10.623 -0.6544 -0.5680  0.0010
  186SAPI   HO321295   3.855   2.846  10.673  0.5765  1.6205 -0.0543
  186SAPI   C1421296   4.147   2.841  10.729 -0.0344 -0.0884  0.1366
  186SAPI    H421297   4.104   2.859  10.830  3.2038 -0.7327  1.6945
  186SAPI    O421298   4.181   2.705  10.700 -0.0448 -0.1119  0.1588
  186SAPI   HO421299   4.196   2.701  10.606  0.2813 -0.1844  0.2095
  186SAPI   C1521300   4.267   2.931  10.719  0.2816  0.0915 -0.8758
  186SAPI    H521301   4.311   2.939  10.617  0.9330 -0.2935 -0.6268
  186SAPI    O521302   4.377   2.892  10.808  0.4311  0.6502  0.4365
  186SAPI   HO521303   4.445   2.836  10.770 -0.0002  0.0438  0.5560
  186SAPI   C1621304   4.222   3.084  10.743  0.6720  0.9903 -0.5496
  186SAPI    H621305   4.182   3.091  10.846  1.5622 -0.4990 -0.0807
  186SAPI    O621306   4.336   3.170  10.740 -0.3854  0.1365  0.3457
  186SAPI   HO621307   4.330   3.209  10.653  2.1230 -0.8151 -0.2908
  186SAPI   C1121308   4.121   3.126  10.637  0.2815 -0.8168 -0.1064
  186SAPI    H121309   4.168   3.104  10.538  1.9179 -0.7924  0.6455
  186SAPI     P21310   4.146   3.384  10.558  0.7725  0.0494  0.2778
  186SAPI   O1321311   4.281   3.345  10.510 -0.1543 -0.3947  0.0478
  186SAPI   O1421312   4.130   3.514  10.627  0.3095  0.2943 -0.4849
  186SAPI   O1221313   4.082   3.263  10.648 -0.9690  0.0220 -0.5505
  186SAPI   O1121314   4.048   3.378  10.430  0.7156 -0.3964 -0.2331
  186SAPI    C121315   4.035   3.496  10.345 -0.5179  0.5406 -0.2044
  186SAPI    HA21316   3.940   3.481  10.290  0.1949 -1.8431 -0.8303
  186SAPI    HB21317   4.043   3.590  10.405 -3.2117  0.9741 -0.4756
  186SAPI    C221318   4.144   3.500  10.235 -0.0806 -0.0990  0.6994
  186SAPI    HS21319   4.245   3.503  10.280  0.7575  1.1774 -1.2333
  186SAPI   O2121320   4.124   3.612  10.146  0.1622 -0.6547  0.7231
  186SAPI   C2121321   4.153   3.727  10.190  0.7648 -0.4835 -0.4403
  186SAPI   O2221322   4.198   3.753  10.303 -0.1307 -0.1935  0.7133
  186SAPI   C2221323   4.127   3.832  10.084 -0.4675 -0.2915  0.1974
  186SAPI   H2R21324   4.124   3.930  10.136 -1.9825 -1.0016  1.4996
  186SAPI   H2S21325   4.218   3.839  10.021  0.6762 -1.0416  1.7533
  186SAPI    C321326   4.135   3.365  10.143  0.1199 -0.3162 -0.2491
  186SAPI    HX21327   4.029   3.334  10.126 -0.0344 -0.4762  1.0086
  186SAPI    HY21328   4.189   3.291  10.205  1.0316 -0.0662 -0.7418
  186SAPI   O3121329   4.208   3.392  10.023  0.1769  0.5600  0.1491
  186SAPI   C3121330   4.255   3.287   9.959 -0.1255 -0.2744 -0.2683
  186SAPI   O3221331   4.262   3.174  10.010  0.1864  0.0327 -0.5494
  186SAPI   C3221332   4.299   3.325   9.826  0.0289 -0.2907  0.6417
  186SAPI   H2X21333   4.324   3.433   9.820 -3.2958  0.5976  1.6151
  186SAPI   H2Y21334   4.218   3.301   9.755  0.2105 -2.1256  1.0320
  186SAPI   C2321335   3.989   3.840  10.003  0.6693 -0.0593  0.1291
  186SAPI   H3R21336   3.968   3.946   9.977  2.0432 -0.1648 -1.5708
  186SAPI   H3S21337   3.906   3.815  10.072  1.0019 -3.0719 -0.5010
  186SAPI   C2421338   3.981   3.752   9.885 -0.0478  0.0968  0.5214
  186SAPI   H4R21339   3.883   3.755   9.834 -0.3262 -3.4630  0.7711
  186SAPI   H4S21340   3.992   3.647   9.920 -4.1402  0.0394  1.8862
  186SAPI   C2521341   4.094   3.784   9.789 -0.0780 -0.0647  0.1454
  186SAPI   H5R21342   4.191   3.743   9.821 -1.9094 -3.6266  1.3540
  186SAPI   C2621343   4.099   3.886   9.698 -0.1939  0.7279  0.2356
  186SAPI   H6R21344   4.176   3.881   9.619 -1.1924 -1.1189 -0.6446
  186SAPI   C2721345   3.986   3.972   9.666 -0.1470  0.2172 -0.5278
  186SAPI   H7R21346   4.023   4.076   9.652  1.8620 -0.0878  2.0923
  186SAPI   H7S21347   3.915   3.976   9.752  1.4839 -0.9677  0.9123
  186SAPI   C2821348   3.894   3.921   9.558 -0.5719  0.6159 -0.5480
  186SAPI   H8R21349   3.830   3.835   9.583 -0.3009  1.3064  2.6397
  186SAPI   C2921350   3.892   3.964   9.431 -0.1587 -0.4597  0.0302
  186SAPI   H9R21351   3.816   3.925   9.361 -0.5237  1.7739 -0.8918
  186SAPI  C21021352   3.969   4.076   9.370  0.5558  0.4386 -0.5119
  186SAPI  H10R21353   4.063   4.099   9.424  0.5259  2.1383 -1.1602
  186SAPI  H10S21354   3.916   4.173   9.374 -1.8970 -0.8708  0.0956
  186SAPI  C21121355   4.024   4.046   9.240  0.0333 -0.5709  0.8108
  186SAPI  H11R21356   4.127   4.006   9.244  0.4151  0.2735 -0.5257
  186SAPI  C21221357   3.974   4.068   9.117  0.4650 -0.8404 -0.2159
  186SAPI  H12R21358   4.026   4.029   9.029  0.1942 -0.0849 -0.7208
  186SAPI  C21321359   3.833   4.130   9.097 -0.9770 -0.7015  0.6665
  186SAPI  H13R21360   3.795   4.186   9.186 -0.9385 -0.3227  0.4467
  186SAPI  H13S21361   3.755   4.051   9.108 -1.8527  0.2372  1.3088
  186SAPI  C21421362   3.805   4.205   8.965  0.2872  0.2463  0.0823
  186SAPI  H14R21363   3.784   4.312   8.983 -1.4002  0.0562 -0.7001
  186SAPI  C21521364   3.827   4.163   8.839  0.4143  0.3608  0.6484
  186SAPI  H15R21365   3.802   4.230   8.755  1.0189 -0.3955 -0.1366
  186SAPI  C21621366   3.871   4.028   8.791 -0.3590  0.3781 -0.6692
  186SAPI  H16R21367   3.788   3.958   8.815  0.2490  0.2388  1.1481
  186SAPI  H16S21368   3.970   3.995   8.829 -0.4526  1.8758  0.9673
  186SAPI  C21721369   3.876   4.036   8.637  0.5167  0.2087 -1.1548
  186SAPI  H17R21370   3.961   4.104   8.616  0.8826 -0.1562 -0.8589
  186SAPI  H17S21371   3.778   4.071   8.598 -0.1043 -2.1605 -1.8110
  186SAPI  C21821372   3.901   3.896   8.584 -0.0001  0.0146  0.7009
  186SAPI  H18R21373   3.827   3.823   8.623  3.0736 -2.1879  2.6978
  186SAPI  H18S21374   3.999   3.855   8.616  1.6573  2.5776 -0.9473
  186SAPI  C21921375   3.914   3.891   8.430  0.7989 -0.5829  0.6828
  186SAPI  H19R21376   3.984   3.971   8.396  2.1727 -1.5464  1.2248
  186SAPI  H19S21377   3.820   3.908   8.373 -0.1660 -1.3715  2.0316
  186SAPI  C22021378   3.967   3.755   8.375  0.2188  0.4933 -0.8132
  186SAPI  H20R21379   4.024   3.698   8.452 -0.0656  1.2719 -0.0234
  186SAPI  H20S21380   4.035   3.765   8.288  1.0697 -3.8193 -0.7774
  186SAPI  H20T21381   3.877   3.706   8.331 -0.2307  0.3259  0.2565
  186SAPI   C3321382   4.428   3.245   9.786  0.4287  0.5310  0.5349
  186SAPI   H3X21383   4.425   3.141   9.824 -1.0396  0.8397  1.3006
  186SAPI   H3Y21384   4.521   3.290   9.827 -0.2887  2.2528  0.3002
  186SAPI   C3421385   4.437   3.220   9.635  0.2283 -0.7841  0.9993
  186SAPI   H4X21386   4.427   3.308   9.569  0.0071 -2.6279 -1.5273
  186SAPI   H4Y21387   4.358   3.155   9.591 -0.9921  1.7224 -0.6283
  186SAPI   C3521388   4.566   3.154   9.582 -0.4122 -0.0204  0.6879
  186SAPI   H5X21389   4.645   3.194   9.649  0.3445 -0.5471  0.1205
  186SAPI   H5Y21390   4.589   3.188   9.478  2.6796  0.3900  1.4379
  186SAPI   C3621391   4.562   2.994   9.599  0.2569 -0.8462  0.1114
  186SAPI   H6X21392   4.477   2.944   9.546  0.2164  0.1745 -0.8050
  186SAPI   H6Y21393   4.547   2.966   9.705  1.3568  1.2311  0.8296
  186SAPI   C3721394   4.694   2.923   9.555  0.0337 -0.0963  0.8486
  186SAPI   H7X21395   4.696   2.817   9.589  1.0015 -0.2217  0.4147
  186SAPI   H7Y21396   4.780   2.978   9.599 -0.9189  1.0082  1.3560
  186SAPI   C3821397   4.724   2.924   9.406  0.2853 -0.4196  1.1592
  186SAPI   H8X21398   4.728   3.030   9.372 -0.9855 -0.2134  1.6134
  186SAPI   H8Y21399   4.645   2.875   9.345 -0.4987 -0.7230  2.4157
  186SAPI   C3921400   4.860   2.863   9.364 -0.2175  0.4534  0.4628
  186SAPI   H9X21401   4.858   2.753   9.378 -5.0935  0.4995  1.1561
  186SAPI   H9Y21402   4.938   2.911   9.427  1.8379  0.4207 -2.0154
  186SAPI  C31021403   4.907   2.905   9.218 -0.0752 -0.3217  0.2877
  186SAPI  H10X21404   5.010   2.865   9.205  0.3938  1.1842 -0.7834
  186SAPI  H10Y21405   4.894   3.013   9.195 -1.2981 -0.2370  1.3080
  186SAPI  C31121406   4.828   2.834   9.103  0.2000 -0.4429 -0.4852
  186SAPI  H11X21407   4.722   2.864   9.110 -0.4605 -2.4084 -1.4868
  186SAPI  H11Y21408   4.828   2.725   9.124 -2.1942 -0.3860 -0.0967
  186SAPI  C31221409   4.889   2.878   8.966 -0.4569  0.1984 -0.5608
  186SAPI  H12X21410   4.999   2.875   8.956 -0.3248  0.1280  0.8194
  186SAPI  H12Y21411   4.871   2.988   8.962 -1.6035  0.0686  0.4660
  186SAPI  C31321412   4.825   2.800   8.844  0.4233  0.0578 -0.5285
  186SAPI  H13X21413   4.715   2.807   8.857 -0.0289 -4.3126 -1.3676
  186SAPI  H13Y21414   4.843   2.691   8.841  0.8993  0.1134  0.2737
  186SAPI  C31421415   4.874   2.851   8.707 -0.2733 -0.0647  0.4943
  186SAPI  H14X21416   4.983   2.838   8.694  0.0966  3.5616 -0.7074
  186SAPI  H14Y21417   4.856   2.961   8.711  1.5847  0.2211  1.3047
  186SAPI  C31521418   4.789   2.791   8.596  0.7601  0.5888  0.6239
  186SAPI  H15X21419   4.685   2.815   8.627  0.4889 -0.1191  0.2803
  186SAPI  H15Y21420   4.799   2.683   8.576  2.1356  0.9855 -0.9892
  186SAPI  C31621421   4.818   2.859   8.462  0.6399  0.2397  0.8656
  186SAPI  H16X21422   4.927   2.862   8.444  0.0031  0.0699 -3.4679
  186SAPI  H16Y21423   4.779   2.963   8.467  0.6270  0.2823 -0.0087
  186SAPI  C31721424   4.758   2.773   8.346 -0.1262 -0.4955  0.2686
  186SAPI  H17X21425   4.648   2.760   8.351 -0.3667  1.3443  0.1552
  186SAPI  H17Y21426   4.796   2.669   8.354 -0.7577 -0.7526 -0.0458
  186SAPI  C31821427   4.793   2.832   8.208 -0.1536  0.5379  0.3026
  186SAPI  H18X21428   4.901   2.841   8.182  0.2261 -0.9826  1.3045
  186SAPI  H18Y21429   4.738   2.925   8.182 -0.9588 -0.3101 -1.0654
  186SAPI  H18Z21430   4.751   2.764   8.132  0.0378  1.7017 -0.8568
  187SAPI   C1221431   1.019   4.359   6.453 -0.1223  0.2681 -0.7451
  187SAPI    H221432   0.964   4.355   6.550  0.5078  1.3712 -0.3360
  187SAPI    O221433   0.995   4.489   6.390 -0.4627  0.5232  0.1169
  187SAPI   HO221434   0.984   4.549   6.464 -1.2189 -0.7478  1.0610
  187SAPI   C1321435   1.165   4.342   6.490  0.4506  0.5407 -0.0468
  187SAPI    H321436   1.180   4.241   6.536 -0.3606  0.3679 -0.1520
  187SAPI    O321437   1.212   4.439   6.580 -0.1423  0.3350 -0.1884
  187SAPI   HO321438   1.290   4.400   6.622  0.3395  0.7980 -0.6433
  187SAPI   C1421439   1.236   4.341   6.356  1.1541  0.0020  0.6809
  187SAPI    H421440   1.214   4.434   6.300 -0.1989 -0.6106  0.1780
  187SAPI    O421441   1.378   4.339   6.377 -0.3888 -0.7233 -0.2706
  187SAPI   HO421442   1.416   4.396   6.309  2.8484 -2.5910 -0.1096
  187SAPI   C1521443   1.192   4.229   6.262  0.0862 -0.1119  0.1458
  187SAPI    H521444   1.202   4.131   6.312 -2.2787 -0.1071  0.6923
  187SAPI    O521445   1.266   4.216   6.141 -0.1485 -0.0502 -0.4971
  187SAPI   HO521446   1.345   4.166   6.159  0.4277  0.7643 -0.7052
  187SAPI   C1621447   1.044   4.243   6.243  0.5216 -0.1528 -0.3559
  187SAPI    H621448   1.022   4.336   6.186  0.1044  0.4342  0.7480
  187SAPI    O621449   0.988   4.140   6.165 -0.6072  0.1786 -0.0248
  187SAPI   HO621450   0.923   4.166   6.099 -1.1261 -3.7249 -1.1736
  187SAPI   C1121451   0.974   4.236   6.371  0.4200  0.7242  0.0641
  187SAPI    H121452   1.009   4.150   6.432  0.2387  0.9030  0.4283
  187SAPI     P21453   0.734   4.167   6.467 -0.0506  0.1368  0.0905
  187SAPI   O1321454   0.782   4.028   6.470 -0.4922  0.2262 -0.2818
  187SAPI   O1421455   0.592   4.195   6.435 -0.4358 -0.4198  0.1016
  187SAPI   O1221456   0.833   4.257   6.364 -0.4765  0.8794  0.1471
  187SAPI   O1121457   0.778   4.243   6.600  0.5407  0.0387 -0.2269
  187SAPI    C121458   0.735   4.177   6.725 -0.2111  0.1627 -0.8416
  187SAPI    HA21459   0.636   4.130   6.713 -0.5732  0.5566  0.5076
  187SAPI    HB21460   0.795   4.085   6.742 -0.0599 -0.2817 -3.6291
  187SAPI    C221461   0.734   4.269   6.853  0.2979  1.0116  0.4204
  187SAPI    HS21462   0.640   4.328   6.855  0.2932  1.1048 -1.3529
  187SAPI   O2121463   0.849   4.358   6.862 -0.0640  0.2231  0.3212
  187SAPI   C2121464   0.839   4.479   6.807  1.1008  0.1411 -0.0651
  187SAPI   O2221465   0.736   4.529   6.760 -0.2931  0.7759  0.8102
  187SAPI   C2221466   0.976   4.545   6.802  0.0449  0.8345  0.6333
  187SAPI   H2R21467   1.055   4.467   6.810  1.6842  2.3048 -0.7307
  187SAPI   H2S21468   0.976   4.607   6.710 -1.4469  1.1722  0.8538
  187SAPI    C321469   0.738   4.179   6.980  0.4233  0.1638 -0.6934
  187SAPI    HX21470   0.837   4.131   6.987  0.8428  0.3032 -4.8004
  187SAPI    HY21471   0.659   4.102   6.970 -0.8335  1.1349  1.2426
  187SAPI   O3121472   0.716   4.262   7.096  0.1179 -0.2902 -0.4571
  187SAPI   C3121473   0.587   4.292   7.140  0.0040 -0.0070  0.0573
  187SAPI   O3221474   0.495   4.252   7.071  0.9575  0.1877 -0.1621
  187SAPI   C3221475   0.588   4.379   7.268 -0.2196  0.3324  0.1165
  187SAPI   H2X21476   0.591   4.487   7.244 -2.4305  0.2325 -0.7245
  187SAPI   H2Y21477   0.673   4.340   7.328 -1.9912 -1.7854  1.3115
  187SAPI   C2321478   0.999   4.635   6.926  0.4078  0.3719 -0.8845
  187SAPI   H3R21479   1.108   4.654   6.939  0.7308 -1.1318 -1.2925
  187SAPI   H3S21480   0.978   4.578   7.018  1.1771  2.6624  0.7548
  187SAPI   C2421481   0.920   4.767   6.917 -0.3477 -0.0099  0.3327
  187SAPI   H4R21482   0.814   4.735   6.923 -0.8715  1.7820  1.1902
  187SAPI   H4S21483   0.928   4.799   6.811 -0.0765 -2.4412 -0.3950
  187SAPI   C2521484   0.926   4.872   7.021  0.5608 -0.7336  0.3569
  187SAPI   H5R21485   0.940   4.970   6.974 -0.8442 -0.8151 -0.2551
  187SAPI   C2621486   0.890   4.866   7.153  0.3069 -0.3301 -1.0124
  187SAPI   H6R21487   0.905   4.954   7.217  0.5141 -1.6683  0.8109
  187SAPI   C2721488   0.843   4.744   7.236  0.1638  0.3560 -0.3598
  187SAPI   H7R21489   0.928   4.696   7.288  0.5405  0.7815 -0.5767
  187SAPI   H7S21490   0.793   4.676   7.163  0.2886  0.4479 -0.5325
  187SAPI   C2821491   0.737   4.794   7.330  0.3981  0.7948  0.2541
  187SAPI   H8R21492   0.638   4.776   7.286  0.6803 -1.2248  0.3927
  187SAPI   C2921493   0.742   4.835   7.458 -0.3080 -0.0182  0.1127
  187SAPI   H9R21494   0.647   4.862   7.506 -1.4022 -1.2776 -1.2863
  187SAPI  C21021495   0.860   4.862   7.545 -1.0412 -0.1467 -0.2557
  187SAPI  H10R21496   0.944   4.883   7.475  0.6434 -0.0751  1.7333
  187SAPI  H10S21497   0.894   4.770   7.597  0.5707 -0.5362 -1.9475
  187SAPI  C21121498   0.847   4.977   7.646 -0.5983  0.1746  1.0506
  187SAPI  H11R21499   0.876   5.075   7.605  1.0320 -0.2727  1.0984
  187SAPI  C21221500   0.831   4.968   7.778 -0.1779  0.2153 -0.6457
  187SAPI  H12R21501   0.809   5.062   7.830  2.1676  1.3017 -1.5945
  187SAPI  C21321502   0.819   4.846   7.867  0.3993  0.3584  0.0275
  187SAPI  H13R21503   0.786   4.766   7.797  0.8849  0.1140  0.0768
  187SAPI  H13S21504   0.746   4.863   7.949 -2.4509  0.2592 -2.3932
  187SAPI  C21421505   0.955   4.808   7.925  0.2068 -0.1832 -0.6159
  187SAPI  H14R21506   1.043   4.796   7.860  0.1211  3.2166 -1.4537
  187SAPI  C21521507   0.978   4.777   8.049 -0.2030 -0.0185 -0.0041
  187SAPI  H15R21508   1.078   4.738   8.075  0.4149  1.0315 -0.7866
  187SAPI  C21621509   0.881   4.780   8.171 -0.3573 -0.1524 -0.3903
  187SAPI  H16R21510   0.796   4.850   8.152 -0.0521  0.0269 -1.1475
  187SAPI  H16S21511   0.937   4.811   8.262 -0.2601 -1.1300 -0.1098
  187SAPI  C21721512   0.836   4.636   8.205  0.6932 -0.3366 -0.6724
  187SAPI  H17R21513   0.926   4.571   8.198  1.3712  0.5915 -0.5903
  187SAPI  H17S21514   0.758   4.599   8.135  2.4674  0.0159 -2.9163
  187SAPI  C21821515   0.773   4.625   8.347  0.7865  0.5026  0.6297
  187SAPI  H18R21516   0.680   4.685   8.353  0.8928  0.8482 -1.0728
  187SAPI  H18S21517   0.839   4.651   8.432 -0.8504 -0.3206  2.1888
  187SAPI  C21921518   0.719   4.484   8.375  0.2233  0.0034  0.2616
  187SAPI  H19R21519   0.640   4.478   8.297 -0.6277  0.0714  1.1093
  187SAPI  H19S21520   0.659   4.485   8.469  3.2235  0.4959  2.2422
  187SAPI  C22021521   0.821   4.370   8.372 -0.0583 -0.2250 -0.7424
  187SAPI  H20R21522   0.882   4.359   8.280  0.2359 -3.3167 -0.2206
  187SAPI  H20S21523   0.774   4.270   8.382 -0.6593  0.0702 -0.5949
  187SAPI  H20T21524   0.905   4.373   8.445 -0.5790  0.8232 -0.1602
  187SAPI   C3321525   0.463   4.369   7.352  0.1103 -0.0400  0.1814
  187SAPI   H3X21526   0.456   4.264   7.389 -0.1126  0.1184  0.5910
  187SAPI   H3Y21527   0.372   4.384   7.291 -0.5131  0.3904  1.2222
  187SAPI   C3421528   0.471   4.467   7.476 -0.3171 -0.3489 -0.5788
  187SAPI   H4X21529   0.381   4.479   7.539  0.2883  0.0653  0.2190
  187SAPI   H4Y21530   0.485   4.571   7.438 -1.8958  0.6489  1.4706
  187SAPI   C3521531   0.590   4.435   7.564 -0.2935 -1.0062 -0.5076
  187SAPI   H5X21532   0.686   4.459   7.513  0.5767 -2.9325  0.2027
  187SAPI   H5Y21533   0.586   4.330   7.600 -1.8440 -0.6961  0.2730
  187SAPI   C3621534   0.587   4.529   7.689  0.1148 -0.8629 -0.4743
  187SAPI   H6X21535   0.484   4.525   7.730  0.3030 -1.1337 -0.0171
  187SAPI   H6Y21536   0.609   4.636   7.671  1.4535 -1.0054  0.2617
  187SAPI   C3721537   0.666   4.473   7.812 -0.6001  0.0019 -0.3955
  187SAPI   H7X21538   0.698   4.562   7.870 -0.2102 -1.1020  1.1057
  187SAPI   H7Y21539   0.755   4.425   7.767 -0.4160 -1.3208  1.3393
  187SAPI   C3821540   0.589   4.371   7.895 -0.2633  0.9358  0.2457
  187SAPI   H8X21541   0.656   4.321   7.969  0.1250 -0.9843 -1.3505
  187SAPI   H8Y21542   0.538   4.303   7.824 -0.8338  2.6058 -0.9670
  187SAPI   C3921543   0.497   4.442   7.991 -0.4291 -0.1794 -0.2843
  187SAPI   H9X21544   0.425   4.515   7.949 -1.6197  0.5716  2.8757
  187SAPI   H9Y21545   0.557   4.481   8.075 -1.8478 -0.3212  0.8290
  187SAPI  C31021546   0.390   4.347   8.052 -0.9196 -0.3990  0.6953
  187SAPI  H10X21547   0.437   4.267   8.113  0.2140  0.5349  1.0524
  187SAPI  H10Y21548   0.311   4.321   7.978  0.2354 -3.2444  0.4012
  187SAPI  C31121549   0.300   4.420   8.159  0.7392  0.4588 -0.0776
  187SAPI  H11X21550   0.228   4.490   8.112 -0.1580  0.4644  1.2760
  187SAPI  H11Y21551   0.374   4.487   8.209 -0.5020  2.5349 -0.9500
  187SAPI  C31221552   0.224   4.315   8.238 -0.3789 -0.1101  0.1268
  187SAPI  H12X21553   0.295   4.240   8.277  0.3920  1.0375  0.9672
  187SAPI  H12Y21554   0.153   4.269   8.167 -1.6374 -0.1262  1.3630
  187SAPI  C31321555   0.142   4.376   8.357  0.4819  0.4685  0.0603
  187SAPI  H13X21556   0.085   4.287   8.389 -0.2799  1.1057  0.5048
  187SAPI  H13Y21557   0.061   4.445   8.325 -1.3057 -1.9195 -0.7243
  187SAPI  C31421558   0.226   4.432   8.471  0.4891  0.3239  0.6019
  187SAPI  H14X21559   0.269   4.530   8.443  0.8252  0.0754  0.2488
  187SAPI  H14Y21560   0.315   4.366   8.481  0.5048  0.2307 -0.1715
  187SAPI  C31521561   0.158   4.437   8.613 -0.6998  0.0921 -0.0546
  187SAPI  H15X21562   0.233   4.487   8.679 -1.1743 -0.3751  0.8592
  187SAPI  H15Y21563   0.148   4.333   8.651 -1.0247  0.2282  0.2386
  187SAPI  C31621564   0.027   4.520   8.614 -0.5031 -0.6056 -0.5074
  187SAPI  H16X21565  -0.015   4.513   8.717  1.7363 -0.7689  0.4467
  187SAPI  H16Y21566  -0.042   4.470   8.544 -0.3982 -0.0146 -1.0439
  187SAPI  C31721567   0.044   4.663   8.570 -0.1033 -1.1464  0.5984
  187SAPI  H17X21568   0.079   4.664   8.465  0.0706 -0.3569  0.6599
  187SAPI  H17Y21569   0.127   4.708   8.629 -0.3726  0.4511 -0.2233
  187SAPI  C31821570  -0.092   4.734   8.585 -0.3684  0.1291  0.5730
  187SAPI  H18X21571  -0.169   4.664   8.546  0.5137  0.0766 -1.1315
  187SAPI  H18Y21572  -0.095   4.835   8.539 -0.1694 -0.1776 -0.1155
  187SAPI  H18Z21573  -0.116   4.767   8.688 -0.0752  0.5313  0.5136
  188SAPI   C1221574   1.867   0.940   6.391 -0.1722  0.9288 -0.4672
  188SAPI    H221575   1.794   0.926   6.474  0.1443 -1.1769 -0.5085
  188SAPI    O221576   1.779   0.920   6.283 -0.6399  0.1684  0.9600
  188SAPI   HO221577   1.710   0.863   6.318 -2.6904  0.6492 -2.0825
  188SAPI   C1321578   1.921   1.077   6.420  0.2616 -0.6842 -0.3826
  188SAPI    H321579   1.964   1.086   6.522 -1.4107  0.0205  0.2760
  188SAPI    O321580   1.823   1.177   6.416  0.1464  0.3162  0.0762
  188SAPI   HO321581   1.760   1.169   6.488 -0.0584 -2.0804 -0.3335
  188SAPI   C1421582   2.034   1.100   6.324 -1.0557  0.6617 -0.3767
  188SAPI    H421583   2.004   1.112   6.218  0.9227 -0.1824 -1.0629
  188SAPI    O421584   2.103   1.220   6.363 -0.1862  0.4048 -0.0973
  188SAPI   HO421585   2.069   1.298   6.318  1.9661  0.1940 -2.1339
  188SAPI   C1521586   2.141   0.993   6.318  0.6221 -0.2024 -0.0916
  188SAPI    H521587   2.182   0.989   6.421 -1.2214  4.5356  0.9760
  188SAPI    O521588   2.247   1.022   6.227 -0.0450 -0.1464  0.7169
  188SAPI   HO521589   2.272   1.113   6.247  1.1631 -0.7114  1.8572
  188SAPI   C1621590   2.084   0.855   6.298 -0.1741  0.0017 -0.2681
  188SAPI    H621591   2.036   0.837   6.200 -1.5987  1.5474  0.1284
  188SAPI    O621592   2.185   0.755   6.308 -0.0968  0.6266 -0.0517
  188SAPI   HO621593   2.133   0.687   6.351  2.0405 -2.2080 -1.8040
  188SAPI   C1121594   1.976   0.839   6.412 -0.3652  0.2471 -0.0345
  188SAPI    H121595   2.028   0.862   6.507 -0.9571 -1.7203  0.7911
  188SAPI     P21596   1.972   0.577   6.494 -0.0478 -0.2221  0.3943
  188SAPI   O1321597   2.118   0.558   6.465  0.1568  0.0742  0.3925
  188SAPI   O1421598   1.875   0.475   6.449  0.5726 -0.2398  0.3725
  188SAPI   O1221599   1.916   0.711   6.415  0.5746 -0.3722  0.4061
  188SAPI   O1121600   1.951   0.620   6.644  0.2016  0.2867  0.3271
  188SAPI    C121601   1.822   0.633   6.700 -0.1870  0.1308  0.3314
  188SAPI    HA21602   1.804   0.742   6.717 -0.6207  0.0853  0.1645
  188SAPI    HB21603   1.748   0.575   6.641 -0.2977 -0.8662  1.4377
  188SAPI    C221604   1.815   0.562   6.837 -0.2810 -0.8651 -0.0150
  188SAPI    HS21605   1.708   0.565   6.866 -0.0440  1.2455  0.7231
  188SAPI   O2121606   1.905   0.622   6.932  0.2511 -0.2082  0.0496
  188SAPI   C2121607   1.857   0.724   7.004 -0.2897  0.0820  0.1826
  188SAPI   O2221608   1.744   0.765   6.995  0.1227  0.1074 -0.0369
  188SAPI   C2221609   1.967   0.780   7.088  0.1423 -0.3668  0.2829
  188SAPI   H2R21610   1.979   0.701   7.165  0.2005  0.1154  0.7697
  188SAPI   H2S21611   2.056   0.778   7.022  2.0220 -3.2757  2.7469
  188SAPI    C321612   1.843   0.409   6.822 -0.4110  0.4432 -0.4749
  188SAPI    HX21613   1.949   0.400   6.789  0.7152  2.8042  2.2345
  188SAPI    HY21614   1.770   0.369   6.748 -0.1988  0.1751 -0.5414
  188SAPI   O3121615   1.822   0.339   6.951 -0.0664 -0.2405  0.9027
  188SAPI   C3121616   1.850   0.209   6.949  0.0712 -0.2973  0.4793
  188SAPI   O3221617   1.898   0.149   6.852 -0.1363  0.4659  0.3524
  188SAPI   C3221618   1.792   0.150   7.077 -0.3360  0.4344 -0.9388
  188SAPI   H2X21619   1.735   0.059   7.051 -2.9911  2.1787 -1.3810
  188SAPI   H2Y21620   1.719   0.222   7.120  1.1574  1.4283 -0.0039
  188SAPI   C2321621   1.945   0.922   7.144  0.1725  0.1982  0.4042
  188SAPI   H3R21622   1.838   0.951   7.135 -0.5395 -1.7807  2.0749
  188SAPI   H3S21623   1.992   0.993   7.072  0.3895  0.1283  0.4753
  188SAPI   C2421624   1.997   0.937   7.286 -0.6210 -0.2907 -0.4018
  188SAPI   H4R21625   2.107   0.930   7.296 -0.3085  1.9528 -1.8640
  188SAPI   H4S21626   1.945   0.857   7.342  1.3742 -0.8485  0.7142
  188SAPI   C2521627   1.962   1.076   7.333 -1.4250 -0.0146  0.7349
  188SAPI   H5R21628   1.936   1.147   7.253  1.0188 -0.9585 -0.9419
  188SAPI   C2621629   1.988   1.122   7.456 -0.1908  0.6961  0.1891
  188SAPI   H6R21630   1.977   1.231   7.467 -3.8805  0.5671 -1.1213
  188SAPI   C2721631   2.037   1.060   7.577 -0.4560  0.7946 -0.3610
  188SAPI   H7R21632   2.036   0.949   7.563  0.7457  0.6295  0.7978
  188SAPI   H7S21633   1.954   1.070   7.650 -0.0905 -1.2227  0.3718
  188SAPI   C2821634   2.168   1.114   7.619  0.8264  0.4961 -0.6159
  188SAPI   H8R21635   2.230   1.155   7.538  2.0521  1.3824  0.7341
  188SAPI   C2921636   2.204   1.140   7.744  1.0966 -0.3371 -0.2883
  188SAPI   H9R21637   2.303   1.183   7.764  0.5700  0.6415  0.2626
  188SAPI  C21021638   2.110   1.121   7.864 -0.1452  0.7173  0.3280
  188SAPI  H10R21639   2.003   1.133   7.835 -0.3309  0.6613  0.9996
  188SAPI  H10S21640   2.129   1.201   7.938  1.7876  0.4058  0.1922
  188SAPI  C21121641   2.134   0.989   7.931 -0.1630 -0.2512 -1.1689
  188SAPI  H11R21642   2.169   0.909   7.864  1.8290  0.7533 -1.3631
  188SAPI  C21221643   2.098   0.955   8.060  0.2003  0.5321 -0.0585
  188SAPI  H12R21644   2.135   0.856   8.091 -1.1737 -0.1971 -0.6627
  188SAPI  C21321645   2.045   1.048   8.169 -0.3799  0.5737  0.0224
  188SAPI  H13R21646   1.976   1.001   8.243  0.2853  0.7086  0.7312
  188SAPI  H13S21647   1.969   1.111   8.117  0.3601 -0.2110 -2.0676
  188SAPI  C21421648   2.166   1.128   8.222  0.1400 -0.5260 -0.4094
  188SAPI  H14R21649   2.263   1.110   8.174  2.5370  4.7202  2.0719
  188SAPI  C21521650   2.163   1.195   8.340 -0.2374 -0.7611  0.1067
  188SAPI  H15R21651   2.254   1.245   8.378 -0.3817 -2.1310  2.3516
  188SAPI  C21621652   2.041   1.214   8.428 -0.5877  0.0885 -0.2622
  188SAPI  H16R21653   2.072   1.220   8.534  1.0343  0.3721 -0.7248
  188SAPI  H16S21654   1.990   1.116   8.426  0.6056 -0.5407 -0.4020
  188SAPI  C21721655   1.937   1.323   8.396 -0.2097 -0.5161 -0.3686
  188SAPI  H17R21656   1.910   1.316   8.288  1.1714  2.1663 -0.9392
  188SAPI  H17S21657   1.981   1.425   8.394  1.1512 -1.0769  0.1620
  188SAPI  C21821658   1.806   1.320   8.475  0.1328 -0.2963 -0.2857
  188SAPI  H18R21659   1.831   1.325   8.583 -1.1234 -0.0727  0.0065
  188SAPI  H18S21660   1.763   1.219   8.461  0.3551 -0.3114 -0.8740
  188SAPI  C21921661   1.706   1.423   8.419  0.6579 -0.4038  0.7668
  188SAPI  H19R21662   1.671   1.394   8.317 -1.7376  2.0547  0.8444
  188SAPI  H19S21663   1.750   1.525   8.421  1.0905 -0.6030  1.5613
  188SAPI  C22021664   1.583   1.426   8.507 -0.6795  0.6888 -0.5126
  188SAPI  H20R21665   1.553   1.532   8.513  0.8151  1.0735  0.5891
  188SAPI  H20S21666   1.614   1.407   8.613 -0.7874 -0.7037 -0.7164
  188SAPI  H20T21667   1.497   1.358   8.490  0.6777 -1.5389  1.1458
  188SAPI   C3321668   1.902   0.119   7.179 -0.5215  0.8453  0.4836
  188SAPI   H3X21669   1.983   0.058   7.133  0.2192  2.7700 -0.8238
  188SAPI   H3Y21670   1.859   0.064   7.266 -1.4439 -0.1618 -0.5821
  188SAPI   C3421671   1.968   0.249   7.231 -0.0632  0.1613  0.9537
  188SAPI   H4X21672   1.995   0.317   7.148 -0.5897 -1.5264 -0.6235
  188SAPI   H4Y21673   2.057   0.221   7.291  0.0870  0.2736  0.7829
  188SAPI   C3521674   1.886   0.322   7.338 -0.1489 -0.4196  0.5574
  188SAPI   H5X21675   1.845   0.250   7.412 -0.9726  0.1273  0.6393
  188SAPI   H5Y21676   1.795   0.368   7.293 -2.1803 -3.1950  1.6666
  188SAPI   C3621677   1.961   0.433   7.418 -0.0611  0.3743  0.1989
  188SAPI   H6X21678   2.001   0.508   7.348 -0.4446  1.2517  0.8990
  188SAPI   H6Y21679   2.051   0.389   7.466 -1.0507  0.5816  2.3496
  188SAPI   C3721680   1.887   0.504   7.532  0.2253 -0.2277  0.1282
  188SAPI   H7X21681   1.844   0.429   7.601  0.2347 -1.1937 -0.9027
  188SAPI   H7Y21682   1.803   0.559   7.486  0.1980 -1.2693 -1.0979
  188SAPI   C3821683   1.978   0.597   7.615 -0.2508 -0.8750 -0.7613
  188SAPI   H8X21684   2.028   0.664   7.542  0.9985 -0.3415  0.5699
  188SAPI   H8Y21685   2.057   0.533   7.660  1.1974 -1.0681 -3.5007
  188SAPI   C3921686   1.899   0.686   7.719 -0.2604 -0.5714  0.2948
  188SAPI   H9X21687   1.861   0.782   7.679  0.5226  0.2782  1.5781
  188SAPI   H9Y21688   1.969   0.721   7.798  2.0332 -0.1757 -1.8731
  188SAPI  C31021689   1.796   0.601   7.796 -0.4031 -0.5080  0.4472
  188SAPI  H10X21690   1.851   0.504   7.798  1.1522  0.3739  2.6453
  188SAPI  H10Y21691   1.704   0.592   7.735 -0.8423  1.1261  0.8535
  188SAPI  C31121692   1.751   0.664   7.928  0.2480  0.2214 -0.0559
  188SAPI  H11X21693   1.672   0.735   7.897  2.1491  2.3093 -0.2628
  188SAPI  H11Y21694   1.834   0.712   7.985 -0.7058  0.3671  1.2318
  188SAPI  C31221695   1.684   0.561   8.025 -0.2097 -0.2762 -0.1576
  188SAPI  H12X21696   1.631   0.490   7.959 -2.8617  2.4646 -1.1111
  188SAPI  H12Y21697   1.604   0.606   8.088  0.9703  1.2379  0.2983
  188SAPI  C31321698   1.786   0.491   8.117  1.1647  0.4448  0.1133
  188SAPI  H13X21699   1.820   0.578   8.178 -1.3315  0.7586  1.1620
  188SAPI  H13Y21700   1.869   0.447   8.058  1.2394  0.3707  0.2745
  188SAPI  C31421701   1.715   0.384   8.210 -0.4733  0.0467 -0.3441
  188SAPI  H14X21702   1.788   0.302   8.225  0.8379  1.6390  2.4089
  188SAPI  H14Y21703   1.629   0.339   8.157 -0.1836 -1.8605  0.7785
  188SAPI  C31521704   1.687   0.420   8.360  0.6311 -0.2529 -0.0064
  188SAPI  H15X21705   1.775   0.469   8.407  0.1782 -0.7433  1.3563
  188SAPI  H15Y21706   1.680   0.327   8.420  0.9731 -0.8959 -0.9381
  188SAPI  C31621707   1.564   0.499   8.388 -0.2704 -0.1480  0.2241
  188SAPI  H16X21708   1.479   0.445   8.342  0.1371  0.3944 -1.2068
  188SAPI  H16Y21709   1.571   0.596   8.334 -0.4397 -1.2000 -1.7403
  188SAPI  C31721710   1.523   0.522   8.534 -0.1028 -0.0101 -0.0374
  188SAPI  H17X21711   1.588   0.595   8.585 -0.4254 -0.1721  0.6172
  188SAPI  H17Y21712   1.524   0.431   8.598 -1.0978 -0.4361 -0.6094
  188SAPI  C31821713   1.377   0.576   8.538 -0.0726  0.4380 -0.2062
  188SAPI  H18X21714   1.365   0.676   8.492  1.0603  1.0960  0.9043
  188SAPI  H18Y21715   1.338   0.587   8.641  1.1924 -1.3389  0.4920
  188SAPI  H18Z21716   1.307   0.514   8.477 -0.5910 -0.2712  1.0888
  189POPC     N21717   2.872   3.171  10.998 -0.1301 -0.1153  0.4562
  189POPC   C1221718   2.821   3.047  11.073 -0.6710 -0.5542  0.1792
  189POPC  H12A21719   2.739   3.078  11.137 -0.6475  1.0061 -0.5111
  189POPC  H12B21720   2.907   3.005  11.123  0.3408  0.8509 -0.3336
  189POPC   C1321721   2.978   3.121  10.901 -0.0817 -0.3267  0.3231
  189POPC  H13A21722   3.073   3.128  10.950  0.1653  0.8263 -0.3069
  189POPC  H13B21723   2.963   3.018  10.872 -1.4649  0.2558 -1.1508
  189POPC  H13C21724   2.981   3.176  10.808  4.5951 -0.4641  0.2773
  189POPC   C1421725   2.764   3.237  10.925 -0.3301 -0.1180 -0.1211
  189POPC  H14A21726   2.792   3.336  10.891  2.7595 -0.8109  0.2655
  189POPC  H14B21727   2.720   3.175  10.848 -0.7824  0.3154 -0.2157
  189POPC  H14C21728   2.684   3.260  10.995 -1.2005  0.1002 -1.1715
  189POPC   C1521729   2.939   3.268  11.091  0.1763 -0.5073 -0.3707
  189POPC  H15A21730   2.980   3.352  11.037 -2.1626  0.1653 -1.1266
  189POPC  H15B21731   3.014   3.219  11.152 -0.9054  1.5726  2.7673
  189POPC  H15C21732   2.871   3.313  11.162  1.4992 -0.1412  0.6998
  189POPC   C1121733   2.762   2.925  10.988 -0.1239  0.2403 -0.3913
  189POPC  H11A21734   2.747   2.840  11.058  1.1196  0.8182  0.5861
  189POPC  H11B21735   2.833   2.891  10.910 -0.4758 -0.5920 -0.3575
  189POPC     P21736   2.495   2.925  10.963 -0.0868  0.1857 -0.1159
  189POPC   O1321737   2.403   3.039  10.957  0.6048 -0.0336 -0.0469
  189POPC   O1421738   2.492   2.832  11.080 -0.0504  0.0263 -0.4258
  189POPC   O1221739   2.641   2.972  10.923 -0.4368 -0.1748 -0.3244
  189POPC   O1121740   2.445   2.840  10.841  0.8447  0.2619  0.5204
  189POPC    C121741   2.533   2.740  10.781 -0.0491  0.3499 -0.3793
  189POPC    HA21742   2.537   2.646  10.839 -0.7580  1.6738  1.8648
  189POPC    HB21743   2.639   2.772  10.782 -0.8427  3.0548  1.6828
  189POPC    C221744   2.494   2.709  10.631  0.1807 -0.1427 -0.7922
  189POPC    HS21745   2.473   2.807  10.584  2.2210  0.5230 -0.3719
  189POPC   O2121746   2.379   2.618  10.628 -0.1343 -0.0773 -0.0131
  189POPC   C2121747   2.252   2.666  10.597  0.5858 -0.7178 -0.4781
  189POPC   O2221748   2.226   2.787  10.577  0.0584 -0.4142 -0.0684
  189POPC   C2221749   2.152   2.563  10.617 -0.4843 -0.0710  0.7479
  189POPC   H2R21750   2.088   2.589  10.704 -0.4082  2.4666  0.0866
  189POPC   H2S21751   2.198   2.465  10.638  0.5855  0.3265  0.3335
  189POPC    C321752   2.619   2.640  10.551 -0.1309  0.1239 -0.3793
  189POPC    HX21753   2.651   2.550  10.608 -0.7915  0.2178  0.1509
  189POPC    HY21754   2.708   2.706  10.549 -0.5010  0.6029 -0.7442
  189POPC   O3121755   2.597   2.597  10.416 -0.0683 -0.3729 -0.0015
  189POPC   C3121756   2.573   2.695  10.332 -0.0433 -0.5731 -0.7688
  189POPC   O3221757   2.603   2.814  10.353 -0.1253 -0.4968  0.1145
  189POPC   C3221758   2.510   2.635  10.211  0.5593  0.3214  0.0961
  189POPC   H2X21759   2.414   2.588  10.241 -0.2049  1.7709 -0.0373
  189POPC   H2Y21760   2.586   2.563  10.174  0.9886 -0.3888  2.2776
  189POPC   C2321761   2.071   2.547  10.480  0.5497 -0.7764 -0.3112
  189POPC   H3R21762   2.046   2.649  10.443  1.2704 -1.2411 -2.1139
  189POPC   H3S21763   1.974   2.501  10.510  0.5487 -0.3956  0.2843
  189POPC   C2421764   2.131   2.456  10.368 -0.2064  0.3506 -1.2050
  189POPC   H4R21765   2.076   2.361  10.382 -1.6479  1.1784 -1.1819
  189POPC   H4S21766   2.241   2.451  10.385 -0.3592 -0.6897 -0.4645
  189POPC   C2521767   2.114   2.513  10.224 -0.4119 -0.6331  0.2776
  189POPC   H5R21768   2.163   2.612  10.211 -1.2670  0.1485  2.6290
  189POPC   H5S21769   2.007   2.524  10.196  0.4678 -0.6859 -3.3778
  189POPC   C2621770   2.180   2.429  10.113  0.1202  0.5125 -0.2626
  189POPC   H6R21771   2.136   2.327  10.118 -0.2364  0.7202  1.0801
  189POPC   H6S21772   2.288   2.411  10.131 -0.0258 -3.0727 -2.3428
  189POPC   C2721773   2.158   2.487   9.971 -0.0181 -0.2451 -0.2198
  189POPC   H7R21774   2.211   2.583   9.955 -1.7747  0.7582 -0.1210
  189POPC   H7S21775   2.050   2.513   9.974 -0.1454 -0.8586  3.3567
  189POPC   C2821776   2.207   2.397   9.854  0.3122 -0.1604  1.2347
  189POPC   H8R21777   2.163   2.295   9.862 -1.3014  0.2628 -1.4618
  189POPC   H8S21778   2.316   2.376   9.853  0.1257 -1.1868 -1.1031
  189POPC   C2921779   2.164   2.458   9.720 -0.1563  0.5420  0.4777
  189POPC   H9121780   2.058   2.450   9.690  0.3493 -0.4518 -1.0872
  189POPC  C21021781   2.243   2.529   9.643  0.1045 -0.7312 -0.3759
  189POPC  H10121782   2.205   2.574   9.551  0.3335 -2.3155 -1.2603
  189POPC  C21121783   2.389   2.564   9.677  0.1195  0.5047 -0.5327
  189POPC  H11R21784   2.402   2.542   9.785 -4.8727  2.8249  0.6542
  189POPC  H11S21785   2.398   2.674   9.668  3.0403  0.1951 -2.4268
  189POPC  C21221786   2.501   2.509   9.587 -0.2985  0.2579  0.8580
  189POPC  H12R21787   2.500   2.399   9.596  2.5004 -0.0617 -1.8789
  189POPC  H12S21788   2.602   2.550   9.613 -0.0584  0.4224 -0.3408
  189POPC  C21321789   2.492   2.548   9.441 -0.7657  0.2637  1.3740
  189POPC  H13R21790   2.593   2.572   9.402 -0.8927 -1.0071  0.1951
  189POPC  H13S21791   2.435   2.643   9.433 -1.3384 -0.2309 -0.8861
  189POPC  C21421792   2.431   2.432   9.348 -0.2252  0.5740  0.0498
  189POPC  H14R21793   2.333   2.405   9.393 -1.0584  2.6399 -0.5049
  189POPC  H14S21794   2.505   2.348   9.343 -1.4728 -0.4647 -1.3343
  189POPC  C21521795   2.399   2.485   9.212 -0.5082  0.0079 -0.5950
  189POPC  H15R21796   2.479   2.547   9.166  0.0140 -0.3229 -0.1387
  189POPC  H15S21797   2.317   2.554   9.239 -0.0474 -0.0662  1.0852
  189POPC  C21621798   2.355   2.361   9.119 -0.1381 -0.7705  0.1793
  189POPC  H16R21799   2.268   2.309   9.163 -0.0528 -0.8401  0.2646
  189POPC  H16S21800   2.434   2.285   9.096  1.0405  0.9176 -1.5572
  189POPC  C21721801   2.322   2.412   8.972 -0.0393  0.2634  0.0841
  189POPC  H17R21802   2.414   2.458   8.929 -0.5510  0.6919 -0.5499
  189POPC  H17S21803   2.255   2.500   8.979  2.8645  2.3648  2.7069
  189POPC  C21821804   2.261   2.310   8.870  0.0030  0.3166  0.0172
  189POPC  H18R21805   2.339   2.235   8.844  1.0746  0.9858  1.2485
  189POPC  H18S21806   2.232   2.368   8.780 -1.7468  0.5172  0.6955
  189POPC  H18T21807   2.174   2.263   8.919 -1.2476  1.5766 -0.9699
  189POPC   C3321808   2.484   2.739  10.100  0.1516  0.3871  0.2610
  189POPC   H3X21809   2.469   2.840  10.145 -1.0085  0.1825  0.3557
  189POPC   H3Y21810   2.385   2.711  10.058 -1.6712  1.4104  3.6676
  189POPC   C3421811   2.592   2.748   9.994  0.0105  0.3701 -0.4985
  189POPC   H4X21812   2.610   2.646   9.954  0.6351 -0.8768  2.7980
  189POPC   H4Y21813   2.689   2.786  10.033 -0.9774  1.1338  1.2843
  189POPC   C3521814   2.549   2.831   9.868 -1.0410 -0.4862 -0.0685
  189POPC   H5X21815   2.490   2.923   9.886  1.3038  1.1601 -0.6402
  189POPC   H5Y21816   2.472   2.767   9.819 -2.4684  1.7193 -0.7523
  189POPC   C3621817   2.660   2.837   9.767 -0.4460 -0.0954 -0.1391
  189POPC   H6X21818   2.700   2.734   9.758 -3.0559 -1.2953  1.4701
  189POPC   H6Y21819   2.739   2.902   9.811 -1.5461 -0.6306  2.7662
  189POPC   C3721820   2.611   2.888   9.636 -0.4258 -0.2431  0.9174
  189POPC   H7X21821   2.590   2.996   9.648  3.0541  0.8565 -1.7057
  189POPC   H7Y21822   2.518   2.842   9.597 -0.1863  0.2177 -0.2186
  189POPC   C3821823   2.722   2.882   9.530 -0.7044 -0.0879  0.5542
  189POPC   H8X21824   2.796   2.799   9.534  0.1552  0.6326 -0.1930
  189POPC   H8Y21825   2.774   2.979   9.547 -2.8327  1.0978  0.4152
  189POPC   C3921826   2.676   2.905   9.386 -0.4742 -0.5648  0.3244
  189POPC   H9X21827   2.583   2.966   9.393 -0.0361 -0.0394  1.6856
  189POPC   H9Y21828   2.630   2.813   9.343 -2.9445 -0.0601  1.7665
  189POPC  C31021829   2.778   2.978   9.294 -0.1388 -0.5089 -0.0456
  189POPC  H10X21830   2.878   2.931   9.308  0.1475  0.1169  0.0329
  189POPC  H10Y21831   2.796   3.082   9.328 -1.6592 -0.9734  2.3271
  189POPC  C31121832   2.742   2.982   9.142 -0.2792 -0.4925 -0.6565
  189POPC  H11X21833   2.806   3.057   9.090  0.1457 -1.7612 -2.0246
  189POPC  H11Y21834   2.633   2.999   9.131 -0.3935 -1.0935 -0.4726
  189POPC  C31221835   2.767   2.848   9.075 -0.1461  0.8008  0.3555
  189POPC  H12X21836   2.741   2.763   9.143 -0.5162  0.8169  0.2379
  189POPC  H12Y21837   2.875   2.844   9.047 -0.4118  0.3444 -0.6667
  189POPC  C31321838   2.684   2.836   8.943 -0.4403 -0.2065 -0.1616
  189POPC  H13X21839   2.700   2.927   8.881 -0.7522  1.4928  2.1436
  189POPC  H13Y21840   2.574   2.833   8.959 -0.5367 -0.4642 -0.8822
  189POPC  C31421841   2.717   2.698   8.875  0.3140  1.3022 -0.1725
  189POPC  H14X21842   2.700   2.618   8.951  0.9059  0.6112 -0.7570
  189POPC  H14Y21843   2.825   2.700   8.850  0.7443  3.9394  1.7154
  189POPC  C31521844   2.633   2.667   8.758  0.2979 -0.8254 -0.4472
  189POPC  H15X21845   2.630   2.759   8.695  0.8303  0.4232  1.3006
  189POPC  H15Y21846   2.526   2.656   8.784  0.3421 -1.0879 -0.3786
  189POPC  C31621847   2.680   2.562   8.668 -0.2152 -0.3786  0.6940
  189POPC  H16X21848   2.779   2.578   8.621 -0.0465 -1.9918  0.4803
  189POPC  H16Y21849   2.621   2.562   8.574  0.4407  3.2070  0.2159
  189POPC  H16Z21850   2.675   2.465   8.721 -0.0658  0.6302  2.6035
  190POPC     N21851   4.370   5.381  11.425 -0.1144  0.1959 -0.2182
  190POPC   C1221852   4.357   5.349  11.275 -0.3391 -0.3140  0.0837
  190POPC  H12A21853   4.301   5.257  11.274  0.8231 -1.0852  2.4783
  190POPC  H12B21854   4.451   5.329  11.225 -0.6421 -3.0582  0.5535
  190POPC   C1321855   4.436   5.512  11.460  0.5072  0.0763 -0.2845
  190POPC  H13A21856   4.411   5.539  11.562 -0.9641 -0.5593 -0.4582
  190POPC  H13B21857   4.543   5.503  11.455  0.9712  1.6740  4.2399
  190POPC  H13C21858   4.397   5.587  11.392 -0.5495  0.4884  0.7518
  190POPC   C1421859   4.239   5.368  11.493  0.1992  0.4613 -0.4929
  190POPC  H14A21860   4.260   5.372  11.599  1.1924  1.2413 -0.7128
  190POPC  H14B21861   4.168   5.447  11.479 -0.6274  0.0414  1.2379
  190POPC  H14C21862   4.194   5.270  11.484 -1.1396  1.3270 -3.7258
  190POPC   C1521863   4.452   5.271  11.484 -0.0287  0.3849  0.0757
  190POPC  H15A21864   4.496   5.300  11.578  3.7071 -4.2288 -0.1018
  190POPC  H15B21865   4.536   5.256  11.419  0.5209  2.2503  0.3160
  190POPC  H15C21866   4.399   5.180  11.506  1.1814 -0.4035 -0.2318
  190POPC   C1121867   4.285   5.461  11.193 -0.0895 -0.5228 -0.5528
  190POPC  H11A21868   4.187   5.489  11.237  1.1096  1.3978  0.9686
  190POPC  H11B21869   4.264   5.419  11.092  0.4646  2.6507 -2.0297
  190POPC     P21870   4.309   5.706  11.102  0.0220 -0.1006 -0.0330
  190POPC   O1321871   4.410   5.810  11.105 -0.3934  0.2004 -0.8511
  190POPC   O1421872   4.181   5.749  11.168  0.6391  0.8935 -0.5250
  190POPC   O1221873   4.369   5.575  11.172  0.0948 -0.0623 -0.5187
  190POPC   O1121874   4.273   5.668  10.954 -0.6171  0.3862  0.2420
  190POPC    C121875   4.345   5.583  10.858 -0.0678  0.0727 -0.1107
  190POPC    HA21876   4.275   5.505  10.820 -1.0415  1.1673 -0.5792
  190POPC    HB21877   4.414   5.515  10.913 -1.3246 -0.7256  0.4964
  190POPC    C221878   4.404   5.643  10.740 -0.2320 -0.4459  0.1097
  190POPC    HS21879   4.504   5.683  10.771 -0.6029 -2.1457  3.8155
  190POPC   O2121880   4.326   5.752  10.685  0.1400  0.0060 -0.0450
  190POPC   C2121881   4.210   5.728  10.646 -0.0473  0.3108  0.9625
  190POPC   O2221882   4.148   5.626  10.648  0.2292  0.4518  0.0800
  190POPC   C2221883   4.152   5.858  10.603  0.5181  0.2257 -0.7122
  190POPC   H2R21884   4.222   5.930  10.555 -0.1341  0.9905 -0.5224
  190POPC   H2S21885   4.116   5.908  10.695  0.9473  2.5700 -1.7817
  190POPC    C321886   4.434   5.542  10.624 -0.1447  0.2050  0.7481
  190POPC    HX21887   4.340   5.484  10.616 -1.2077  1.4181  3.6416
  190POPC    HY21888   4.513   5.470  10.655  0.6771  0.4575 -0.7177
  190POPC   O3121889   4.476   5.599  10.499 -0.0457 -0.7041  0.0915
  190POPC   C3121890   4.605   5.641  10.493  0.5084  0.4974  1.0608
  190POPC   O3221891   4.683   5.657  10.588  0.5205  0.3636 -0.4202
  190POPC   C3221892   4.633   5.695  10.356 -0.6893 -0.0688 -0.1619
  190POPC   H2X21893   4.743   5.694  10.344 -0.6479  0.4476  0.1457
  190POPC   H2Y21894   4.611   5.804  10.359  0.7571  0.2000  1.6278
  190POPC   C2321895   4.033   5.844  10.507 -0.2473  0.1731 -0.7089
  190POPC   H3R21896   3.986   5.944  10.516 -1.1000 -0.5114  3.0862
  190POPC   H3S21897   3.965   5.772  10.558  0.0320  0.7042  0.4180
  190POPC   C2421898   4.080   5.802  10.365  0.0366  0.6385  0.0595
  190POPC   H4R21899   3.982   5.787  10.314  0.2565 -0.8531  0.0353
  190POPC   H4S21900   4.147   5.713  10.371  2.5052  2.4418 -0.5054
  190POPC   C2521901   4.157   5.908  10.288 -0.0454  0.2983 -0.0509
  190POPC   H5R21902   4.247   5.941  10.344  0.2674  1.7460 -1.3503
  190POPC   H5S21903   4.096   6.002  10.287 -1.5127 -0.6216  0.8811
  190POPC   C2621904   4.197   5.875  10.145  0.0303  0.5191 -0.5437
  190POPC   H6R21905   4.110   5.841  10.086 -0.5923 -1.7040  1.5458
  190POPC   H6S21906   4.274   5.794  10.144  1.0890  1.3662  3.1429
  190POPC   C2721907   4.252   5.995  10.066  0.4852  0.5218 -0.4906
  190POPC   H7R21908   4.358   6.003  10.098  0.1468 -1.9628  1.3720
  190POPC   H7S21909   4.195   6.080  10.108  1.4791  0.2586  1.4010
  190POPC   C2821910   4.242   5.973   9.916 -1.2459  0.1715  0.4930
  190POPC   H8R21911   4.140   5.932   9.898  0.0750 -2.7245 -0.5347
  190POPC   H8S21912   4.303   5.886   9.883 -1.8437  0.0590 -0.3363
  190POPC   C2921913   4.273   6.094   9.834 -0.1516 -0.8207  0.0257
  190POPC   H9121914   4.254   6.189   9.885 -2.9787 -1.1365 -0.3023
  190POPC  C21021915   4.353   6.099   9.729 -0.1555 -0.1149  0.5515
  190POPC  H10121916   4.355   6.196   9.678 -0.8131 -0.8561 -0.9211
  190POPC  C21121917   4.435   5.983   9.666  0.2934 -0.0161 -0.6186
  190POPC  H11R21918   4.408   5.885   9.709  1.4968 -0.4644 -0.8554
  190POPC  H11S21919   4.542   5.998   9.690  0.7354 -0.2727 -2.3448
  190POPC  C21221920   4.428   5.974   9.514 -0.0338  0.0183  0.0609
  190POPC  H12R21921   4.319   5.970   9.492 -0.0705  0.1935  0.2117
  190POPC  H12S21922   4.474   5.879   9.480 -0.8108 -0.7631  1.1731
  190POPC  C21321923   4.473   6.099   9.439 -0.1660  0.0409 -0.3103
  190POPC  H13R21924   4.566   6.137   9.487 -0.5765 -0.8961  1.2499
  190POPC  H13S21925   4.402   6.184   9.450  0.1738  0.5344 -1.7471
  190POPC  C21421926   4.491   6.066   9.286 -0.1343 -0.5717  0.3984
  190POPC  H14R21927   4.401   6.018   9.242  0.3442 -0.8077 -0.3360
  190POPC  H14S21928   4.563   5.981   9.289 -1.3373 -1.5498  2.7772
  190POPC  C21521929   4.553   6.175   9.198 -0.2893 -0.3352  0.4001
  190POPC  H15R21930   4.626   6.231   9.260 -0.0812 -0.4174  0.2288
  190POPC  H15S21931   4.467   6.241   9.174 -1.2140 -2.1332 -1.4062
  190POPC  C21621932   4.622   6.128   9.072  0.2377  0.0348  0.4231
  190POPC  H16R21933   4.718   6.074   9.091  0.6011  0.2067 -0.8498
  190POPC  H16S21934   4.649   6.210   9.000  1.1035 -2.0827 -1.7441
  190POPC  C21721935   4.533   6.027   9.002 -0.4973  0.0417 -0.0241
  190POPC  H17R21936   4.428   6.063   8.990 -1.1295 -0.9529  2.1621
  190POPC  H17S21937   4.516   5.932   9.058  0.4184 -0.2170 -0.1744
  190POPC  C21821938   4.596   5.979   8.872 -0.0541 -0.5755  0.2384
  190POPC  H18R21939   4.523   5.905   8.834 -0.8074  0.0282  0.5144
  190POPC  H18S21940   4.697   5.934   8.890  0.1372 -0.7100 -1.1317
  190POPC  H18T21941   4.600   6.062   8.798  0.0167 -0.8411 -0.0565
  190POPC   C3321942   4.564   5.623  10.247  0.0926  0.3789 -0.5368
  190POPC   H3X21943   4.455   5.639  10.260 -0.3749 -0.9735 -2.5517
  190POPC   H3Y21944   4.576   5.513  10.245 -1.3543  0.2102 -0.2610
  190POPC   C3421945   4.630   5.672  10.112  0.3693  0.4384  0.1858
  190POPC   H4X21946   4.736   5.642  10.125  0.4896  0.6794 -0.2432
  190POPC   H4Y21947   4.635   5.783  10.117  0.0391  0.4119  1.2656
  190POPC   C3521948   4.571   5.621   9.983  0.0237 -0.3732  0.0337
  190POPC   H5X21949   4.473   5.672   9.979  0.2202  0.4493  3.6770
  190POPC   H5Y21950   4.548   5.512   9.983  1.3801 -0.6766 -0.3136
  190POPC   C3621951   4.674   5.635   9.864  0.2623  0.6411 -0.3805
  190POPC   H6X21952   4.750   5.556   9.885  0.2585  0.7085 -0.1190
  190POPC   H6Y21953   4.703   5.741   9.873  0.9300  0.3993  0.3200
  190POPC   C3721954   4.614   5.603   9.731 -0.2701  0.1693 -0.1621
  190POPC   H7X21955   4.508   5.636   9.723 -0.1201  0.4479 -1.0774
  190POPC   H7Y21956   4.610   5.494   9.712 -0.0655 -0.1155  1.3383
  190POPC   C3821957   4.694   5.660   9.617  0.4417  0.2620  0.5807
  190POPC   H8X21958   4.802   5.635   9.628  0.2114 -0.4792  1.1813
  190POPC   H8Y21959   4.694   5.771   9.605 -1.6279  0.1062 -1.3057
  190POPC   C3921960   4.655   5.596   9.481  0.1461  0.7142  0.6729
  190POPC   H9X21961   4.550   5.629   9.464  0.2624  1.0899  0.6592
  190POPC   H9Y21962   4.647   5.486   9.481  1.1751  0.6072 -2.0048
  190POPC  C31021963   4.752   5.634   9.371  0.0239  0.3203  0.4151
  190POPC  H10X21964   4.850   5.595   9.408  0.1678 -0.2577 -0.5636
  190POPC  H10Y21965   4.756   5.745   9.374 -1.1062  0.4171 -0.9406
  190POPC  C31121966   4.723   5.575   9.231 -0.3992 -0.1532 -0.4104
  190POPC  H11X21967   4.635   5.628   9.189 -1.4089 -0.4113  1.3226
  190POPC  H11Y21968   4.703   5.466   9.233 -0.1597 -0.2286 -2.1056
  190POPC  C31221969   4.841   5.595   9.139 -0.0501 -0.2888  0.2605
  190POPC  H12X21970   4.928   5.562   9.200 -0.8904  1.1112  2.2657
  190POPC  H12Y21971   4.844   5.704   9.118 -1.2069 -0.7255 -2.3154
  190POPC  C31321972   4.840   5.518   9.008  0.9793  0.4525 -0.1512
  190POPC  H13X21973   4.748   5.549   8.953  0.7335  0.4673  0.2710
  190POPC  H13Y21974   4.817   5.413   9.034 -2.5834  1.5671  1.4561
  190POPC  C31421975   4.973   5.539   8.934 -0.2300  0.3575  0.1137
  190POPC  H14X21976   4.984   5.469   8.848 -0.5672  2.0905 -1.3484
  190POPC  H14Y21977   5.046   5.528   9.018  0.1181 -1.9760 -0.4619
  190POPC  C31521978   4.990   5.676   8.879 -0.8007 -0.2374 -0.1083
  190POPC  H15X21979   5.002   5.752   8.959  1.7936  0.6542 -1.2972
  190POPC  H15Y21980   4.892   5.717   8.846 -0.6436 -0.2774 -0.6322
  190POPC  C31621981   5.087   5.687   8.763  0.7324  0.1420  0.0732
  190POPC  H16X21982   5.189   5.649   8.787  0.3119 -1.4228 -0.5886
  190POPC  H16Y21983   5.096   5.790   8.722 -0.9471  0.1657 -0.2636
  190POPC  H16Z21984   5.048   5.626   8.679 -1.9166  1.9770 -0.0897
  191POPC     N21985   5.075   6.510   6.230  0.6560  0.7947 -0.6226
  191POPC   C1221986   4.972   6.540   6.336 -0.5381  0.3055 -0.3106
  191POPC  H12A21987   4.896   6.602   6.292 -0.3370  0.7446 -0.0363
  191POPC  H12B21988   5.030   6.608   6.396  0.5041 -0.5326 -0.3539
  191POPC   C1321989   5.014   6.410   6.122 -0.3624  0.3514  0.1407
  191POPC  H13A21990   5.017   6.310   6.162  1.3681  0.3341  0.0137
  191POPC  H13B21991   4.912   6.438   6.103 -0.8846 -2.2700 -1.0445
  191POPC  H13C21992   5.076   6.420   6.034 -1.9135  1.5733 -0.8477
  191POPC   C1421993   5.101   6.639   6.161  0.4469  0.1926  0.0983
  191POPC  H14A21994   5.012   6.685   6.120  1.6235  2.0962 -0.3917
  191POPC  H14B21995   5.152   6.713   6.220 -1.2070  0.3924  1.3319
  191POPC  H14C21996   5.160   6.617   6.074 -3.4768  1.1876 -2.9894
  191POPC   C1521997   5.204   6.452   6.290 -0.0704 -0.1379  0.1483
  191POPC  H15A21998   5.274   6.422   6.213  0.5824  0.0206  0.6719
  191POPC  H15B21999   5.182   6.359   6.342 -0.7929  0.4810  0.9597
  191POPC  H15C22000   5.254   6.519   6.358  1.2871 -0.2670 -0.6964
  191POPC   C1122001   4.917   6.422   6.426 -1.1513 -0.2661  0.2243
  191POPC  H11A22002   4.850   6.467   6.503  1.1225  2.3398  0.7773
  191POPC  H11B22003   4.993   6.373   6.491  0.0213 -1.6531 -2.1361
  191POPC     P22004   4.691   6.335   6.321 -0.3421  0.3066  0.2986
  191POPC   O1322005   4.645   6.216   6.247  0.6080 -0.2345 -0.2102
  191POPC   O1422006   4.653   6.466   6.260 -0.6477 -0.2125 -0.6111
  191POPC   O1222007   4.841   6.331   6.346 -0.4317 -0.1068 -0.1683
  191POPC   O1122008   4.635   6.334   6.471 -0.2563 -0.0262  0.3012
  191POPC    C122009   4.672   6.240   6.572 -0.2283 -0.0332 -0.3177
  191POPC    HA22010   4.740   6.284   6.649  0.3042 -1.3678 -0.0092
  191POPC    HB22011   4.734   6.157   6.531 -2.3227 -1.9171  0.2083
  191POPC    C222012   4.543   6.194   6.635  0.4642  0.3271 -0.3487
  191POPC    HS22013   4.466   6.224   6.561  2.2475 -1.9479 -3.2763
  191POPC   O2122014   4.516   6.261   6.761 -0.1629 -0.6178 -0.3874
  191POPC   C2122015   4.502   6.397   6.755 -0.2633  0.3947  0.2831
  191POPC   O2222016   4.480   6.466   6.664 -0.7356 -0.0740  0.2647
  191POPC   C2222017   4.506   6.449   6.900 -0.6055 -0.8735  0.1557
  191POPC   H2R22018   4.535   6.556   6.899  0.2355 -1.0800 -2.6971
  191POPC   H2S22019   4.578   6.384   6.955 -0.3841 -1.3164 -0.6519
  191POPC    C322020   4.535   6.038   6.651 -0.2552  0.6537 -0.0541
  191POPC    HX22021   4.554   5.997   6.550 -1.0895  2.1300 -0.8252
  191POPC    HY22022   4.431   6.006   6.674 -0.8103  1.5824 -1.2224
  191POPC   O3122023   4.630   5.987   6.748  0.6514  0.4978  0.8626
  191POPC   C3122024   4.577   5.979   6.870  0.0767  0.8060 -0.3065
  191POPC   O3222025   4.458   5.982   6.896 -0.1331 -0.5574  0.2293
  191POPC   C3222026   4.693   5.989   6.969  0.1551  0.0532 -1.4623
  191POPC   H2X22027   4.767   6.062   6.929  0.9247  0.3387  0.4055
  191POPC   H2Y22028   4.738   5.889   6.983 -0.6049  0.1385  1.9970
  191POPC   C2322029   4.368   6.431   6.966 -0.0349 -0.5376 -0.4139
  191POPC   H3R22030   4.391   6.415   7.074 -0.6260  0.4087 -0.1492
  191POPC   H3S22031   4.338   6.328   6.938 -1.2390 -0.5972  1.0215
  191POPC   C2422032   4.264   6.548   6.957  0.5430 -0.2768 -0.8068
  191POPC   H4R22033   4.163   6.516   6.989  0.3885  0.2401 -0.7851
  191POPC   H4S22034   4.260   6.592   6.855 -3.3003  0.4222 -0.4000
  191POPC   C2522035   4.302   6.664   7.052  0.3652 -0.0002  0.2207
  191POPC   H5R22036   4.223   6.743   7.046 -0.4843 -0.8274  0.4833
  191POPC   H5S22037   4.386   6.728   7.017  0.4651 -1.1200 -1.6539
  191POPC   C2622038   4.328   6.633   7.206 -0.5306  0.3273  0.5417
  191POPC   H6R22039   4.427   6.584   7.221 -2.0913 -2.9060  0.6815
  191POPC   H6S22040   4.244   6.566   7.235 -2.1775  1.2973 -1.8651
  191POPC   C2722041   4.321   6.767   7.283 -0.1161 -0.1882  0.1048
  191POPC   H7R22042   4.218   6.807   7.273 -1.4178 -3.5942 -0.7418
  191POPC   H7S22043   4.389   6.840   7.233 -0.1542 -1.1913 -1.4660
  191POPC   C2822044   4.371   6.757   7.424  0.0402 -0.0279 -0.0366
  191POPC   H8R22045   4.455   6.684   7.417  0.9569  1.0109  0.0957
  191POPC   H8S22046   4.292   6.707   7.485 -0.5211  0.9343  0.0238
  191POPC   C2922047   4.423   6.877   7.490  0.1573  0.4566 -0.7255
  191POPC   H9122048   4.497   6.928   7.427 -0.1644  0.3804 -1.1702
  191POPC  C21022049   4.383   6.919   7.612  0.3912  0.1352  0.4136
  191POPC  H10122050   4.413   7.019   7.646 -0.5806  0.6025 -0.0887
  191POPC  C21122051   4.287   6.862   7.712  0.1604 -0.2930 -0.0141
  191POPC  H11R22052   4.248   6.761   7.687  0.2721  0.0243 -1.4913
  191POPC  H11S22053   4.193   6.919   7.721 -1.3072 -2.8228  1.1871
  191POPC  C21222054   4.349   6.851   7.858  0.2678 -0.3468  0.8381
  191POPC  H12R22055   4.415   6.933   7.891 -0.2155  0.7724 -0.9317
  191POPC  H12S22056   4.401   6.753   7.874 -0.4755 -0.9144 -0.1879
  191POPC  C21322057   4.231   6.845   7.961 -0.6105 -0.3890 -0.4369
  191POPC  H13R22058   4.152   6.783   7.913 -0.6482 -2.0930  1.7292
  191POPC  H13S22059   4.187   6.945   7.983  0.0197  0.4899 -2.9675
  191POPC  C21422060   4.275   6.777   8.091  0.7609 -0.4123  0.8795
  191POPC  H14R22061   4.332   6.845   8.157  0.3904  1.3629 -0.5823
  191POPC  H14S22062   4.348   6.698   8.066 -0.4590 -2.0266  2.3348
  191POPC  C21522063   4.164   6.714   8.172 -0.2927  0.5520 -0.0904
  191POPC  H15R22064   4.099   6.651   8.107  0.3098  0.0933 -0.2472
  191POPC  H15S22065   4.108   6.798   8.219 -0.1248  0.8957 -0.5039
  191POPC  C21622066   4.226   6.614   8.279  0.1603 -0.1535  0.3343
  191POPC  H16R22067   4.318   6.649   8.329  0.0633 -1.1555  1.2306
  191POPC  H16S22068   4.244   6.519   8.224  0.2311  0.9954 -1.6922
  191POPC  C21722069   4.117   6.584   8.390  0.6790 -0.1752 -0.0219
  191POPC  H17R22070   4.059   6.678   8.393  1.0674  0.0532  0.5454
  191POPC  H17S22071   4.175   6.555   8.480  0.3207 -2.6416 -0.5572
  191POPC  C21822072   4.017   6.466   8.352 -0.3288 -0.2840 -1.0003
  191POPC  H18R22073   3.944   6.444   8.432  0.6041 -0.1870 -0.1001
  191POPC  H18S22074   4.076   6.377   8.322 -1.9087 -1.6593 -0.0857
  191POPC  H18T22075   3.963   6.487   8.257 -0.9164 -1.9211 -1.0450
  191POPC   C3322076   4.657   6.051   7.106  0.6496  0.0758 -0.3879
  191POPC   H3X22077   4.554   6.031   7.142 -0.0710  1.7015 -1.4970
  191POPC   H3Y22078   4.672   6.161   7.097  1.2260  0.0019 -0.3453
  191POPC   C3422079   4.746   6.004   7.217  0.3712 -0.4752 -0.3334
  191POPC   H4X22080   4.855   6.020   7.207  0.1702  1.7086  0.6146
  191POPC   H4Y22081   4.745   5.894   7.227  1.9484 -0.2547  3.0355
  191POPC   C3522082   4.702   6.055   7.351  0.3292 -0.7653 -0.3166
  191POPC   H5X22083   4.593   6.035   7.364  0.0593  0.2651 -0.9716
  191POPC   H5Y22084   4.721   6.164   7.359 -0.0872 -0.6660 -0.6125
  191POPC   C3622085   4.778   5.984   7.467  0.4386 -0.0954 -0.2609
  191POPC   H6X22086   4.777   6.045   7.560 -1.1652 -0.0610 -0.2803
  191POPC   H6Y22087   4.887   5.968   7.457  0.7679  0.2943  2.2362
  191POPC   C3722088   4.713   5.852   7.514  0.2544 -0.3164  0.4942
  191POPC   H7X22089   4.689   5.794   7.423  1.5885 -1.5306  0.9146
  191POPC   H7Y22090   4.616   5.865   7.567 -0.5243  1.4092 -1.2675
  191POPC   C3822091   4.801   5.770   7.608  0.0481  0.0160 -0.3589
  191POPC   H8X22092   4.889   5.825   7.647  0.8816 -3.2019  2.5418
  191POPC   H8Y22093   4.841   5.680   7.558 -2.0206 -0.9089 -0.4147
  191POPC   C3922094   4.722   5.740   7.730 -1.1940  0.3803  0.2031
  191POPC   H9X22095   4.652   5.654   7.722  0.1511 -0.6515 -0.6674
  191POPC   H9Y22096   4.664   5.829   7.762 -0.8264  0.4646  0.6331
  191POPC  C31022097   4.810   5.700   7.851  0.3304 -0.1227 -0.5114
  191POPC  H10X22098   4.876   5.789   7.861 -0.1949  0.2944 -0.7411
  191POPC  H10Y22099   4.882   5.617   7.836 -3.0397 -2.7161 -3.2087
  191POPC  C31122100   4.717   5.677   7.971  0.1799 -0.1090  0.5841
  191POPC  H11X22101   4.662   5.581   7.958 -0.7998  0.6747 -1.1881
  191POPC  H11Y22102   4.635   5.753   7.976 -1.2517 -1.6538  1.1463
  191POPC  C31222103   4.794   5.682   8.106 -0.0498  0.3037  0.1625
  191POPC  H12X22104   4.849   5.776   8.123 -2.6861  2.1540 -1.1764
  191POPC  H12Y22105   4.870   5.601   8.101  0.4634  0.5442  3.5479
  191POPC  C31322106   4.702   5.659   8.228  0.2214 -0.4479 -0.0782
  191POPC  H13X22107   4.682   5.550   8.215  0.6668 -0.6867  1.1389
  191POPC  H13Y22108   4.605   5.711   8.209 -0.3277 -0.9740  1.1983
  191POPC  C31422109   4.766   5.693   8.362 -0.1302  0.0284  0.4347
  191POPC  H14X22110   4.790   5.801   8.367 -0.8479  0.3504 -2.3408
  191POPC  H14Y22111   4.853   5.624   8.371  1.0137  1.5583  1.3622
  191POPC  C31522112   4.667   5.658   8.480  0.1556  0.0266 -0.0617
  191POPC  H15X22113   4.633   5.555   8.458  1.1351 -0.1720 -0.7042
  191POPC  H15Y22114   4.585   5.733   8.480 -1.0929 -1.3101 -0.5013
  191POPC  C31622115   4.746   5.663   8.614  0.1192  0.0194  0.0478
  191POPC  H16X22116   4.819   5.580   8.608  1.1581  0.9472 -0.1090
  191POPC  H16Y22117   4.673   5.630   8.692 -0.4867 -0.0479 -0.5444
  191POPC  H16Z22118   4.786   5.765   8.633 -0.4322  0.5261 -1.4778
  192POPC     N22119   2.604   2.172   5.660  0.0022 -0.3288 -0.2522
  192POPC   C1222120   2.688   2.112   5.770 -0.1332 -0.0935 -0.7502
  192POPC  H12A22121   2.790   2.105   5.735  0.0497  1.4539 -0.5370
  192POPC  H12B22122   2.660   2.010   5.792  2.3468 -0.2406  2.0145
  192POPC   C1322123   2.458   2.151   5.689 -0.3388 -0.3827 -0.0407
  192POPC  H13A22124   2.431   2.046   5.686  0.1511 -0.4693 -2.6698
  192POPC  H13B22125   2.430   2.181   5.789  0.6597 -1.6694  0.6476
  192POPC  H13C22126   2.397   2.198   5.614 -2.3229 -0.1748  1.6530
  192POPC   C1422127   2.635   2.317   5.642 -0.1477  0.1496  0.5479
  192POPC  H14A22128   2.602   2.378   5.725 -1.9222  0.7173 -0.5435
  192POPC  H14B22129   2.741   2.335   5.631  0.5419 -2.6864  2.1041
  192POPC  H14C22130   2.585   2.349   5.551 -0.6248 -0.1855  0.6887
  192POPC   C1522131   2.637   2.106   5.538  0.3330  0.5284  0.7750
  192POPC  H15A22132   2.554   2.144   5.481 -1.2758 -0.3017  2.5145
  192POPC  H15B22133   2.622   1.999   5.533  2.1020  0.3097 -0.3258
  192POPC  H15C22134   2.728   2.130   5.484  0.5702 -2.7673 -0.4229
  192POPC   C1122135   2.688   2.170   5.917 -0.8752  0.1499  0.3015
  192POPC  H11A22136   2.740   2.266   5.896 -0.4264 -0.0669  0.4166
  192POPC  H11B22137   2.752   2.113   5.988  1.4064  1.3162 -0.7892
  192POPC     P22138   2.495   2.107   6.075 -0.1859 -0.3989  0.2644
  192POPC   O1322139   2.483   1.961   6.048 -0.2249 -0.7501  0.2086
  192POPC   O1422140   2.367   2.172   6.115 -0.5321 -0.6209  0.0390
  192POPC   O1222141   2.552   2.192   5.959  0.4320 -0.1823  0.2071
  192POPC   O1122142   2.599   2.118   6.190  0.2123 -0.0715 -0.8763
  192POPC    C122143   2.609   2.240   6.263 -0.0648  0.0336 -0.2652
  192POPC    HA22144   2.515   2.301   6.262  0.3808  0.8174  1.8872
  192POPC    HB22145   2.696   2.300   6.229 -0.8684  1.3266 -0.1212
  192POPC    C222146   2.629   2.196   6.408 -0.0136  0.3882 -0.3693
  192POPC    HS22147   2.610   2.289   6.465  0.8302  1.7750 -2.3189
  192POPC   O2122148   2.759   2.138   6.431  0.9937 -0.3647  0.5101
  192POPC   C2122149   2.845   2.220   6.491  0.7834  0.1803 -0.2278
  192POPC   O2222150   2.822   2.337   6.528 -0.5267 -0.3146  0.0098
  192POPC   C2222151   2.979   2.146   6.508 -0.3280  0.5996  0.6071
  192POPC   H2R22152   3.060   2.189   6.445  0.1109 -0.9406  0.0996
  192POPC   H2S22153   2.964   2.041   6.475  1.3327  0.9224 -1.2673
  192POPC    C322154   2.522   2.091   6.444 -0.1795 -0.1279  0.0638
  192POPC    HX22155   2.564   1.996   6.403  3.1628  1.0987  0.5551
  192POPC    HY22156   2.432   2.112   6.383 -0.0058  1.3158  0.2954
  192POPC   O3122157   2.495   2.090   6.584  0.3950 -0.5367  0.0343
  192POPC   C3122158   2.577   2.011   6.664 -0.7698 -0.4859 -0.2711
  192POPC   O3222159   2.671   1.944   6.619 -0.2435  0.3423 -0.0219
  192POPC   C3222160   2.539   2.024   6.806 -0.0599 -0.7825 -0.0748
  192POPC   H2X22161   2.471   1.942   6.838 -1.3998 -0.6229 -2.3765
  192POPC   H2Y22162   2.482   2.119   6.821 -0.2930 -0.7816 -0.9169
  192POPC   C2322163   3.046   2.162   6.641  0.4195 -0.6780  0.4152
  192POPC   H3R22164   3.100   2.257   6.660  2.2886 -2.0093  1.9762
  192POPC   H3S22165   3.127   2.088   6.659 -0.2593 -1.6059 -0.3242
  192POPC   C2422166   2.960   2.137   6.764  0.2789  0.0356  0.0515
  192POPC   H4R22167   2.896   2.047   6.746  0.2960 -0.5280  2.5774
  192POPC   H4S22168   2.883   2.217   6.770  1.5491  1.1130  2.7969
  192POPC   C2522169   3.027   2.137   6.902  0.4174 -0.2003 -0.8707
  192POPC   H5R22170   3.118   2.075   6.885  0.8493  0.3616 -0.6554
  192POPC   H5S22171   2.969   2.068   6.967 -0.1776 -0.1030 -1.2983
  192POPC   C2622172   3.069   2.277   6.958 -0.4553  0.2295 -0.3557
  192POPC   H6R22173   2.977   2.315   7.007 -1.0560 -0.1451 -1.1701
  192POPC   H6S22174   3.094   2.334   6.866  0.9920 -3.0089 -2.0496
  192POPC   C2722175   3.204   2.275   7.033 -0.4562  0.1979 -0.3934
  192POPC   H7R22176   3.237   2.381   7.031 -0.9337  0.3863  0.9390
  192POPC   H7S22177   3.282   2.218   6.978  1.3440  1.8649  0.3718
  192POPC   C2822178   3.196   2.217   7.177  0.1238 -0.2561  0.2321
  192POPC   H8R22179   3.104   2.232   7.238  0.4541  0.5377  0.5411
  192POPC   H8S22180   3.273   2.282   7.224  0.4950 -0.6147  0.1174
  192POPC   C2922181   3.236   2.069   7.188  1.3543 -1.1806 -0.1177
  192POPC   H9122182   3.168   1.992   7.147  0.5225 -0.2111 -0.5915
  192POPC  C21022183   3.344   2.018   7.243  0.2366  0.1501  0.1199
  192POPC  H10122184   3.353   1.909   7.245  1.4630  0.2308 -0.3216
  192POPC  C21122185   3.463   2.079   7.300 -0.2616  0.4220  0.5266
  192POPC  H11R22186   3.459   2.190   7.302  0.8773  0.5205 -1.5703
  192POPC  H11S22187   3.559   2.061   7.247 -2.0827  2.8131 -3.7605
  192POPC  C21222188   3.479   2.042   7.450  0.3093 -0.3326  0.0162
  192POPC  H12R22189   3.585   2.058   7.478 -0.5957  2.2373  2.2613
  192POPC  H12S22190   3.470   1.931   7.447 -0.0421 -0.3141  0.3394
  192POPC  C21322191   3.391   2.112   7.557  0.2409 -0.3733  0.9804
  192POPC  H13R22192   3.284   2.118   7.527  0.9916  1.0153 -1.6180
  192POPC  H13S22193   3.412   2.221   7.556 -1.0155 -0.1173  2.1954
  192POPC  C21422194   3.418   2.059   7.701  0.3112  0.2505  0.0409
  192POPC  H14R22195   3.529   2.049   7.710  0.1746 -0.3245  1.2377
  192POPC  H14S22196   3.388   1.952   7.705 -1.4541  0.7649  0.8800
  192POPC  C21522197   3.357   2.126   7.822 -0.1740  0.4158  0.3923
  192POPC  H15R22198   3.246   2.132   7.822 -0.1894  0.1567  0.3596
  192POPC  H15S22199   3.395   2.229   7.835 -2.9274  1.2515  2.2466
  192POPC  C21622200   3.395   2.049   7.950 -1.0199  0.2940 -0.5773
  192POPC  H16R22201   3.505   2.036   7.946 -1.0432 -1.0808  2.1286
  192POPC  H16S22202   3.349   1.948   7.943 -0.4159  0.0080 -0.4479
  192POPC  C21722203   3.337   2.126   8.065  0.2363 -0.2959 -0.2970
  192POPC  H17R22204   3.370   2.229   8.088  0.7844 -0.6171  0.4072
  192POPC  H17S22205   3.374   2.077   8.158  0.5208  1.0851  0.3255
  192POPC  C21822206   3.188   2.123   8.080 -0.1461  0.2912 -0.3939
  192POPC  H18R22207   3.145   2.032   8.032 -0.9043  0.2472  0.3470
  192POPC  H18S22208   3.137   2.202   8.020 -0.6421 -0.6438 -1.2288
  192POPC  H18T22209   3.156   2.113   8.186  2.4124 -0.0475  0.3635
  192POPC   C3322210   2.657   2.004   6.901  0.6164 -0.7665  0.0354
  192POPC   H3X22211   2.738   2.079   6.889 -0.1913  0.3854  1.6617
  192POPC   H3Y22212   2.700   1.902   6.889  1.5408 -0.3666 -0.0475
  192POPC   C3422213   2.615   2.030   7.047  0.8490  0.4212 -0.7546
  192POPC   H4X22214   2.530   1.967   7.082  1.2036  0.4271  0.1428
  192POPC   H4Y22215   2.571   2.133   7.049  0.7135  0.3818 -1.5747
  192POPC   C3522216   2.728   2.005   7.144 -0.1283  0.8688 -0.5704
  192POPC   H5X22217   2.818   2.056   7.102  0.4494  0.2070 -0.1493
  192POPC   H5Y22218   2.756   1.898   7.155  2.4631  1.6792  1.5204
  192POPC   C3622219   2.692   2.064   7.281  0.7948  0.1148  0.2031
  192POPC   H6X22220   2.615   2.003   7.332 -0.5626 -0.7515 -2.7379
  192POPC   H6Y22221   2.655   2.167   7.261 -0.4675 -0.3993 -0.1148
  192POPC   C3722222   2.811   2.083   7.379  0.5139 -0.1363 -0.2031
  192POPC   H7X22223   2.875   2.165   7.342 -0.5558  0.4807 -0.7214
  192POPC   H7Y22224   2.874   1.992   7.374 -0.7469 -1.1390  1.5966
  192POPC   C3822225   2.761   2.104   7.523  0.2320 -0.3609  0.0383
  192POPC   H8X22226   2.701   2.017   7.556  0.6077 -1.4684 -2.1220
  192POPC   H8Y22227   2.696   2.195   7.523  0.2853 -0.3193  0.3900
  192POPC   C3922228   2.883   2.122   7.616 -0.0683 -0.0504  0.4755
  192POPC   H9X22229   2.936   2.214   7.583  0.0234  0.9271  3.1615
  192POPC   H9Y22230   2.945   2.030   7.613  1.0675  0.7136  0.0102
  192POPC  C31022231   2.842   2.147   7.760  0.3246  0.0814 -0.3060
  192POPC  H10X22232   2.925   2.142   7.834  1.3810 -0.2618 -1.5031
  192POPC  H10Y22233   2.761   2.077   7.788 -0.8131  1.1494 -0.8898
  192POPC  C31122234   2.783   2.292   7.779  0.3277  0.3496  0.8681
  192POPC  H11X22235   2.685   2.302   7.727 -0.2519 -2.6044  1.3508
  192POPC  H11Y22236   2.839   2.373   7.728  0.4453  0.2128  0.7802
  192POPC  C31222237   2.760   2.333   7.924 -0.3528 -0.3882 -0.2186
  192POPC  H12X22238   2.707   2.250   7.976 -1.4252 -0.6462 -1.6965
  192POPC  H12Y22239   2.687   2.416   7.912  0.7111  0.3281 -1.9005
  192POPC  C31322240   2.889   2.375   7.985  0.4109 -0.7423  0.4151
  192POPC  H13X22241   2.932   2.454   7.920 -0.6435 -1.3349 -1.0260
  192POPC  H13Y22242   2.954   2.287   8.004  1.0985 -0.0801  1.1675
  192POPC  C31422243   2.864   2.436   8.126 -0.0504  0.7549 -0.1782
  192POPC  H14X22244   2.821   2.352   8.184  1.5354 -1.8039 -2.6286
  192POPC  H14Y22245   2.790   2.520   8.121 -0.3919  0.3282 -2.6650
  192POPC  C31522246   2.994   2.501   8.172 -0.2412 -0.6130 -0.2440
  192POPC  H15X22247   3.040   2.560   8.090  0.3292 -1.7332 -0.7511
  192POPC  H15Y22248   3.070   2.421   8.184  0.1215 -0.6174 -2.3151
  192POPC  C31622249   2.984   2.590   8.297 -0.8358  0.5391 -0.0258
  192POPC  H16X22250   2.930   2.529   8.373 -0.7709 -2.4906 -2.3203
  192POPC  H16Y22251   2.914   2.673   8.271 -2.1588 -0.1232  1.3197
  192POPC  H16Z22252   3.076   2.621   8.351 -3.1261  2.7266  2.8605
  193SOD    SOD22253   5.133   5.608   2.420 -0.1597 -0.7277  0.7997
  194SOD    SOD22254   4.070   0.963  16.694  0.1893 -0.0039 -0.3507
  195SOD    SOD22255   5.440   1.558  13.416  0.1221  0.0656 -0.0949
  196SOD    SOD22256   4.490   5.628  12.733  0.2476 -0.1799 -0.1224
  197SOD    SOD22257   5.922   5.517   3.626  0.1978  0.0858  0.0899
  198SOD    SOD22258   1.529   6.162  11.557  0.0654 -1.2853 -0.0149
  199SOD    SOD22259   1.999   0.917  14.565 -0.3743  0.0667 -0.2317
  200SOD    SOD22260   2.012   0.055  10.889 -0.0660 -0.2430 -0.0540
  201SOD    SOD22261   4.498   4.768  14.162 -0.0589 -0.0264  0.2132
  202SOD    SOD22262   5.053   0.210  17.143  0.0955  0.2228 -0.2707
  203SOD    SOD22263   4.771   2.498   3.108 -0.2615  0.4298  0.1068
  204SOD    SOD22264   4.493   3.208   1.722 -0.3081  0.4073  0.3024
  205SOD    SOD22265   6.316   4.809   1.447  0.2600 -0.3962  0.3980
  206SOD    SOD22266   4.866   1.577   3.351  0.1540  0.1820  0.2895
  207SOD    SOD22267   6.378   0.660   4.422  0.0343  0.2060 -0.0505
  208SOD    SOD22268   1.552   3.063   5.221 -0.2953  0.5026  0.2683
  209SOD    SOD22269   2.130   1.250   0.939  0.5387 -0.4125 -0.2275
  210SOD    SOD22270   4.190   1.657  11.680 -0.3202 -0.2233  0.3785
  211SOD    SOD22271   1.830   2.255  12.027 -0.1804  0.2064  0.0157
  212SOD    SOD22272   4.196   4.759  16.974 -0.4351 -0.0308  0.0068
  213SOD    SOD22273   4.530   5.218  16.685  0.0468 -0.4137 -0.2223
  214SOD    SOD22274   0.243   1.731   0.240  0.2044 -0.1723  0.2502
  215SOD    SOD22275   4.376   2.362   1.118 -0.2797  0.1118  0.1081
  216SOD    SOD22276   4.331   2.629  11.147  0.4542  0.3071  0.2649
  217SOD    SOD22277   5.725   6.576   4.322  0.0488 -0.4047 -0.0982
  218SOD    SOD22278   5.357   0.919  10.468 -0.2604 -0.6241  0.4556
  219SOD    SOD22279   5.956   0.034  10.460  0.4741 -0.2156 -0.2639
  220SOD    SOD22280   2.771   2.980   5.571  0.2780 -0.5589  0.2761
  221SOD    SOD22281   0.211   1.674  15.440 -0.4385  0.5642 -0.7257
  222SOD    SOD22282   2.481   5.663  11.168 -0.2256 -0.1270  0.3068
  223SOD    SOD22283   3.732   6.220   6.131 -0.2662  0.0118 -0.1261
  224SOD    SOD22284   4.275   0.804   2.092  0.4126  0.2172 -0.0902
  225SOD    SOD22285   3.083   0.127  11.340  0.5075  0.0202  0.0909
  226SOD    SOD22286   0.104   2.223  14.737 -0.2838  0.0967  0.0109
  227SOD    SOD22287   6.441   5.994   4.762 -0.1616 -0.3830  0.5373
  228SOD    SOD22288   4.351   4.191  15.563 -0.2100  0.0509  0.0484
  229SOD    SOD22289   1.349   2.327   3.492  1.0102 -0.3834 -0.0743
  230SOD    SOD22290   5.971   6.578   1.817  0.0339  0.0636  0.1879
  231SOD    SOD22291   2.001   4.459  11.556  0.3430  0.1705 -0.0208
  232SOD    SOD22292   0.566   2.610  10.601  0.4830  0.7578 -0.8519
  233SOD    SOD22293   0.454   5.675  10.311  0.0425  0.0247 -0.1177
  234SOD    SOD22294   4.566   3.503  10.825 -0.4096 -0.1983 -0.3754
  235SOD    SOD22295   5.339   4.276   5.925  0.0192 -0.0979 -0.0211
  236SOD    SOD22296   2.454   4.121   4.347 -0.2037 -0.3398 -0.0417
  237SOD    SOD22297   1.379   3.307  15.132  0.1746  0.4653 -0.5448
  238SOD    SOD22298   2.934   5.565   3.650  0.0376 -0.6148  0.0157
  239SOD    SOD22299   6.489   1.755   1.604  0.1501  0.0416 -0.2176
  240SOD    SOD22300   1.146   6.364   5.149 -0.2962  0.1706  0.3715
  241SOD    SOD22301   0.525   4.723  11.068  0.4339  0.6304 -0.5477
  242SOD    SOD22302   0.107   5.008   4.588  0.7386 -0.1316  0.3206
  243SOD    SOD22303   3.372   3.550  15.667  0.1327  0.0762 -0.5764
  244SOD    SOD22304   5.290   4.851  13.851 -0.4833  0.3897  0.4360
  245SOD    SOD22305   6.454   6.361  11.220 -0.2991  0.0217  0.1137
  246SOD    SOD22306   1.512   1.104   5.717 -0.1843 -0.6149  0.1740
  247SOD    SOD22307   2.035   5.019  12.843 -0.0214 -0.2194 -0.5698
  248SOD    SOD22308   1.242   6.748  13.371  0.1718 -0.4681 -0.3103
  249SOD    SOD22309   1.073   1.885  16.100  0.1174 -0.3264  0.0216
  250SOD    SOD22310   4.622   3.769  16.401 -0.7639  0.7269 -0.1857
  251SOD    SOD22311   6.246   5.826   5.725 -0.1558 -0.6059 -0.0110
  252SOD    SOD22312   0.823   5.333   4.005 -0.5447 -0.5471 -0.3588
  253SOD    SOD22313   6.712   4.193  12.016  0.1000 -0.7239 -0.0518
  254SOD    SOD22314   0.725   2.250  11.739 -0.1808  0.4286 -0.4994
  255SOD    SOD22315   4.917   1.499  12.026 -0.0155 -0.2092  0.3976
  256SOD    SOD22316   2.914   5.409   5.532 -0.0899  0.1442  0.6073
  257SOD    SOD22317   6.496   5.029  14.190  0.3273 -0.0534 -0.3581
  258SOD    SOD22318   2.203   4.132  12.391  0.2342  0.2197  0.0032
  259SOD    SOD22319   1.671   1.780  10.939  0.2212 -0.5240 -0.4028
  260SOD    SOD22320   2.436   1.260   0.462  0.4101 -0.4738 -0.1167
  261SOD    SOD22321   4.646   1.244   1.237  0.2942 -0.1832 -0.4553
  262SOD    SOD22322   0.172   3.337   3.087 -0.0969  0.0015 -0.0269
  263SOD    SOD22323   5.989   5.732  14.571  0.2615 -0.2007 -0.6845
  264SOD    SOD22324   4.736   5.549   6.053  0.1773  0.2665  0.5915
  265SOD    SOD22325   6.598   4.854   5.893  0.1527  0.2397 -0.5598
  266SOD    SOD22326   6.289   3.196  11.850  0.3865 -0.5193 -0.0996
  267SOD    SOD22327   3.186   2.979   2.752 -0.0468  0.2337 -0.0179
  268SOD    SOD22328   2.393   0.827   6.238 -0.1898 -0.3077  0.6590
  269SOD    SOD22329   6.745   1.107   4.859 -0.0907  0.7077 -0.1749
  270CLA    CLA22330   5.937   0.063  12.815 -0.3791 -0.0393 -0.1953
  271CLA    CLA22331   0.684   2.929   2.930  0.0204  0.0003  0.2559
  272CLA    CLA22332   0.440   3.016   0.188  0.2120 -0.4772  0.4827
  273CLA    CLA22333   4.579   0.903   1.650 -0.2623 -0.1742  0.3041
  274CLA    CLA22334   4.788   5.514  14.070 -0.0220 -0.4563 -0.3971
  275CLA    CLA22335   0.031   2.838  12.476 -0.3906 -0.4836  0.2084
  276CLA    CLA22336   1.212   0.808  12.732 -0.2479 -0.0903  0.1256
  277CLA    CLA22337   5.793   3.329  12.898 -0.0473 -0.3056 -0.0389
  278CLA    CLA22338   3.100   3.861  11.288 -0.2191  0.4665  0.0327
  279CLA    CLA22339   3.885   3.000  15.635  0.2450 -0.2098 -0.3780
  280CLA    CLA22340   3.484   3.216  14.991  0.0475 -0.0137 -0.0718
  281CLA    CLA22341   5.979   4.584  11.656 -0.0808  0.1658 -0.0066
  282CLA    CLA22342   1.325   4.827   4.994  0.1469  0.2598 -0.3166
  283CLA    CLA22343   4.844   3.727  15.480 -0.0183  0.6038  0.0976
  284CLA    CLA22344   3.318   1.982   1.463 -0.0025  0.4243 -0.0084
  285CLA    CLA22345   6.544   1.438   0.615 -0.1808 -0.1142  0.1097
  286CLA    CLA22346   2.086   4.793  11.936 -0.0360  0.1211  0.4576
  287CLA    CLA22347   5.693   4.296   4.468 -0.0795 -0.0473  0.1516
  288CLA    CLA22348   0.409   0.080   3.633  0.1880 -0.1272 -0.0973
  289CLA    CLA22349   3.242   3.373   2.407  0.1382 -0.2675 -0.3936
  290CLA    CLA22350   5.959   2.111  15.666  0.1300 -0.1512 -0.2321
  291CLA    CLA22351   0.223   1.911  12.795 -0.3757  0.1372 -0.1539
  292CLA    CLA22352   6.517   2.312  15.968 -0.3122 -0.0245 -0.3714
  293CLA    CLA22353   2.552   1.954  12.810  0.0811 -0.1270  0.2150
  294CLA    CLA22354   0.418   5.317  14.442  0.1843 -0.1944 -0.1274
  295CLA    CLA22355   5.396   6.634   5.207  0.1577 -0.2859  0.3048
  296CLA    CLA22356   5.832   0.832  16.431  0.5102  0.0418  0.0616
  297CLA    CLA22357   6.307   6.340   0.226 -0.0827 -0.3455  0.0566
  298CLA    CLA22358   4.851   6.077  12.961 -0.3006 -0.6581  0.0256
  299CLA    CLA22359   6.530   5.633   4.226  0.0177 -0.0104  0.0414
  300CLA    CLA22360   3.307   2.568   5.413  0.0810  0.2247 -0.1892
  301CLA    CLA22361   0.960   1.609  15.568  0.6152  0.4466  0.5147
  302CLA    CLA22362   0.433   2.349   3.077  0.1061  0.4253 -0.1470
  303CLA    CLA22363   3.454   6.384   1.776  0.0444 -0.1444  0.2565
  304CLA    CLA22364   1.658   5.745  12.389  0.3956 -0.2066 -0.1109
  305CLA    CLA22365   1.905   0.205  15.925  0.5093 -0.2491 -0.3123
  306CLA    CLA22366   6.213   0.286  15.582 -0.2771 -0.0073 -0.1003
  307CLA    CLA22367   0.458   2.839  14.521  0.1027  0.1052 -0.0285
  308CLA    CLA22368   1.255   3.236   4.811  0.0490 -0.3181  0.3126
  309CLA    CLA22369   6.520   5.944  14.009 -0.2220 -0.2465  0.0091
  310CLA    CLA22370   4.998   4.978   2.661  0.0941  0.1699  0.2025
  311CLA    CLA22371   4.231   4.145   0.304 -0.3514  0.1397  0.1035
  312CLA    CLA22372   3.979   5.571  13.516  0.6219 -0.1368 -0.1433
  313CLA    CLA22373   1.274   5.612   0.992 -0.1213 -0.1821  0.2618
  314CLA    CLA22374   1.848   0.137   2.269  0.2512  0.1726 -0.0571
  315CLA    CLA22375   5.767   1.398   1.998 -0.2154  0.2151  0.1914
  316CLA    CLA22376   5.617   4.171  14.582  0.1836  0.3102 -0.3896
  317CLA    CLA22377   2.788   2.195  12.144 -0.1117  0.4808 -0.1433
  318CLA    CLA22378   4.454   0.735   3.510  0.1318 -0.2871  0.1776
  319CLA    CLA22379   4.894   2.656   1.272 -0.1017  0.2333 -0.0284
  320CLA    CLA22380   4.627   5.490  16.269  0.0085 -0.0382 -0.1911
  321CLA    CLA22381   3.242   4.535  16.173  0.2552  0.2202 -0.3657
  322CLA    CLA22382   5.429   2.168  11.299 -0.3606  0.2693 -0.0477
  323TIP3   OH222383   5.502   3.309   3.234 -0.2315  0.1067  0.1725
  323TIP3    H122384   5.500   3.326   3.140  0.9576 -1.0048 -0.0815
  323TIP3    H222385   5.471   3.390   3.274  1.7614  1.5424 -1.0976
  324TIP3   OH222386   5.710   2.908   4.439  0.0736 -0.7184  0.0799
  324TIP3    H122387   5.720   2.857   4.520  0.4802  2.1909  1.9445
  324TIP3    H222388   5.751   2.854   4.372  1.2560 -2.4669  2.1254
  325TIP3   OH222389   0.745   2.321   2.411 -0.0894  0.3599  0.1103
  325TIP3    H122390   0.716   2.237   2.376  1.8122  0.0300 -0.7619
  325TIP3    H222391   0.748   2.379   2.335 -0.9748  1.1062  0.6348
  326TIP3   OH222392   2.178   0.306   6.412 -0.0297 -0.4400  0.2068
  326TIP3    H122393   2.224   0.296   6.495  0.3616 -0.3581 -0.0007
  326TIP3    H222394   2.145   0.396   6.414  0.3597 -0.2942  0.0797
  327TIP3   OH222395   2.685   2.045  13.516 -0.1434  0.0542  0.4146
  327TIP3    H122396   2.658   2.013  13.430 -1.2524  0.4206  0.6180
  327TIP3    H222397   2.718   2.133  13.500 -0.9172  0.3534  0.4463
  328TIP3   OH222398   0.617   0.090   2.531 -0.1441 -0.3369  0.7091
  328TIP3    H122399   0.646   0.181   2.530  1.1491 -0.7313  1.1932
  328TIP3    H222400   0.540   0.091   2.588 -0.3585  0.5097  0.4214
  329TIP3   OH222401   6.086   4.340   1.311  0.4323 -0.4384  0.2888
  329TIP3    H122402   5.994   4.349   1.287  0.5138 -1.9231 -0.6282
  329TIP3    H222403   6.134   4.354   1.229  1.0294  0.3865  0.7719
  330TIP3   OH222404   5.589   6.397  15.433  0.0118  0.6210 -0.2887
  330TIP3    H122405   5.560   6.375  15.345 -0.5080 -0.2952  0.1105
  330TIP3    H222406   5.510   6.428  15.478 -0.0410 -0.4035  0.3291
  331TIP3   OH222407   5.772   5.944   1.825  0.0536 -0.0580  0.8315
  331TIP3    H122408   5.716   5.998   1.881  1.0134  0.1750  1.5946
  331TIP3    H222409   5.792   5.867   1.879 -0.2295 -0.5408  0.2475
  332TIP3   OH222410   5.306   0.172   2.108 -0.2477  0.1746 -0.0557
  332TIP3    H122411   5.253   0.242   2.146 -0.5945 -0.4776  0.7026
  332TIP3    H222412   5.396   0.195   2.129 -0.4496 -0.2991  1.4223
  333TIP3   OH222413   0.979   5.727  12.833 -0.2681 -0.4855 -0.0788
  333TIP3    H122414   0.894   5.769  12.824  0.1978  0.6960  0.9010
  333TIP3    H222415   0.983   5.664  12.761 -2.3960 -1.3076  0.4894
  334TIP3   OH222416   5.724   6.623  12.767 -0.4695 -0.3346  0.0711
  334TIP3    H122417   5.771   6.555  12.718 -1.9751 -1.7434  0.5595
  334TIP3    H222418   5.786   6.696  12.769  1.7976 -2.1828  0.8548
  335TIP3   OH222419   3.592   1.724   5.373 -0.3601  0.2693  0.1362
  335TIP3    H122420   3.628   1.697   5.289 -1.2904  0.3367 -0.2813
  335TIP3    H222421   3.587   1.644   5.425 -0.5088  0.1011 -0.1383
  336TIP3   OH222422   3.910   6.259  13.222  0.0066  0.1393 -0.0001
  336TIP3    H122423   3.851   6.231  13.153 -0.2795  1.0588 -0.1336
  336TIP3    H222424   3.996   6.228  13.194  0.0370  1.2642 -1.2191
  337TIP3   OH222425   1.539   6.192  13.595 -0.5112 -0.3761 -0.1064
  337TIP3    H122426   1.503   6.110  13.630  1.3446 -1.9500 -1.6912
  337TIP3    H222427   1.627   6.167  13.565 -0.3903  1.9425 -1.7434
  338TIP3   OH222428   1.043   5.672   3.737 -0.2310  0.5536  0.4338
  338TIP3    H122429   1.087   5.714   3.811 -0.6396 -1.3123  1.7866
  338TIP3    H222430   1.110   5.614   3.699 -0.6753 -0.1552  0.7263
  339TIP3   OH222431   2.860   0.036  16.195 -0.2277 -1.0172 -0.3118
  339TIP3    H122432   2.826   0.125  16.194  0.4939 -0.7451 -0.5298
  339TIP3    H222433   2.795  -0.015  16.147  0.5666 -0.1673 -2.3465
  340TIP3   OH222434   6.551   5.177   4.444  0.4844  0.1382  0.1164
  340TIP3    H122435   6.544   5.226   4.526 -0.2600 -1.0245  0.7565
  340TIP3    H222436   6.604   5.101   4.465  0.5618 -0.0055 -0.5696
  341TIP3   OH222437   6.664   5.936   3.765  0.5355  0.2540 -0.4022
  341TIP3    H122438   6.717   5.951   3.843  0.6546 -0.8474 -0.2699
  341TIP3    H222439   6.675   6.016   3.713  0.5586  0.9317  0.6436
  342TIP3   OH222440   4.749   0.613  15.560  0.5119  0.4109 -0.4296
  342TIP3    H122441   4.691   0.577  15.627  1.2932  1.3781  0.7919
  342TIP3    H222442   4.824   0.553  15.558  1.6102  1.6679  1.2970
  343TIP3   OH222443   2.148   0.026   2.312  0.5636  0.6804  0.7919
  343TIP3    H122444   2.098   0.078   2.249  0.7245 -1.3673 -1.0853
  343TIP3    H222445   2.081  -0.025   2.359  0.5494  1.3011  1.4637
  344TIP3   OH222446   1.622   3.637   3.820 -0.8888  0.3571 -0.6558
  344TIP3    H122447   1.638   3.570   3.753  0.5366 -0.8784  0.8752
  344TIP3    H222448   1.673   3.712   3.791 -1.1687  0.2211 -1.5297
  345TIP3   OH222449   5.571   5.419   4.413  0.5959 -0.3889 -0.0972
  345TIP3    H122450   5.663   5.394   4.413  0.9535  0.8972  0.5895
  345TIP3    H222451   5.569   5.505   4.371 -0.6688 -1.6632 -2.7569
  346TIP3   OH222452   1.042   0.001   2.705  0.0351  0.1812 -0.3509
  346TIP3    H122453   1.100   0.030   2.635 -1.8201  0.9644 -1.6096
  346TIP3    H222454   0.970  -0.044   2.660 -0.5195 -0.4860  1.1495
  347TIP3   OH222455   1.606   5.371  13.688 -0.1330 -0.1984  0.2136
  347TIP3    H122456   1.597   5.418  13.605 -1.3032 -1.1170 -0.1908
  347TIP3    H222457   1.570   5.430  13.754 -0.8754 -0.2049 -0.1853
  348TIP3   OH222458   2.739   6.588   3.865 -0.0726 -0.1692  0.4562
  348TIP3    H122459   2.666   6.576   3.803 -0.3016  1.0853  0.4682
  348TIP3    H222460   2.808   6.531   3.832 -0.8008 -0.7979  0.0115
  349TIP3   OH222461   6.004   4.519   2.719 -0.5116 -0.2592  0.0778
  349TIP3    H122462   6.010   4.506   2.813 -0.8359  1.1169  0.2988
  349TIP3    H222463   5.931   4.464   2.691 -0.5934 -0.4518  0.6769
  350TIP3   OH222464   6.188   4.661  15.803  0.3966  0.0364 -0.4115
  350TIP3    H122465   6.263   4.678  15.860 -1.1200 -2.0901  2.3315
  350TIP3    H222466   6.112   4.666  15.861 -1.4635  0.6047 -2.8326
  351TIP3   OH222467   3.134   5.729  14.991  0.3254 -0.1614 -0.5358
  351TIP3    H122468   3.074   5.736  14.917 -1.2227  0.9380  0.7973
  351TIP3    H222469   3.099   5.657  15.043  0.9174 -0.3667 -0.4192
  352TIP3   OH222470   0.688   6.070  14.204 -0.3126 -0.3279  0.2750
  352TIP3    H122471   0.669   6.153  14.160  0.0958  0.6536  1.8958
  352TIP3    H222472   0.728   6.016  14.136  0.6885  1.2996 -0.4819
  353TIP3   OH222473   1.665   0.615   4.176  0.1085 -0.0322  0.0591
  353TIP3    H122474   1.632   0.644   4.091 -0.2261 -0.3720  0.0744
  353TIP3    H222475   1.658   0.693   4.231  1.5044  0.5580 -0.5450
  354TIP3   OH222476   1.282   3.657  16.030  0.2362  0.0518  0.6144
  354TIP3    H122477   1.314   3.747  16.028  0.1997  0.0275 -1.8841
  354TIP3    H222478   1.338   3.610  15.968 -0.4083 -1.4385  1.1299
  355TIP3   OH222479   4.022   0.905  10.548  0.5668 -0.1072  0.5360
  355TIP3    H122480   4.075   0.830  10.522  1.3206 -0.0648  1.9156
  355TIP3    H222481   3.956   0.867  10.607 -1.1284 -0.2059 -1.3605
  356TIP3   OH222482   3.962   6.070  15.346 -0.2065  0.0083 -0.3952
  356TIP3    H122483   3.989   5.979  15.333  3.1697  1.1302 -1.7818
  356TIP3    H222484   3.968   6.084  15.441 -1.4988 -1.4088 -0.0917
  357TIP3   OH222485   0.441   0.034   2.733  0.1142  0.2263  0.1066
  357TIP3    H122486   0.483  -0.052   2.725 -0.2491  0.0762 -0.1751
  357TIP3    H222487   0.499   0.083   2.791  0.3198 -0.2103  0.2732
  358TIP3   OH222488   3.023   0.034  15.596  0.6512 -0.0665  0.0007
  358TIP3    H122489   2.936   0.069  15.618 -0.0557 -2.1144  0.5744
  358TIP3    H222490   3.023   0.028  15.501  1.0864  2.1968 -0.1750
  359TIP3   OH222491   1.082   1.367   6.238 -0.5777 -0.1077  0.5621
  359TIP3    H122492   1.028   1.387   6.315 -0.2633 -1.2442  1.1042
  359TIP3    H222493   1.172   1.385   6.266 -0.3425 -1.6468  0.8834
  360TIP3   OH222494   5.312   2.369  15.697 -0.1392 -0.1106 -0.8166
  360TIP3    H122495   5.279   2.450  15.658  1.0803  0.9663  0.3662
  360TIP3    H222496   5.234   2.326  15.733 -1.0329 -0.3066 -2.9065
  361TIP3   OH222497   5.599   2.234   0.146 -0.3365  0.4481  0.5732
  361TIP3    H122498   5.643   2.239   0.061 -2.1704 -1.9360 -0.5788
  361TIP3    H222499   5.518   2.284   0.134 -1.6077 -1.6600  0.2218
  362TIP3   OH222500   6.582   4.565  15.949 -0.4999  0.1815  0.6648
  362TIP3    H122501   6.655   4.539  15.894 -0.5809  1.4997 -0.0894
  362TIP3    H222502   6.521   4.492  15.944 -0.1046 -0.0935 -0.2832
  363TIP3   OH222503   5.434   4.972   3.881 -0.6157  0.0408  0.0226
  363TIP3    H122504   5.463   4.899   3.826 -0.4993 -0.2133  0.4217
  363TIP3    H222505   5.489   5.045   3.853 -1.0165  0.0853 -0.6641
  364TIP3   OH222506   2.620   4.755  12.740  0.3289 -0.9963 -0.5002
  364TIP3    H122507   2.623   4.785  12.650 -2.1115 -0.8492 -0.5515
  364TIP3    H222508   2.648   4.663  12.735 -0.5468 -1.2178 -1.5153
  365TIP3   OH222509   2.815   3.032   5.801  0.2408 -0.3454 -0.0119
  365TIP3    H122510   2.904   3.066   5.814 -0.2399 -0.1294  2.9983
  365TIP3    H222511   2.812   2.952   5.853 -1.4703 -0.1218  0.2396
  366TIP3   OH222512   2.209   1.722  17.232  0.4474  0.3383  0.2492
  366TIP3    H122513   2.162   1.652  17.278  1.0404 -0.2690 -0.0539
  366TIP3    H222514   2.236   1.682  17.149 -0.6241  1.4339 -0.6375
  367TIP3   OH222515   0.025   2.889  11.158 -0.2177  0.2028  0.1545
  367TIP3    H122516   0.025   2.984  11.152  2.7159  0.3554  1.7743
  367TIP3    H222517  -0.003   2.860  11.071  0.2824  2.5420 -0.8319
  368TIP3   OH222518   5.855   4.934  15.879  0.1976  0.3183  0.0009
  368TIP3    H122519   5.830   5.026  15.865  0.8602  0.7929  1.7718
  368TIP3    H222520   5.819   4.912  15.965 -0.9292 -1.4494 -0.8947
  369TIP3   OH222521   3.632   2.418   0.776 -0.4463  0.2684 -0.5852
  369TIP3    H122522   3.636   2.468   0.857  0.3866  0.1703 -0.5537
  369TIP3    H222523   3.666   2.479   0.709  0.2583 -0.1403 -0.6022
  370TIP3   OH222524   1.823   3.893  13.372 -0.3519  0.0061  0.2814
  370TIP3    H122525   1.807   3.864  13.282  1.4070 -0.3324  0.0490
  370TIP3    H222526   1.811   3.815  13.425  0.9660 -0.3687  0.0511
  371TIP3   OH222527   4.045   3.442   5.686  0.1183 -0.1368  0.2054
  371TIP3    H122528   4.037   3.469   5.777  0.0545  0.5547 -0.0036
  371TIP3    H222529   4.032   3.523   5.635 -0.0565 -0.5527 -0.4213
  372TIP3   OH222530   2.385   4.389   2.942 -0.0758  0.1626 -0.4966
  372TIP3    H122531   2.304   4.430   2.912 -0.5541  1.0418  1.9309
  372TIP3    H222532   2.364   4.351   3.027  2.1918  0.9027  0.4443
  373TIP3   OH222533   0.681   0.561  14.280  0.7095  0.2730 -0.5399
  373TIP3    H122534   0.761   0.513  14.298 -0.5772 -1.5482  0.5476
  373TIP3    H222535   0.646   0.522  14.200  0.3454  0.3086 -0.4011
  374TIP3   OH222536   5.023   0.040  15.380 -0.5952 -0.1380 -0.9703
  374TIP3    H122537   4.990   0.014  15.465  0.4376 -0.3916 -0.6405
  374TIP3    H222538   4.951   0.089  15.340 -1.2453 -0.4150 -0.1447
  375TIP3   OH222539   4.960   0.494  16.820  0.8694  0.5013  0.6128
  375TIP3    H122540   4.898   0.452  16.760  0.6963  2.4895 -0.6697
  375TIP3    H222541   4.946   0.588  16.806  1.6109  1.0021  2.9887
  376TIP3   OH222542   6.250   5.321   2.248  0.7207  0.2667  0.4407
  376TIP3    H122543   6.327   5.371   2.278  0.4972  0.0898  1.3254
  376TIP3    H222544   6.175   5.371   2.282  0.4193  0.7673 -0.9330
  377TIP3   OH222545   5.123   6.357  15.415 -0.3285 -0.1249 -0.0099
  377TIP3    H122546   5.174   6.278  15.433  0.0199 -0.1796 -1.1938
  377TIP3    H222547   5.159   6.391  15.333 -0.9732  0.8531  0.1014
  378TIP3   OH222548   4.936   4.296   4.120  0.2256  0.6490  0.1008
  378TIP3    H122549   5.004   4.235   4.090  0.3193  0.9384 -0.2769
  378TIP3    H222550   4.892   4.250   4.191  1.3231  0.7612  0.8680
  379TIP3   OH222551   4.012   3.578   0.481 -0.3930 -0.6207  0.3027
  379TIP3    H122552   3.981   3.529   0.558 -0.7768  0.1864  0.6746
  379TIP3    H222553   3.974   3.665   0.492 -1.2587 -0.7788 -1.3094
  380TIP3   OH222554   1.337   3.663  13.727  0.5409 -0.3893  0.1658
  380TIP3    H122555   1.392   3.733  13.694  0.4729 -0.6074 -0.4148
  380TIP3    H222556   1.280   3.706  13.791  1.6559 -0.2450  1.0771
  381TIP3   OH222557   5.310   6.729   6.625 -0.0682 -0.8483 -0.1007
  381TIP3    H122558   5.315   6.742   6.530  0.9722 -1.4383 -0.1384
  381TIP3    H222559   5.360   6.802   6.662 -2.0184  0.4354  0.0929
  382TIP3   OH222560   4.007   0.175  15.153 -0.1168 -0.5947 -0.0240
  382TIP3    H122561   4.031   0.257  15.110  0.5127 -1.0559 -0.5736
  382TIP3    H222562   3.915   0.185  15.174 -0.6982 -0.7002 -2.3352
  383TIP3   OH222563   0.116   0.913   0.977  0.0677 -0.3029 -0.8338
  383TIP3    H122564   0.037   0.898   0.924  0.2242  0.6447 -1.3535
  383TIP3    H222565   0.120   1.008   0.987  1.3328 -0.3117 -1.1147
  384TIP3   OH222566   1.294   3.683  13.269  0.1425  0.4717  0.4133
  384TIP3    H122567   1.238   3.633  13.328  0.4045  0.3495  0.5574
  384TIP3    H222568   1.233   3.722  13.206  0.1296 -1.7246 -0.9831
  385TIP3   OH222569   5.318   2.814  13.935  0.6283 -0.2335  0.0167
  385TIP3    H122570   5.311   2.723  13.962  1.4902 -0.2751  0.1047
  385TIP3    H222571   5.293   2.813  13.842 -1.0146 -0.2924  0.4454
  386TIP3   OH222572   5.442   3.370  12.546  0.0722 -0.4531  0.4488
  386TIP3    H122573   5.389   3.441  12.583  0.1598  0.4447 -1.0863
  386TIP3    H222574   5.396   3.290  12.570 -0.4476  0.1743  1.5498
  387TIP3   OH222575   0.203   2.843   3.190 -0.9524 -0.2339  0.1857
  387TIP3    H122576   0.294   2.828   3.163 -0.5747  1.9556  0.1152
  387TIP3    H222577   0.190   2.783   3.263  0.2563 -1.2226 -0.3784
  388TIP3   OH222578   0.806   6.015   3.852  0.3776 -0.3266 -0.6514
  388TIP3    H122579   0.864   6.090   3.843 -0.7802  0.5869 -0.7005
  388TIP3    H222580   0.794   6.005   3.947 -0.7118  0.5578 -0.6784
  389TIP3   OH222581   0.995   0.457  14.056 -0.1032 -0.4070 -0.3710
  389TIP3    H122582   1.059   0.515  14.097 -1.0348  0.7535 -0.5338
  389TIP3    H222583   1.020   0.456  13.963 -0.8064  0.7026 -0.5785
  390TIP3   OH222584   5.843   6.371  12.031 -0.1034 -0.0151 -0.1654
  390TIP3    H122585   5.792   6.451  12.042  0.4492  0.3204 -0.0212
  390TIP3    H222586   5.790   6.303  12.071  0.1256  0.5369  1.0994
  391TIP3   OH222587   4.769   3.799  12.131 -0.1602  0.1556 -0.2739
  391TIP3    H122588   4.766   3.893  12.151  1.6155  0.3378 -0.7938
  391TIP3    H222589   4.803   3.794  12.042 -0.4690 -0.9773 -0.3330
  392TIP3   OH222590   1.213   5.616  14.998 -0.3087  0.5317 -0.2504
  392TIP3    H122591   1.294   5.622  14.947  0.3577  1.8226  0.9350
  392TIP3    H222592   1.150   5.667  14.948 -0.2305  0.0736 -0.8333
  393TIP3   OH222593   3.458   2.788  12.254 -0.4463 -0.6206 -0.5762
  393TIP3    H122594   3.379   2.740  12.232 -0.0985 -1.4990  0.0483
  393TIP3    H222595   3.469   2.773  12.348  0.6690 -0.8130 -0.7346
  394TIP3   OH222596   5.560   0.408   2.325 -0.0615  0.1511 -0.0002
  394TIP3    H122597   5.612   0.422   2.405 -2.1890 -0.1635  1.4835
  394TIP3    H222598   5.600   0.331   2.284  0.8810  0.1343  0.9212
  395TIP3   OH222599   0.314   5.473   2.821  0.7573  0.0948 -0.0834
  395TIP3    H122600   0.237   5.419   2.803  0.1634  0.2921  1.7726
  395TIP3    H222601   0.290   5.560   2.789 -0.4882  0.5666  2.0743
  396TIP3   OH222602   6.331   0.976  15.517 -0.0798  0.2376 -0.6551
  396TIP3    H122603   6.426   0.980  15.509 -0.1265  0.7437 -0.9896
  396TIP3    H222604   6.300   1.061  15.485 -0.6071  0.3164  0.0418
  397TIP3   OH222605   4.442   6.364   0.824 -0.3187  0.4826  0.1926
  397TIP3    H122606   4.412   6.276   0.846 -0.3331  0.5154  0.3032
  397TIP3    H222607   4.402   6.383   0.739  0.6765 -0.1078 -0.4125
  398TIP3   OH222608   4.215   1.630   1.646  0.4590  0.5215 -0.0995
  398TIP3    H122609   4.138   1.578   1.669 -0.6352  1.1845 -2.1047
  398TIP3    H222610   4.239   1.674   1.727 -0.2847 -0.9592  0.9472
  399TIP3   OH222611   0.407   0.876   4.972 -0.7319 -0.2077  0.0178
  399TIP3    H122612   0.483   0.912   5.018 -0.4522 -0.2619 -0.3921
  399TIP3    H222613   0.396   0.788   5.009  0.9668 -1.1818 -1.6666
  400TIP3   OH222614   4.587   4.589   3.861 -0.4472 -0.4294  0.4564
  400TIP3    H122615   4.591   4.507   3.812 -0.7595 -0.2580  0.1350
  400TIP3    H222616   4.678   4.610   3.881 -0.1976  0.1906 -1.2334
  401TIP3   OH222617   5.234   4.452  17.235 -0.4629  0.3639  0.3241
  401TIP3    H122618   5.193   4.538  17.224 -0.0373  0.7893  1.8931
  401TIP3    H222619   5.327   4.472  17.251  0.3661 -0.5891 -3.0863
  402TIP3   OH222620   1.960   2.221  15.489 -0.1450  0.6010  0.7637
  402TIP3    H122621   1.891   2.159  15.466 -0.6432  0.4852  2.5335
  402TIP3    H222622   1.969   2.213  15.584  0.7265  2.2698  0.8335
  403TIP3   OH222623   3.550   2.716   2.206 -0.7560  0.3915  0.3694
  403TIP3    H122624   3.497   2.651   2.251 -1.5998  2.3731  2.3808
  403TIP3    H222625   3.596   2.762   2.277  0.9982  0.9625 -1.0991
  404TIP3   OH222626   0.191   0.813  16.813  0.2962  0.0061 -0.1693
  404TIP3    H122627   0.179   0.720  16.792 -0.6605  0.5526 -2.2238
  404TIP3    H222628   0.120   0.857  16.766  0.7220  1.7784  0.8044
  405TIP3   OH222629   6.001   5.348   6.530  0.6782  0.2193  0.5888
  405TIP3    H122630   6.072   5.331   6.468  0.9045 -2.6412  1.5880
  405TIP3    H222631   5.967   5.262   6.552 -3.8441  1.5788 -0.6427
  406TIP3   OH222632   6.638   1.442  11.986 -0.0504  0.0793  0.4019
  406TIP3    H122633   6.725   1.419  11.955  0.1225 -1.0546  1.6493
  406TIP3    H222634   6.644   1.534  12.010  1.5250 -0.5884  2.7927
  407TIP3   OH222635   2.373   2.483   2.072  0.0433 -0.2617 -0.0819
  407TIP3    H122636   2.298   2.433   2.039 -0.0385 -0.9932  1.1937
  407TIP3    H222637   2.334   2.553   2.125  0.2152  0.3012 -0.6858
  408TIP3   OH222638   3.960   0.872  16.182 -0.5326 -0.1684  0.0331
  408TIP3    H122639   4.024   0.914  16.125  0.4504 -1.7562 -0.0500
  408TIP3    H222640   3.919   0.945  16.229  0.1142  0.9904 -1.1604
  409TIP3   OH222641   0.685   5.310  16.017  0.5411 -0.4842  0.1336
  409TIP3    H122642   0.765   5.272  15.982  0.1078 -0.3953 -0.9533
  409TIP3    H222643   0.715   5.377  16.080  1.3336  0.7190 -1.4966
  410TIP3   OH222644   1.005   0.371  14.891 -0.4860 -0.1528  0.3155
  410TIP3    H122645   0.910   0.377  14.886 -0.5837 -0.9159  1.0994
  410TIP3    H222646   1.027   0.293  14.839 -0.6024 -1.9751  2.9209
  411TIP3   OH222647   3.943   5.340  14.213  0.0735  0.5570 -0.0476
  411TIP3    H122648   4.016   5.400  14.195  0.7428 -0.2523 -0.0612
  411TIP3    H222649   3.956   5.268  14.152  0.2362 -0.4059  1.1100
  412TIP3   OH222650   0.889   2.570   0.609 -0.4238  0.1795  0.6235
  412TIP3    H122651   0.895   2.590   0.702 -1.0165 -0.2448  0.7592
  412TIP3    H222652   0.839   2.643   0.571 -0.2251  0.3272  0.6479
  413TIP3   OH222653   6.543   6.720  14.669  0.2682 -0.1148 -0.0762
  413TIP3    H122654   6.498   6.779  14.729  1.0868 -0.8088  1.2243
  413TIP3    H222655   6.494   6.639  14.672 -0.2934  0.1703 -1.1415
  414TIP3   OH222656   6.536   4.045  11.710  0.3246  0.1329  0.4435
  414TIP3    H122657   6.580   4.015  11.790  1.1140 -1.3136 -0.5169
  414TIP3    H222658   6.465   3.983  11.697 -0.3206  0.8611  0.4823
  415TIP3   OH222659   0.604   1.543   1.156  0.1605  0.3120 -0.2829
  415TIP3    H122660   0.542   1.603   1.116  0.8834  0.8441 -0.6186
  415TIP3    H222661   0.689   1.570   1.122  0.6689  0.1284  0.8210
  416TIP3   OH222662   1.494   1.840   0.282  0.2455 -0.2395  0.4816
  416TIP3    H122663   1.422   1.900   0.300 -0.4198 -1.0465  0.5809
  416TIP3    H222664   1.486   1.821   0.188  1.2326  0.8177  0.1809
  417TIP3   OH222665   6.501   2.564   5.133  0.1704  0.3159  0.0525
  417TIP3    H122666   6.497   2.659   5.130  0.5929  0.3766  1.2758
  417TIP3    H222667   6.464   2.541   5.218  1.6115 -0.5288  0.4575
  418TIP3   OH222668   1.018   6.536   0.347  0.0756  0.4805 -0.0160
  418TIP3    H122669   1.070   6.610   0.379  0.6536  0.7297 -1.4695
  418TIP3    H222670   0.932   6.573   0.328  0.4273  0.8491 -0.9430
  419TIP3   OH222671   1.560   1.897   4.839 -0.2131 -0.0481  0.0266
  419TIP3    H122672   1.616   1.820   4.825 -1.0405 -1.1198  2.3657
  419TIP3    H222673   1.472   1.860   4.850 -1.0668  1.4584 -1.5107
  420TIP3   OH222674   4.323   0.446  15.966  0.0212 -0.0921  0.3776
  420TIP3    H122675   4.300   0.447  16.059 -0.6040  0.1890  0.2226
  420TIP3    H222676   4.418   0.461  15.965 -0.1003  0.7089  0.9279
  421TIP3   OH222677   6.738   0.509   6.219  0.2040 -0.5509 -0.1516
  421TIP3    H122678   6.816   0.535   6.170 -0.9506  0.0635 -1.6913
  421TIP3    H222679   6.667   0.561   6.181 -0.7957 -0.3806  1.8866
  422TIP3   OH222680   3.580   1.453   0.519 -0.2038  0.3870 -0.0424
  422TIP3    H122681   3.531   1.398   0.580  3.0869 -1.0259  1.5021
  422TIP3    H222682   3.578   1.405   0.436 -1.7334  0.5490 -0.1042
  423TIP3   OH222683   6.203   5.003  12.396  0.1528  0.1768 -0.2699
  423TIP3    H122684   6.152   5.033  12.471  0.2835  0.1715 -0.1786
  423TIP3    H222685   6.282   4.965  12.434  0.3566  0.4442 -0.4249
  424TIP3   OH222686   5.780   5.583  11.661 -0.4417 -0.3958 -0.1133
  424TIP3    H122687   5.749   5.517  11.599 -0.6181  0.0854 -0.5457
  424TIP3    H222688   5.701   5.630  11.687 -0.4621 -1.0436  1.0162
  425TIP3   OH222689   5.109   4.374  12.393 -0.5458 -0.2895 -0.0090
  425TIP3    H122690   5.183   4.382  12.453  1.3334  0.1246 -2.3416
  425TIP3    H222691   5.100   4.461  12.353 -0.4789 -1.0915 -1.8099
  426TIP3   OH222692   6.230   4.329  10.667 -0.4628 -0.5272  0.1152
  426TIP3    H122693   6.308   4.333  10.610  0.5495  0.3309  1.5322
  426TIP3    H222694   6.257   4.273  10.740 -0.9602  0.2831  0.9245
  427TIP3   OH222695   3.350   2.824   3.231  0.5329  0.1236 -0.5733
  427TIP3    H122696   3.331   2.883   3.158  1.4589  0.4367 -0.5603
  427TIP3    H222697   3.379   2.743   3.189 -0.7074 -0.3279 -0.5904
  428TIP3   OH222698   6.072   3.851  14.012  0.3790 -0.0910  0.1644
  428TIP3    H122699   6.118   3.772  14.043  2.0660  0.5148 -0.7172
  428TIP3    H222700   5.981   3.836  14.035  0.6423 -2.4124 -0.1468
  429TIP3   OH222701   5.213   1.286   2.798  0.2514  0.0372  0.2408
  429TIP3    H122702   5.129   1.243   2.782  1.5475 -2.3651 -0.2540
  429TIP3    H222703   5.200   1.376   2.767 -2.0260 -0.3837 -0.1079
  430TIP3   OH222704   0.883   0.617   0.336  0.3899  0.1934 -0.1735
  430TIP3    H122705   0.876   0.605   0.242  0.8052  0.4020 -0.2332
  430TIP3    H222706   0.792   0.618   0.367  0.2707 -0.3603 -0.5051
  431TIP3   OH222707   5.164   4.885  11.840  0.9716 -0.0640 -0.0245
  431TIP3    H122708   5.216   4.807  11.823  0.3023 -0.4467 -0.3651
  431TIP3    H222709   5.077   4.851  11.861  1.1311  0.5169  1.6540
  432TIP3   OH222710   3.796   1.324   4.089 -0.6572  0.1725 -0.1106
  432TIP3    H122711   3.759   1.266   4.156 -1.5940  1.5900  0.6240
  432TIP3    H222712   3.780   1.278   4.007 -0.6593 -0.9917  0.5361
  433TIP3   OH222713   3.196   4.197  13.134 -0.0818  0.5843  0.2670
  433TIP3    H122714   3.252   4.166  13.205  0.1532  1.7658  0.6028
  433TIP3    H222715   3.110   4.209  13.174 -0.4733 -0.7633 -0.1395
  434TIP3   OH222716   4.644   5.129  13.133  0.6382 -0.1826 -0.4790
  434TIP3    H122717   4.719   5.144  13.075  0.3840  1.7804 -0.3201
  434TIP3    H222718   4.573   5.180  13.094 -0.5618 -1.7971 -0.4605
  435TIP3   OH222719   0.323   4.311   3.036  0.2961  0.4128  0.2864
  435TIP3    H122720   0.356   4.387   3.084 -0.6422  0.8034  0.3267
  435TIP3    H222721   0.299   4.345   2.950  0.5086  0.0207  0.0690
  436TIP3   OH222722   3.895   0.201  10.809 -0.8373 -0.1165  0.0279
  436TIP3    H122723   3.876   0.220  10.900 -0.1543 -0.6656  0.2891
  436TIP3    H222724   3.813   0.219  10.763 -0.6193  2.1123  0.4493
  437TIP3   OH222725   5.395   4.305  12.535 -0.0028  0.6649  0.6468
  437TIP3    H122726   5.451   4.227  12.541 -0.2221  0.1542 -2.9333
  437TIP3    H222727   5.457   4.378  12.532  0.4414  0.2498 -0.9833
  438TIP3   OH222728   5.756   0.322   4.030 -0.0278  0.1023 -0.2796
  438TIP3    H122729   5.817   0.262   4.072 -1.5432 -1.6326 -0.4993
  438TIP3    H222730   5.669   0.285   4.047 -0.9399  1.7269 -1.2009
  439TIP3   OH222731   6.369   4.451   2.911  0.5637  0.6112  0.0784
  439TIP3    H122732   6.328   4.377   2.956  0.7378  0.8343  0.6070
  439TIP3    H222733   6.338   4.444   2.820  1.5197 -0.7844 -0.1542
  440TIP3   OH222734   6.093   6.608  12.981  0.0793  0.1517 -0.4628
  440TIP3    H122735   6.015   6.579  13.028  0.8557 -0.2259  0.5965
  440TIP3    H222736   6.069   6.694  12.946 -1.1641 -0.4123 -1.0158
  441TIP3   OH222737   4.119   3.040   3.774  0.4212 -0.7897 -0.1095
  441TIP3    H122738   4.071   2.960   3.795  3.1518 -1.9791  1.9218
  441TIP3    H222739   4.202   3.009   3.737  1.9850  1.0216  1.7671
  442TIP3   OH222740   0.798   4.601  15.678 -0.2667 -0.1701  0.3842
  442TIP3    H122741   0.835   4.679  15.637 -1.4343  0.2693  0.1488
  442TIP3    H222742   0.838   4.597  15.765  1.1028 -0.2838 -0.2477
  443TIP3   OH222743   6.403   0.651  16.140 -0.5184 -0.2665  0.1386
  443TIP3    H122744   6.438   0.648  16.051  0.6324 -1.3290  0.6216
  443TIP3    H222745   6.308   0.652  16.128 -0.3708  0.6772 -1.1231
  444TIP3   OH222746   0.442   0.563  12.352 -0.2146  0.0555  0.2084
  444TIP3    H122747   0.509   0.529  12.292 -2.6065  0.2509 -2.6879
  444TIP3    H222748   0.429   0.494  12.416  1.5014 -0.7029 -0.2360
  445TIP3   OH222749   3.175   4.526  15.782 -0.3981 -0.8795 -0.5516
  445TIP3    H122750   3.168   4.621  15.782 -0.1009 -0.8585 -0.5828
  445TIP3    H222751   3.093   4.496  15.742 -0.1842 -0.6136 -1.1936
  446TIP3   OH222752   2.701   0.695   3.293 -0.0035  0.2634  0.0271
  446TIP3    H122753   2.786   0.660   3.270  0.6691  1.7252  0.2682
  446TIP3    H222754   2.712   0.790   3.294 -0.9341  0.4030  2.6205
  447TIP3   OH222755   1.739   1.648  11.108  0.1800  0.7993  1.0589
  447TIP3    H122756   1.821   1.607  11.138  0.2053 -0.0384 -0.1519
  447TIP3    H222757   1.670   1.595  11.147  0.2121 -0.4888 -0.6009
  448TIP3   OH222758   4.953   0.126   0.762 -0.1820  0.3138  0.1179
  448TIP3    H122759   4.997   0.042   0.763  0.1848  0.5055  1.1163
  448TIP3    H222760   4.861   0.106   0.742  0.0386 -0.2491 -0.3086
  449TIP3   OH222761   4.377   5.006  13.234  0.5332  0.3977  0.8048
  449TIP3    H122762   4.463   5.040  13.208 -0.4192  0.7426 -2.1073
  449TIP3    H222763   4.319   5.082  13.228 -0.6466 -0.6039 -0.8190
  450TIP3   OH222764   1.554   6.181   0.512  0.1082  0.2437 -0.6741
  450TIP3    H122765   1.583   6.101   0.469  1.3976 -0.0080  0.6492
  450TIP3    H222766   1.496   6.151   0.582  0.9865  0.4360  0.1386
  451TIP3   OH222767   2.051   5.068   0.111 -0.0340 -0.1881 -0.1034
  451TIP3    H122768   2.138   5.101   0.133  0.5650 -0.8092 -1.5005
  451TIP3    H222769   2.004   5.145   0.078 -1.1950  0.9243  3.9263
  452TIP3   OH222770   2.703   0.981   2.540 -0.1023  0.1073 -0.5583
  452TIP3    H122771   2.611   0.994   2.519 -0.2893 -1.1327 -0.5299
  452TIP3    H222772   2.713   0.886   2.548  1.7972 -0.0082 -3.4842
  453TIP3   OH222773   4.385   3.568   4.345 -0.3350 -0.5605 -0.4600
  453TIP3    H122774   4.471   3.543   4.311  0.6725  1.7619  0.2576
  453TIP3    H222775   4.325   3.503   4.308  1.7201 -2.2908 -0.8969
  454TIP3   OH222776   3.132   2.383  15.240  0.6313  0.1364  0.1115
  454TIP3    H122777   3.040   2.355  15.240  0.5266  0.4695 -0.2500
  454TIP3    H222778   3.149   2.409  15.149  2.0738 -3.1075 -0.6018
  455TIP3   OH222779   5.531   2.235   3.235 -0.1274  0.0939  0.4738
  455TIP3    H122780   5.613   2.283   3.219  0.7944 -2.1481 -1.8678
  455TIP3    H222781   5.465   2.285   3.186  0.4917  0.0385 -0.4376
  456TIP3   OH222782   0.978   5.828   3.120 -0.0159  0.9302  0.5780
  456TIP3    H122783   0.937   5.785   3.196  0.7387 -1.8497 -0.5498
  456TIP3    H222784   1.049   5.770   3.095 -0.1537  1.9014 -2.1896
  457TIP3   OH222785   6.514   2.533   4.014 -0.5014  0.0422  0.2926
  457TIP3    H122786   6.430   2.556   3.973 -0.5387 -0.1216  0.2752
  457TIP3    H222787   6.489   2.485   4.093 -0.4315  0.4075  0.5387
  458TIP3   OH222788   0.743   2.479  13.615 -0.1483  0.5340  0.3016
  458TIP3    H122789   0.814   2.537  13.587 -0.2391  0.2131 -0.6040
  458TIP3    H222790   0.784   2.421  13.679  0.7645 -0.5376 -1.2037
  459TIP3   OH222791   6.775   5.624  15.709 -0.2430  0.4757 -0.1570
  459TIP3    H122792   6.763   5.599  15.801  0.1525 -1.6811 -0.6842
  459TIP3    H222793   6.745   5.548  15.659  1.2699  0.9343 -1.7867
  460TIP3   OH222794   3.515   0.267   3.199 -0.4935 -1.1180  0.1243
  460TIP3    H122795   3.502   0.311   3.115  1.4868  0.1522  0.4539
  460TIP3    H222796   3.433   0.221   3.215 -1.6352  0.2898 -1.5221
  461TIP3   OH222797   3.714   3.564   3.706 -0.4600  0.4273  0.1536
  461TIP3    H122798   3.651   3.633   3.688 -0.6799  0.0932 -0.3690
  461TIP3    H222799   3.796   3.610   3.720 -0.1487  0.6849 -2.2412
  462TIP3   OH222800   1.169   5.117  12.684 -0.1580 -0.4079  0.2201
  462TIP3    H122801   1.105   5.141  12.618 -1.7456 -0.4045  1.7393
  462TIP3    H222802   1.246   5.171  12.663 -0.9714  0.2801 -1.0485
  463TIP3   OH222803   5.954   5.875  12.704 -0.3023  0.2977 -0.2193
  463TIP3    H122804   6.049   5.866  12.706 -0.4729 -1.4795  0.5011
  463TIP3    H222805   5.937   5.958  12.750  0.9593  1.2975 -1.5338
  464TIP3   OH222806   0.822   3.441   2.319  0.2511  0.5551  0.3262
  464TIP3    H122807   0.832   3.390   2.239 -1.0726  0.4973  0.1793
  464TIP3    H222808   0.911   3.456   2.350  0.7727  0.6984 -1.2334
  465TIP3   OH222809   6.643   5.130  16.864  0.2765 -0.2141  0.0444
  465TIP3    H122810   6.716   5.090  16.816  0.7216 -0.0775  0.6122
  465TIP3    H222811   6.684   5.195  16.921 -0.4847  1.4964 -1.2938
  466TIP3   OH222812   4.980   5.070  13.069  0.1567 -0.1793 -0.0767
  466TIP3    H122813   4.925   5.144  13.044 -0.5485 -0.9122 -0.7134
  466TIP3    H222814   5.069   5.107  13.073  0.2075  0.1479 -2.9737
  467TIP3   OH222815   4.440   1.209  14.841  0.7733 -0.1799 -0.0959
  467TIP3    H122816   4.418   1.295  14.805  1.4045  0.4959  1.1311
  467TIP3    H222817   4.375   1.195  14.910  0.8280 -0.5822 -0.1272
  468TIP3   OH222818   5.935   1.528   6.273 -0.1464  0.3440  0.0691
  468TIP3    H122819   6.025   1.510   6.247  0.1208 -1.1402  1.8838
  468TIP3    H222820   5.933   1.622   6.290  0.8672  0.5045 -0.6667
  469TIP3   OH222821   3.017   5.774   3.532 -1.0928  0.3806 -0.1725
  469TIP3    H122822   3.035   5.745   3.442 -2.0419  0.5631 -0.4254
  469TIP3    H222823   3.096   5.822   3.557 -0.0950 -1.1412 -0.2752
  470TIP3   OH222824   2.347   0.720   1.808 -0.2851 -0.2113 -0.4788
  470TIP3    H122825   2.354   0.645   1.867  1.0149  0.6541  0.4871
  470TIP3    H222826   2.430   0.766   1.818 -1.1384  1.4589 -0.9357
  471TIP3   OH222827   3.737   4.676   6.057 -0.6478 -0.7567 -0.4085
  471TIP3    H122828   3.725   4.740   6.127  0.6918  1.8887 -2.5325
  471TIP3    H222829   3.650   4.665   6.019 -0.6323  0.9332 -0.9686
  472TIP3   OH222830   0.246   4.002  12.804 -0.1488 -0.3808  0.2110
  472TIP3    H122831   0.273   3.915  12.775  0.4978 -1.3886  3.5962
  472TIP3    H222832   0.319   4.059  12.778  0.0236 -1.0717 -0.8583
  473TIP3   OH222833   4.947   1.880  15.041  0.0206  0.1727  0.4128
  473TIP3    H122834   4.923   1.787  15.048  0.2889  0.0751  0.0556
  473TIP3    H222835   4.920   1.918  15.125  0.1130 -0.2733  0.6451
  474TIP3   OH222836   6.364   3.732  13.237  0.3294 -0.4006 -0.4020
  474TIP3    H122837   6.410   3.680  13.303  0.5161 -1.9299 -1.6980
  474TIP3    H222838   6.302   3.671  13.197 -0.7589  0.8718 -0.6943
  475TIP3   OH222839   3.908   6.356  17.047  0.1536 -0.1777 -0.1246
  475TIP3    H122840   3.882   6.343  16.956 -0.6950  0.0873  0.0764
  475TIP3    H222841   3.916   6.450  17.057 -1.6613 -0.0793  0.5876
  476TIP3   OH222842   1.400   3.177  12.145 -0.1148  0.1757  0.0557
  476TIP3    H122843   1.465   3.243  12.168  0.3774  0.0398 -0.9433
  476TIP3    H222844   1.358   3.154  12.229  0.6539  0.7424  0.5983
  477TIP3   OH222845   2.290   0.652   4.263  0.4323 -0.1856  0.7796
  477TIP3    H122846   2.332   0.601   4.194  1.4404  0.1992  1.1093
  477TIP3    H222847   2.231   0.711   4.217  0.1913 -0.7764  0.3248
  478TIP3   OH222848   2.998   4.682   2.590  0.4112  0.3711 -0.0740
  478TIP3    H122849   3.060   4.658   2.659 -1.3390 -0.5259  1.2289
  478TIP3    H222850   3.053   4.708   2.516  2.3388 -1.1590  0.7714
  479TIP3   OH222851   3.824   0.567   1.824 -0.0267  0.3079 -0.0524
  479TIP3    H122852   3.850   0.655   1.799  2.3518 -0.7336 -1.4066
  479TIP3    H222853   3.730   0.563   1.805  0.2776  1.8572 -1.9802
  480TIP3   OH222854   3.637   5.225  11.470  0.1197  0.5147  0.0189
  480TIP3    H122855   3.610   5.236  11.378 -0.9221  0.0149  0.2611
  480TIP3    H222856   3.607   5.138  11.494  1.2371  0.2730  0.5563
  481TIP3   OH222857   0.823   6.752  14.137 -0.5866  0.2493 -0.1340
  481TIP3    H122858   0.759   6.818  14.112 -0.7373 -0.5759 -1.9816
  481TIP3    H222859   0.902   6.802  14.159 -0.8867  1.0721 -0.9035
  482TIP3   OH222860   4.293   2.289   4.954  0.6905  0.0838  0.0888
  482TIP3    H122861   4.302   2.194   4.951  0.4033  0.0481  0.3802
  482TIP3    H222862   4.292   2.310   5.047 -0.7062  0.2280  0.0514
  483TIP3   OH222863   4.257   5.875   1.698  0.3169 -0.1615 -0.1126
  483TIP3    H122864   4.187   5.905   1.756  0.4363  1.8172 -0.9451
  483TIP3    H222865   4.321   5.835   1.757  0.8750  2.6399  1.2655
  484TIP3   OH222866   1.344   6.183   4.694  1.1021 -0.4323  0.2531
  484TIP3    H122867   1.291   6.151   4.621 -0.3031 -0.0583  1.0771
  484TIP3    H222868   1.432   6.192   4.658  0.4348 -0.2602 -1.3927
  485TIP3   OH222869   3.641   2.672  15.284 -0.1839  0.1906 -0.3230
  485TIP3    H122870   3.655   2.747  15.342 -0.1965  0.0891 -0.1864
  485TIP3    H222871   3.679   2.699  15.200 -1.3333  0.8471 -0.6490
  486TIP3   OH222872   5.652   1.920   3.833  0.0284  0.1260  0.1695
  486TIP3    H122873   5.569   1.904   3.877 -0.3238  0.7497 -0.2532
  486TIP3    H222874   5.628   1.925   3.740  0.2102  2.3074  0.1977
  487TIP3   OH222875   4.539   2.549   0.181 -0.5545 -0.1122 -0.1118
  487TIP3    H122876   4.588   2.628   0.158 -1.3434  1.2335  2.5726
  487TIP3    H222877   4.581   2.518   0.261 -0.7159 -2.0388 -0.7397
  488TIP3   OH222878   0.764   6.122   1.525  0.0321  0.4454  0.1840
  488TIP3    H122879   0.697   6.111   1.593 -0.6920  1.2388 -0.3850
  488TIP3    H222880   0.737   6.062   1.456 -0.6510  1.4636 -0.4535
  489TIP3   OH222881   6.386   2.352  10.477 -0.1490 -0.0748  0.0950
  489TIP3    H122882   6.308   2.349  10.533  0.9219  1.0208  1.6943
  489TIP3    H222883   6.391   2.444  10.449  0.3681 -0.2227 -0.2989
  490TIP3   OH222884   4.760   4.665   4.406 -0.0447 -0.2598 -0.3442
  490TIP3    H122885   4.818   4.657   4.482 -1.3075  1.8453  0.8942
  490TIP3    H222886   4.807   4.723   4.346 -0.7890  1.3931  0.6303
  491TIP3   OH222887   3.752   3.504   1.204  0.4383  0.0387 -0.0141
  491TIP3    H122888   3.796   3.542   1.280 -0.6991  0.3077  0.5186
  491TIP3    H222889   3.675   3.559   1.190 -0.2606 -0.9951 -0.3393
  492TIP3   OH222890   5.760   0.704  10.423 -0.3385  0.2559 -0.1023
  492TIP3    H122891   5.743   0.790  10.461  0.0777  1.1287 -1.8428
  492TIP3    H222892   5.684   0.686  10.368 -1.5122 -1.5486  2.0509
  493TIP3   OH222893   1.600   5.793   2.447 -0.2935 -0.6465  0.8552
  493TIP3    H122894   1.670   5.740   2.412 -0.5314  0.1669 -0.9080
  493TIP3    H222895   1.566   5.841   2.372  0.0402  2.1405  2.3921
  494TIP3   OH222896   5.859   6.178   0.825 -0.2049 -0.3441  0.1546
  494TIP3    H122897   5.788   6.235   0.794 -0.8386 -0.9032  0.5799
  494TIP3    H222898   5.932   6.197   0.766 -0.5807  0.5188 -0.0457
  495TIP3   OH222899   2.874   0.744  14.725  0.0621 -0.6085  0.2976
  495TIP3    H122900   2.883   0.773  14.635  0.5685 -0.9159  0.2455
  495TIP3    H222901   2.920   0.810  14.777 -1.4032  0.3070  0.4683
  496TIP3   OH222902   2.758   3.546   1.020  0.0495  0.0467 -0.5854
  496TIP3    H122903   2.738   3.457   1.050  1.4767 -0.2942 -0.5819
  496TIP3    H222904   2.745   3.601   1.096 -0.1035 -0.2726 -0.3798
  497TIP3   OH222905   6.100   2.124  13.168 -0.2190  0.0517 -0.5133
  497TIP3    H122906   6.044   2.196  13.139 -1.7027 -1.6950 -2.1918
  497TIP3    H222907   6.112   2.138  13.262 -0.3416  2.5359 -0.8291
  498TIP3   OH222908   1.623   0.736   0.220 -0.0676  0.3717 -0.4750
  498TIP3    H122909   1.566   0.807   0.250 -0.0695  0.6601 -1.1540
  498TIP3    H222910   1.573   0.693   0.151 -0.2054 -0.5064  0.1729
  499TIP3   OH222911   0.050   2.242   5.288 -0.3394 -0.2646 -0.9896
  499TIP3    H122912   0.072   2.306   5.221 -0.2498  2.5314  1.6098
  499TIP3    H222913  -0.045   2.233   5.282 -0.3414  0.0323 -1.4146
  500TIP3   OH222914   2.781   3.485  16.533 -0.1762 -0.3151 -0.0420
  500TIP3    H122915   2.824   3.526  16.457  1.5558  0.3382  1.2522
  500TIP3    H222916   2.699   3.533  16.543 -0.2079 -0.1021 -1.2143
  501TIP3   OH222917   0.367   5.591   3.112  0.1733 -0.0755 -0.5017
  501TIP3    H122918   0.395   5.673   3.071  1.3753 -0.6261 -0.7812
  501TIP3    H222919   0.419   5.585   3.192 -0.4353 -0.2081 -0.1121
  502TIP3   OH222920   6.037   5.707  12.078 -0.2387  0.3057  0.3281
  502TIP3    H122921   6.087   5.730  12.000  2.8991 -1.7126  1.6287
  502TIP3    H222922   6.056   5.778  12.140 -2.6759  1.8723 -0.6270
  503TIP3   OH222923   5.958   2.493   0.812 -0.3328 -0.0491  0.1139
  503TIP3    H122924   6.016   2.521   0.883 -0.7287 -0.7854  0.7443
  503TIP3    H222925   6.008   2.509   0.732 -0.0071  1.0904  0.5415
  504TIP3   OH222926   1.784   4.704  15.408  0.9005  0.0153 -0.5143
  504TIP3    H122927   1.740   4.620  15.423 -0.1998  0.4476 -1.2179
  504TIP3    H222928   1.768   4.753  15.489  2.4838 -0.8332  0.3368
  505TIP3   OH222929   4.929   0.494   4.089 -0.0480 -0.1403  0.1507
  505TIP3    H122930   4.906   0.562   4.151  0.1346  0.9191 -0.9341
  505TIP3    H222931   5.024   0.484   4.098  0.0329  0.2919 -0.2510
  506TIP3   OH222932   6.436   6.427   6.326  0.4171  0.3767 -0.2074
  506TIP3    H122933   6.340   6.431   6.327  0.3152 -1.5746  1.3053
  506TIP3    H222934   6.463   6.490   6.393  0.2067  0.9324 -0.6395
  507TIP3   OH222935   6.688   0.945   0.618  0.0350  0.0716  0.1329
  507TIP3    H122936   6.668   1.036   0.638 -0.5412  0.2122 -0.9986
  507TIP3    H222937   6.682   0.899   0.702 -0.9927  0.8493  0.4989
  508TIP3   OH222938   5.235   1.393  15.335  0.0080 -0.3360  0.2978
  508TIP3    H122939   5.184   1.471  15.356 -0.0405 -0.3266  0.1425
  508TIP3    H222940   5.170   1.326  15.314  0.0889  0.2507 -1.9861
  509TIP3   OH222941   4.321   1.500   2.700 -0.0730  0.3933 -0.1473
  509TIP3    H122942   4.271   1.548   2.766  0.4459  1.7499 -0.7393
  509TIP3    H222943   4.254   1.457   2.646 -0.5506  0.9659 -0.0115
  510TIP3   OH222944   3.006   4.289  14.452  0.3137 -0.1874  0.5285
  510TIP3    H122945   2.915   4.277  14.479  0.6411  0.2621  1.8810
  510TIP3    H222946   3.050   4.208  14.479  0.4746 -0.0799  0.5882
  511TIP3   OH222947   1.205   0.130   3.713 -0.0828  0.7015  0.3388
  511TIP3    H122948   1.167   0.113   3.799 -0.2730  2.7335  0.6690
  511TIP3    H222949   1.131   0.121   3.652 -0.5599  2.1033  0.7023
  512TIP3   OH222950   4.894   4.957   3.200 -0.6245 -0.2461 -0.3458
  512TIP3    H122951   4.889   4.863   3.183 -2.1709 -0.2545  0.0444
  512TIP3    H222952   4.830   4.972   3.270  1.5740  0.6639  1.5313
  513TIP3   OH222953   0.912   1.866  14.740  0.2768 -0.3643  0.1401
  513TIP3    H122954   0.960   1.909  14.669 -0.5028 -0.7820 -0.6563
  513TIP3    H222955   0.980   1.836  14.801  0.7877  2.7696  1.1783
  514TIP3   OH222956   1.501   1.238  15.226  0.3533  0.9145 -0.2722
  514TIP3    H122957   1.474   1.325  15.255 -0.2696  0.3750  0.8213
  514TIP3    H222958   1.436   1.214  15.159  0.9943  1.6023 -1.1591
  515TIP3   OH222959   5.568   0.507  12.270 -0.5992  0.1049 -0.1284
  515TIP3    H122960   5.662   0.489  12.272 -0.6550 -0.2276 -0.3515
  515TIP3    H222961   5.527   0.422  12.286 -0.8674  0.1259 -0.6696
  516TIP3   OH222962   5.802   1.012  15.235 -0.7008 -0.6847  0.1826
  516TIP3    H122963   5.880   0.980  15.281  0.4912  2.1702  0.2324
  516TIP3    H222964   5.731   1.002  15.298  0.1562 -0.7313  1.1508
  517TIP3   OH222965   3.961   0.328  12.541 -0.3357  0.3041 -0.0512
  517TIP3    H122966   3.928   0.331  12.631  1.3253  0.7691  0.5548
  517TIP3    H222967   3.999   0.415  12.527 -1.0324  0.4016 -1.3826
  518TIP3   OH222968   0.365   0.234  12.894 -0.7656  0.1283 -0.3697
  518TIP3    H122969   0.459   0.242  12.876 -0.6501  0.9160  0.5226
  518TIP3    H222970   0.327   0.314  12.857 -0.9036  0.4205  0.3917
  519TIP3   OH222971   1.737   1.074  14.910 -0.2594 -0.8878  0.2891
  519TIP3    H122972   1.767   1.047  14.997 -0.6506  0.6601  0.9245
  519TIP3    H222973   1.755   1.168  14.907  1.4563 -1.2694 -2.0224
  520TIP3   OH222974   0.883   1.952   6.701 -0.2267  0.3101 -0.4210
  520TIP3    H122975   0.915   1.863   6.714  0.1202  0.4165 -0.5479
  520TIP3    H222976   0.801   1.955   6.751 -0.0434  0.0380 -0.0991
  521TIP3   OH222977   4.274   6.214  13.391  0.3007 -0.2440  0.0404
  521TIP3    H122978   4.348   6.253  13.437 -1.2955  0.4263  2.1294
  521TIP3    H222979   4.258   6.271  13.317 -0.8849  2.1080  2.0583
  522TIP3   OH222980   5.329   0.379  12.752  0.2731  0.0675 -0.4674
  522TIP3    H122981   5.236   0.401  12.749  0.3208  0.2980 -0.1626
  522TIP3    H222982   5.363   0.409  12.668 -0.6001 -2.9636 -2.0175
  523TIP3   OH222983   4.354   5.001  11.450  0.4038 -0.1188  0.0863
  523TIP3    H122984   4.344   5.026  11.358 -0.2892  0.7202  0.3782
  523TIP3    H222985   4.289   4.932  11.462  0.5170 -0.2511 -0.0727
  524TIP3   OH222986   0.493   6.416  15.414 -0.1576 -0.3265 -0.0170
  524TIP3    H122987   0.405   6.425  15.377  0.1460  2.5916 -0.1728
  524TIP3    H222988   0.537   6.352  15.358 -1.4508 -0.0700 -1.3476
  525TIP3   OH222989   0.877   5.208  13.579  0.2916 -1.0312  0.4852
  525TIP3    H122990   0.813   5.154  13.532 -0.0883  0.1038 -0.3169
  525TIP3    H222991   0.858   5.191  13.672 -1.9774  0.1792  0.2956
  526TIP3   OH222992   2.167   3.686  12.040 -0.0580 -0.2736  0.5895
  526TIP3    H122993   2.113   3.715  11.966 -2.6503  0.2974  2.6474
  526TIP3    H222994   2.128   3.602  12.065  1.6601 -1.1123  0.4751
  527TIP3   OH222995   5.050   5.061   0.441 -0.4966 -0.3652  0.2008
  527TIP3    H122996   4.995   5.138   0.448 -0.0771  0.0445 -0.9496
  527TIP3    H222997   4.989   4.987   0.441 -1.0001  0.0533 -0.4987
  528TIP3   OH222998   0.725   1.452  16.083 -0.2515  0.1219  0.1605
  528TIP3    H122999   0.820   1.456  16.092 -0.2255 -1.9157  0.9870
  528TIP3    H223000   0.710   1.443  15.988  0.3769  0.3073  0.0429
  529TIP3   OH223001   1.781   5.141  15.776  0.5980 -0.0595 -0.1512
  529TIP3    H123002   1.796   5.072  15.840 -0.8674 -1.9626 -1.8387
  529TIP3    H223003   1.864   5.189  15.773  1.2766 -1.0813  1.7970
  530TIP3   OH223004   6.517   4.350  17.010 -0.3611  0.5540  0.0597
  530TIP3    H123005   6.579   4.284  16.978 -0.1802  1.4346 -1.4844
  530TIP3    H223006   6.572   4.421  17.043 -0.5547  0.4464  0.6211
  531TIP3   OH223007   2.682   2.820   1.610 -0.0825 -0.3128  0.1390
  531TIP3    H123008   2.683   2.903   1.562  1.0105 -0.8839 -0.8382
  531TIP3    H223009   2.764   2.777   1.586 -0.3027 -1.3594  1.2067
  532TIP3   OH223010   4.307   3.447   2.957 -0.1251 -0.6335  0.3357
  532TIP3    H123011   4.371   3.422   2.890  0.7529  3.1648 -0.3479
  532TIP3    H223012   4.223   3.449   2.910  0.1445 -0.1497 -0.1295
  533TIP3   OH223013   0.468   1.192   0.575  0.8415 -0.4529 -0.3272
  533TIP3    H123014   0.408   1.264   0.594  0.4488 -0.8948  0.1387
  533TIP3    H223015   0.516   1.220   0.497 -1.1293 -0.7962 -1.7086
  534TIP3   OH223016   5.290   3.139   2.608  0.1691 -0.3267  0.0744
  534TIP3    H123017   5.348   3.215   2.621 -0.2809 -0.3358  2.4025
  534TIP3    H223018   5.214   3.175   2.563 -0.6759  0.9448  2.4153
  535TIP3   OH223019   2.029   1.539  17.019  0.0279  0.1798 -0.1474
  535TIP3    H123020   2.055   1.466  16.963 -0.6721  0.1116 -0.3895
  535TIP3    H223021   2.051   1.617  16.967 -0.7909  0.1144 -0.6081
  536TIP3   OH223022   6.374   0.493  15.927  0.1141 -0.6373 -0.2938
  536TIP3    H123023   6.459   0.505  15.885  0.9605 -0.2868  1.4890
  536TIP3    H223024   6.313   0.545  15.873  0.7285 -2.0909 -2.4537
  537TIP3   OH223025   4.676   0.866   3.740  1.0611  0.0701  0.2034
  537TIP3    H123026   4.664   0.812   3.819  0.3558  0.2946  0.2492
  537TIP3    H223027   4.616   0.829   3.676  3.7115 -1.9792 -1.2110
  538TIP3   OH223028   0.284   4.432   4.630  0.2591  0.5481 -0.7137
  538TIP3    H123029   0.190   4.444   4.644  0.4771  2.4871 -0.7109
  538TIP3    H223030   0.322   4.431   4.718  0.1759 -0.9109 -0.6890
  539TIP3   OH223031   3.384   5.979   6.422 -0.9548 -0.2198  0.2227
  539TIP3    H123032   3.299   6.021   6.439 -1.1587 -0.4646 -0.1722
  539TIP3    H223033   3.377   5.894   6.465 -0.6842  0.0006  0.7007
  540TIP3   OH223034   0.551   3.669   3.266  0.6144 -0.3334 -0.2421
  540TIP3    H123035   0.584   3.728   3.333  1.6520 -0.5286 -0.5729
  540TIP3    H223036   0.629   3.630   3.227  0.1932  1.8001 -3.4291
  541TIP3   OH223037   4.724   3.894  15.827  0.0340 -0.2701  0.2207
  541TIP3    H123038   4.787   3.966  15.829 -0.0997 -0.1697  1.0994
  541TIP3    H223039   4.674   3.908  15.746  0.4879  0.2064  0.0219
  542TIP3   OH223040   5.569   0.730   3.067 -0.6329  0.3412 -0.0084
  542TIP3    H123041   5.550   0.798   3.132 -0.4750 -0.6616  1.0899
  542TIP3    H223042   5.623   0.775   3.001  1.7481  0.6508  2.0815
  543TIP3   OH223043   3.902   6.744   5.613 -0.3170 -0.6778  0.1142
  543TIP3    H123044   3.851   6.799   5.672  0.5854 -0.6054  0.8341
  543TIP3    H223045   3.993   6.769   5.629  0.0256 -1.6162 -0.3288
  544TIP3   OH223046   2.422   2.513  11.378 -0.6715 -0.0140  0.3037
  544TIP3    H123047   2.378   2.557  11.450  0.7272  1.2578  0.4127
  544TIP3    H223048   2.352   2.471  11.328 -1.9628  1.8239  0.5486
  545TIP3   OH223049   2.668   0.713  11.533  0.2110 -0.5319  0.1571
  545TIP3    H123050   2.738   0.775  11.549  0.6505 -0.5366 -1.7254
  545TIP3    H223051   2.588   0.762  11.553  0.4815  1.0120 -2.3563
  546TIP3   OH223052   0.321   3.632   3.447  0.3679 -0.2138 -0.0761
  546TIP3    H123053   0.394   3.669   3.397  0.0250 -0.0616 -0.4633
  546TIP3    H223054   0.363   3.586   3.519  0.9000 -0.9383 -0.8320
  547TIP3   OH223055   3.843   5.126  12.711  0.3746 -0.1520 -0.0870
  547TIP3    H123056   3.839   5.222  12.710 -0.5013 -0.1648  0.9219
  547TIP3    H223057   3.912   5.105  12.774  0.9371 -0.1927 -0.7024
  548TIP3   OH223058   0.634   5.041  16.700  0.1443  0.1909  0.5761
  548TIP3    H123059   0.592   4.970  16.651 -1.0634  0.4777  1.1978
  548TIP3    H223060   0.637   5.010  16.790  1.6403  0.0087  0.4921
  549TIP3   OH223061   0.954   6.021   1.714  0.5626  0.2033 -0.1230
  549TIP3    H123062   0.911   6.058   1.637  0.4068 -1.9739 -1.1043
  549TIP3    H223063   0.941   5.927   1.706  0.1401 -0.0347  2.8247
  550TIP3   OH223064   0.848   2.314  16.503  0.0155 -0.5506  0.2475
  550TIP3    H123065   0.902   2.300  16.424 -1.9357 -1.0679 -1.0270
  550TIP3    H223066   0.761   2.333  16.469 -0.7851 -0.4397  2.3096
  551TIP3   OH223067   1.164   5.583   3.179 -0.4929  0.2349 -0.0059
  551TIP3    H123068   1.179   5.639   3.255  1.4065 -0.4136  0.1095
  551TIP3    H223069   1.127   5.503   3.216  0.2579 -0.0092  0.2278
  552TIP3   OH223070   6.001   6.438   2.360  0.3696  0.1030 -0.4921
  552TIP3    H123071   5.967   6.365   2.413 -0.2086 -1.0419 -2.3712
  552TIP3    H223072   6.006   6.511   2.421 -2.2577 -0.6113  0.6849
  553TIP3   OH223073   4.899   4.208  12.382  0.2893  0.0276 -0.3194
  553TIP3    H123074   4.982   4.255  12.376  0.9697 -1.0248  0.6605
  553TIP3    H223075   4.877   4.187  12.291  1.2839  0.0121 -0.5696
  554TIP3   OH223076   3.965   4.135   1.261 -0.0410 -0.2273  0.0596
  554TIP3    H123077   3.931   4.069   1.321  1.3064 -0.9806  0.0214
  554TIP3    H223078   3.939   4.219   1.300  0.1616 -0.7321  1.2805
  555TIP3   OH223079   0.077   2.692  14.755  0.6677  0.2982  0.1276
  555TIP3    H123080   0.114   2.604  14.754 -0.1574 -0.0483  0.0673
  555TIP3    H223081  -0.017   2.679  14.771  0.7230  1.2185  1.2519
  556TIP3   OH223082   3.240   6.099   2.341 -0.0079  0.0356  0.1172
  556TIP3    H123083   3.259   6.009   2.316  1.5004 -0.0362  1.4491
  556TIP3    H223084   3.210   6.093   2.432 -0.3304  0.8292  0.0652
  557TIP3   OH223085   0.492   1.731  10.568  0.5336  0.1438 -0.4807
  557TIP3    H123086   0.492   1.713  10.662 -1.6776 -2.7117 -0.9660
  557TIP3    H223087   0.407   1.698  10.537  1.6458  0.1096 -3.6513
  558TIP3   OH223088   3.224   0.090   2.194 -0.3840 -0.1832 -0.2787
  558TIP3    H123089   3.132   0.097   2.171 -0.1705 -0.6938 -1.3076
  558TIP3    H223090   3.266   0.054   2.116  0.5319 -0.8657  0.5171
  559TIP3   OH223091   1.505   1.309   0.192  0.7886  0.5058  0.3388
  559TIP3    H123092   1.489   1.290   0.099  1.6268 -0.6424  0.4271
  559TIP3    H223093   1.466   1.396   0.205 -2.9749 -1.0272 -0.0856
  560TIP3   OH223094   4.151   0.194   3.299 -0.1295 -0.5595  0.3676
  560TIP3    H123095   4.204   0.136   3.245 -0.6275  0.5610 -1.3419
  560TIP3    H223096   4.215   0.248   3.347  0.3247  1.5046 -2.4543
  561TIP3   OH223097   4.889   4.883  14.921 -0.2595  0.3806 -0.4633
  561TIP3    H123098   4.960   4.832  14.881 -0.2822  0.5937 -0.7717
  561TIP3    H223099   4.846   4.821  14.980 -0.0411  0.1500 -0.5434
  562TIP3   OH223100   6.189   4.769  13.148  0.3373  0.6901  0.2246
  562TIP3    H123101   6.237   4.785  13.229  1.7430 -0.3537 -0.3875
  562TIP3    H223102   6.103   4.807  13.164  0.5873  0.4902  2.2102
  563TIP3   OH223103   4.117   0.354  11.018 -0.4016 -0.8024  0.1338
  563TIP3    H123104   4.134   0.260  11.017  0.7931 -0.5906  0.5327
  563TIP3    H223105   4.022   0.360  11.027 -1.0326 -1.9986 -4.3740
  564TIP3   OH223106   4.565   3.426   0.113  0.1383 -0.0559  0.3338
  564TIP3    H123107   4.563   3.372   0.034  0.0012 -0.0906  0.3620
  564TIP3    H223108   4.635   3.490   0.096  1.1130 -0.9868  0.7946
  565TIP3   OH223109   2.972   1.564  17.069  0.1587 -0.4275  0.3005
  565TIP3    H123110   2.912   1.492  17.089  0.0527 -0.4485 -0.0919
  565TIP3    H223111   2.957   1.628  17.139 -0.2682 -0.4641  0.2455
  566TIP3   OH223112   0.215   4.738  15.112 -0.2275 -0.3965 -0.1746
  566TIP3    H123113   0.178   4.650  15.110 -0.1163 -0.4147 -1.9553
  566TIP3    H223114   0.309   4.725  15.117 -0.2666 -0.3650  0.7263
  567TIP3   OH223115   3.705   4.722  16.605  0.3141 -0.1763 -0.3977
  567TIP3    H123116   3.615   4.752  16.612  0.7535  0.9631  0.5324
  567TIP3    H223117   3.717   4.660  16.677  0.1504 -0.6845 -0.8014
  568TIP3   OH223118   6.339   5.747  16.117 -0.8589  0.0554 -0.3145
  568TIP3    H123119   6.311   5.838  16.113 -1.9879 -0.2267  0.7296
  568TIP3    H223120   6.376   5.737  16.205 -1.0254 -0.5678 -0.3107
  569TIP3   OH223121   6.675   4.525  15.663  1.0163  0.5363 -0.3988
  569TIP3    H123122   6.709   4.542  15.574 -0.7158  0.8114 -1.0258
  569TIP3    H223123   6.751   4.496  15.712  1.6670 -1.3366 -2.4334
  570TIP3   OH223124   1.074   6.780  14.462  0.2233  0.0291 -0.5431
  570TIP3    H123125   0.981   6.765  14.481  0.3693  0.1565  0.2936
  570TIP3    H223126   1.088   6.739  14.377 -0.6241  0.0938 -0.7168
  571TIP3   OH223127   2.446   2.237   2.535 -0.5127  0.5434  0.0512
  571TIP3    H123128   2.414   2.312   2.485 -1.8290  0.1819  0.3135
  571TIP3    H223129   2.402   2.245   2.620 -0.7152 -0.5516  0.0578
  572TIP3   OH223130   4.426   5.842  11.558  0.0658 -0.4000 -0.1074
  572TIP3    H123131   4.400   5.793  11.636 -0.8685 -1.2501 -0.9542
  572TIP3    H223132   4.351   5.836  11.499  0.5643  0.6880 -0.8684
  573TIP3   OH223133   1.880   4.547   2.355  0.5396 -0.2790 -0.1141
  573TIP3    H123134   1.790   4.549   2.321  1.1934  0.4112 -1.8060
  573TIP3    H223135   1.880   4.471   2.414 -1.3914  0.2290  0.5898
  574TIP3   OH223136   4.529   4.763   4.089  0.1864  0.4801 -0.2960
  574TIP3    H123137   4.558   4.709   4.015 -0.6722 -0.5827  0.1323
  574TIP3    H223138   4.544   4.853   4.060  1.3626  0.0216 -1.1313
  575TIP3   OH223139   2.807   3.171   2.116  0.1743 -0.1143 -0.6491
  575TIP3    H123140   2.767   3.084   2.118  0.1706 -0.1034  0.0046
  575TIP3    H223141   2.895   3.157   2.080  0.0250 -0.3239 -0.9318
  576TIP3   OH223142   6.668   3.659  12.687 -0.0352  0.4060  0.1453
  576TIP3    H123143   6.577   3.665  12.717  0.4426  0.9959  1.5192
  576TIP3    H223144   6.705   3.745  12.707  0.7179  0.3077 -0.8005
  577TIP3   OH223145   2.253   2.379   1.589 -0.5743  0.0024  0.3374
  577TIP3    H123146   2.226   2.365   1.498 -0.1161  0.7036  0.0889
  577TIP3    H223147   2.205   2.456   1.618  1.9899  1.9923 -0.4944
  578TIP3   OH223148   3.919   0.509  17.109 -0.3154  0.2053 -0.1944
  578TIP3    H123149   3.958   0.594  17.126  0.9031 -0.4190  0.2279
  578TIP3    H223150   3.839   0.507  17.161 -0.1798  0.9631  0.0347
  579TIP3   OH223151   1.690   4.471  15.850  0.1598  0.2076  0.2116
  579TIP3    H123152   1.656   4.531  15.784 -2.1828  0.4581  1.5674
  579TIP3    H223153   1.735   4.403  15.800 -0.2738  1.1710 -1.5323
  580TIP3   OH223154   0.690   0.939  13.863 -0.0623  0.1411 -0.5737
  580TIP3    H123155   0.604   0.979  13.853  0.1661  0.3971 -1.6230
  580TIP3    H223156   0.721   0.967  13.949 -0.6413  0.8019 -0.5831
  581TIP3   OH223157   5.186   5.793   6.069 -0.3673  0.0351  0.0612
  581TIP3    H123158   5.208   5.805   5.976 -1.2637  1.4109  0.0133
  581TIP3    H223159   5.151   5.878   6.096 -0.2722 -0.4126  1.6221
  582TIP3   OH223160   2.362   5.789  12.655  0.7740 -0.2133  0.1505
  582TIP3    H123161   2.305   5.760  12.584  1.3633 -3.1578  0.7893
  582TIP3    H223162   2.445   5.744  12.639  2.1061  1.9946  0.6745
  583TIP3   OH223163   1.931   1.791  12.479 -0.3103  0.1140  0.4445
  583TIP3    H123164   1.880   1.739  12.541 -1.6544  0.8032 -0.0813
  583TIP3    H223165   2.000   1.830  12.533 -0.7056 -0.3137  1.2732
  584TIP3   OH223166   5.133   5.795  14.333  0.1153 -0.4734 -0.0645
  584TIP3    H123167   5.113   5.723  14.393  0.4300  0.2833  0.9584
  584TIP3    H223168   5.054   5.805  14.281  0.1933 -1.7983 -0.4742
  585TIP3   OH223169   0.334   5.961  12.802 -0.0763 -0.8757  0.2033
  585TIP3    H123170   0.377   5.949  12.717 -1.5982 -0.0536 -0.7266
  585TIP3    H223171   0.318   5.872  12.833  0.0617 -1.1927 -0.6150
  586TIP3   OH223172   1.629   2.176  12.097  0.6728  0.1268  0.4074
  586TIP3    H123173   1.619   2.083  12.120  2.4045  0.0890  1.0968
  586TIP3    H223174   1.548   2.217  12.126 -0.0737 -1.1557  0.1760
  587TIP3   OH223175   3.345   6.103   6.696  0.4103 -0.3441  0.5529
  587TIP3    H123176   3.424   6.114   6.643  1.1991  0.9344  1.9760
  587TIP3    H223177   3.277   6.078   6.633  1.8435 -1.0527 -0.7316
  588TIP3   OH223178   4.771   0.556  10.371  0.0987  0.3062  0.1192
  588TIP3    H123179   4.684   0.592  10.387  1.4368  3.0840  1.4682
  588TIP3    H223180   4.797   0.594  10.287  1.2299  2.0258  1.2111
  589TIP3   OH223181   4.600   1.178  14.626  0.3179 -0.3553 -0.0518
  589TIP3    H123182   4.555   1.179  14.542  0.5811 -0.6015 -0.1953
  589TIP3    H223183   4.535   1.209  14.689  0.6990  1.7238 -0.6343
  590TIP3   OH223184   6.077   1.713   3.532 -0.5211 -0.6817 -0.1070
  590TIP3    H123185   6.008   1.732   3.468  0.2976  0.2777 -0.7161
  590TIP3    H223186   6.117   1.632   3.501 -1.3023 -1.1957  0.1999
  591TIP3   OH223187   4.022   3.467   3.603  0.5546 -0.6316  0.2197
  591TIP3    H123188   4.002   3.408   3.676  0.2861 -0.4394  0.3009
  591TIP3    H223189   3.999   3.554   3.634  0.2567 -0.5698 -0.1580
  592TIP3   OH223190   3.274   5.243  15.982 -0.0446  0.2172  0.1438
  592TIP3    H123191   3.204   5.299  15.949 -0.3028 -0.4703 -0.4842
  592TIP3    H223192   3.339   5.242  15.911  0.2120  0.1689  0.3777
  593TIP3   OH223193   5.564   0.213  12.463 -0.0483 -0.0990 -0.7253
  593TIP3    H123194   5.485   0.259  12.435  0.9637  1.8258 -0.4853
  593TIP3    H223195   5.533   0.146  12.524 -1.7120 -0.8441 -2.3292
  594TIP3   OH223196   4.761   3.771   2.855  0.2834 -0.2036  0.6317
  594TIP3    H123197   4.746   3.785   2.948 -0.4333  1.5671  0.2610
  594TIP3    H223198   4.737   3.680   2.840  0.3153 -0.4724  2.1590
  595TIP3   OH223199   0.695   1.770  11.180  0.4946 -0.4453  0.3265
  595TIP3    H123200   0.616   1.823  11.191 -0.4190 -1.3149 -1.6586
  595TIP3    H223201   0.744   1.783  11.261 -0.0802  2.7345  0.2414
  596TIP3   OH223202   2.298   1.256  12.939 -0.7087  0.2261 -0.0812
  596TIP3    H123203   2.230   1.321  12.921  2.2891  3.0009 -1.7890
  596TIP3    H223204   2.338   1.285  13.021 -1.8030 -1.6420  1.1509
  597TIP3   OH223205   5.601   6.049  12.292 -0.1849 -0.0817 -0.0104
  597TIP3    H123206   5.655   6.068  12.215  0.4068 -0.4171  0.3239
  597TIP3    H223207   5.594   6.133  12.337  1.1145 -0.2989  0.6209
  598TIP3   OH223208   6.395   2.922   6.561 -0.5718  0.4580 -0.3873
  598TIP3    H123209   6.354   2.952   6.642 -0.6255 -1.9997  0.5330
  598TIP3    H223210   6.324   2.920   6.497 -0.3906  3.0989 -0.7523
  599TIP3   OH223211   1.580   4.639  12.719 -0.2534  0.0612 -0.0239
  599TIP3    H123212   1.533   4.566  12.679  0.9564 -1.2293  0.8589
  599TIP3    H223213   1.520   4.673  12.785 -1.6376  1.2025 -1.7969
  600TIP3   OH223214   5.711   0.341  17.234 -0.3829 -0.6210  0.8616
  600TIP3    H123215   5.632   0.392  17.255 -0.9189 -0.3721 -1.6144
  600TIP3    H223216   5.691   0.300  17.150  1.9433 -1.0023  0.4755
  601TIP3   OH223217   2.650   2.870  15.737 -0.1458  0.1658 -0.1131
  601TIP3    H123218   2.608   2.861  15.822  0.3002  1.2395  0.2313
  601TIP3    H223219   2.683   2.783  15.717 -0.0186 -0.0314  0.9456
  602TIP3   OH223220   1.932   6.699   2.470 -0.2386 -0.2409 -0.1685
  602TIP3    H123221   1.873   6.750   2.415  0.4742  0.3177 -0.4205
  602TIP3    H223222   1.874   6.653   2.530 -0.9677 -0.1899 -0.8274
  603TIP3   OH223223   0.429   5.966  14.890 -0.2471  0.1746  0.2540
  603TIP3    H123224   0.495   6.027  14.855  0.8113 -0.6106  0.8466
  603TIP3    H223225   0.354   6.022  14.911  1.0088  1.4258  1.5714
  604TIP3   OH223226   1.044   1.370   5.485 -0.0395  0.3326  0.5131
  604TIP3    H123227   0.999   1.297   5.443 -0.5198 -0.0843  1.7348
  604TIP3    H223228   1.061   1.340   5.574  1.6189  0.9386  0.4219
  605TIP3   OH223229   0.877   2.142   1.042  0.6600  0.6662 -0.4472
  605TIP3    H123230   0.830   2.150   0.959 -2.1934 -0.9775  0.9593
  605TIP3    H223231   0.904   2.051   1.046  2.3636  1.1572 -0.3485
  606TIP3   OH223232   5.519   1.740  13.708 -0.0625  0.5851  0.1998
  606TIP3    H123233   5.579   1.689  13.653  0.3192  0.5067  0.6881
  606TIP3    H223234   5.438   1.689  13.707 -0.0088  0.5017 -0.1583
  607TIP3   OH223235   0.989   3.043   3.034  0.0670  0.2497  0.1509
  607TIP3    H123236   0.904   3.000   3.031 -0.2186  0.8042  0.3264
  607TIP3    H223237   0.998   3.087   2.950 -1.0199  2.4773  1.1579
  608TIP3   OH223238   4.962   1.250  16.246 -0.1966 -0.6882 -0.3239
  608TIP3    H123239   4.925   1.173  16.203 -2.5918 -0.0143  0.4333
  608TIP3    H223240   4.927   1.247  16.335  1.9522 -0.2270  0.5779
  609TIP3   OH223241   4.103   6.355   5.242 -0.0046 -0.9558  0.1753
  609TIP3    H123242   4.130   6.444   5.266  0.3785 -0.9545 -0.2437
  609TIP3    H223243   4.033   6.333   5.303 -0.2323 -0.2885  0.1553
  610TIP3   OH223244   5.739   5.286   5.679  0.5426  0.5912 -0.4611
  610TIP3    H123245   5.723   5.317   5.768  1.0201  2.0474 -0.8605
  610TIP3    H223246   5.732   5.365   5.625 -0.6561 -0.4096 -1.8336
  611TIP3   OH223247   3.487   1.093   2.528 -0.1960 -0.2222  0.2762
  611TIP3    H123248   3.473   1.093   2.433  1.7869 -2.6551 -0.0710
  611TIP3    H223249   3.577   1.125   2.539 -1.1555  2.1811  1.5249
  612TIP3   OH223250   3.289   3.387   4.174  0.3568 -0.3999 -0.5088
  612TIP3    H123251   3.286   3.475   4.138  0.7446 -0.1228  0.1373
  612TIP3    H223252   3.331   3.334   4.106 -0.2459 -0.1751 -1.0655
  613TIP3   OH223253   4.539   5.026   1.368 -0.5645 -0.3308  0.5419
  613TIP3    H123254   4.461   4.992   1.412 -0.8704 -1.2464 -0.6553
  613TIP3    H223255   4.610   5.010   1.430 -1.0633 -1.1184  0.9241
  614TIP3   OH223256   3.717   6.251  11.767  0.3476 -0.3703 -0.3728
  614TIP3    H123257   3.722   6.229  11.674 -0.7705 -0.8159 -0.3369
  614TIP3    H223258   3.763   6.334  11.775  2.3245 -1.3790 -0.9632
  615TIP3   OH223259   4.418   2.026  12.708 -0.0032  0.3046 -0.0950
  615TIP3    H123260   4.450   1.939  12.728 -0.2001  0.1959 -0.2513
  615TIP3    H223261   4.343   2.039  12.767 -0.3020  0.1598 -0.4399
  616TIP3   OH223262   6.601   4.472   2.283  0.0457 -0.1009 -0.5036
  616TIP3    H123263   6.616   4.456   2.377 -0.4269  1.4395 -0.1446
  616TIP3    H223264   6.674   4.429   2.239  0.2210 -0.9225  0.5722
  617TIP3   OH223265   5.785   5.096   3.540  0.7156 -0.0352 -0.9605
  617TIP3    H123266   5.838   5.174   3.525  1.3779 -0.2573  0.2181
  617TIP3    H223267   5.709   5.128   3.589  0.3459  0.0788 -1.6005
  618TIP3   OH223268   5.175   6.643  14.078  0.1126 -0.3342 -0.3193
  618TIP3    H123269   5.171   6.690  13.994 -2.4863 -0.8417 -0.5107
  618TIP3    H223270   5.143   6.555  14.057 -0.0287 -0.6235  1.1076
  619TIP3   OH223271   1.727   2.794   0.395  0.2127 -0.3398  0.2179
  619TIP3    H123272   1.764   2.744   0.468 -0.5813  0.3544  1.1148
  619TIP3    H223273   1.776   2.877   0.396  1.0957 -0.8459 -0.8659
  620TIP3   OH223274   4.912   1.555   4.737 -0.4374  0.4300 -0.2599
  620TIP3    H123275   4.908   1.460   4.724 -0.2166  0.3211  0.4444
  620TIP3    H223276   4.875   1.591   4.656  0.4197 -0.2322 -0.9591
  621TIP3   OH223277   5.065   6.648   5.299  0.3301  0.2609  0.6076
  621TIP3    H123278   5.158   6.640   5.277 -0.1331 -0.9713 -1.0036
  621TIP3    H223279   5.039   6.732   5.261  0.8571  0.7778  1.3718
  622TIP3   OH223280   3.218   3.356  10.571  0.2747  0.1080 -0.1518
  622TIP3    H123281   3.297   3.410  10.573  0.3225  0.0386 -0.2135
  622TIP3    H223282   3.239   3.280  10.625  0.5644 -0.3506 -0.9187
  623TIP3   OH223283   5.204   2.133  16.414  0.0183  0.2089 -0.1483
  623TIP3    H123284   5.180   2.126  16.321 -0.5537  3.0480 -0.2705
  623TIP3    H223285   5.234   2.223  16.424 -0.7291  0.1997  2.6062
  624TIP3   OH223286   5.048   5.916  15.985  0.1368 -0.4658 -0.0457
  624TIP3    H123287   5.089   5.839  16.026  0.2868  0.2968  1.2423
  624TIP3    H223288   5.122   5.966  15.950  0.0792 -0.6036 -0.3678
  625TIP3   OH223289   1.722   5.696  13.810 -0.4483  0.4882 -0.3169
  625TIP3    H123290   1.814   5.724  13.803 -0.8699  2.1039  0.4175
  625TIP3    H223291   1.703   5.657  13.724  1.1015 -0.4571 -0.2611
  626TIP3   OH223292   3.763   0.434   4.644 -0.4026  0.1499  0.3467
  626TIP3    H123293   3.695   0.371   4.670 -2.2259  1.3978 -1.2394
  626TIP3    H223294   3.714   0.508   4.608  1.7690  1.8847  0.9023
  627TIP3   OH223295   3.877   2.798   5.573 -0.6159 -0.0899 -0.1404
  627TIP3    H123296   3.956   2.775   5.523  0.2056 -0.2447  1.2144
  627TIP3    H223297   3.812   2.818   5.506  0.6837  0.4103 -1.2809
  628TIP3   OH223298   3.357   4.683  14.524  0.5852 -0.2765  0.2416
  628TIP3    H123299   3.336   4.591  14.539  0.1067 -0.2419 -0.2039
  628TIP3    H223300   3.428   4.702  14.586  1.6562 -1.3209 -0.6349
  629TIP3   OH223301   0.794   6.662  11.659  0.2800 -0.2440  0.0126
  629TIP3    H123302   0.880   6.692  11.691  0.1295  0.3940 -0.1750
  629TIP3    H223303   0.812   6.577  11.618  0.9675  0.2744 -0.7682
  630TIP3   OH223304   3.371   4.493  10.977 -0.0763 -0.8645  0.6590
  630TIP3    H123305   3.293   4.531  10.937  0.6253 -0.3283 -0.2158
  630TIP3    H223306   3.337   4.431  11.041 -1.2644  0.8134  1.7252
  631TIP3   OH223307   5.501   6.731  16.091 -0.5923 -0.0724 -0.2818
  631TIP3    H123308   5.424   6.703  16.141 -2.1423 -0.6163 -2.8954
  631TIP3    H223309   5.565   6.661  16.105  0.0704  1.1006  3.1358
  632TIP3   OH223310   4.168   0.384  17.179  0.7924  0.0391 -0.6102
  632TIP3    H123311   4.088   0.435  17.174  0.2153 -0.4822  2.1821
  632TIP3    H223312   4.168   0.331  17.100 -1.6057  0.0923 -0.6779
  633TIP3   OH223313   4.115   4.856  12.723  0.4353  0.0467 -0.8026
  633TIP3    H123314   4.057   4.836  12.797  1.9786  1.1606  0.7474
  633TIP3    H223315   4.174   4.781  12.718  0.0221 -0.2496 -1.2059
  634TIP3   OH223316   1.198   5.815  15.403 -0.0537  0.1323  0.2855
  634TIP3    H123317   1.111   5.807  15.443 -0.0825  0.7028  0.3484
  634TIP3    H223318   1.207   5.737  15.348 -0.5665  0.0236  0.3552
  635TIP3   OH223319   4.918   4.559  17.163  0.1849 -0.5345  0.7641
  635TIP3    H123320   4.944   4.520  17.246 -0.6713 -0.7253  0.9502
  635TIP3    H223321   4.825   4.535  17.154 -0.2510  1.1375  0.7115
  636TIP3   OH223322   2.686   5.416   4.245  0.1918 -0.0386  0.5535
  636TIP3    H123323   2.743   5.346   4.216 -1.4263 -1.3183  0.3549
  636TIP3    H223324   2.665   5.393   4.336 -1.3359 -0.5135  0.0978
  637TIP3   OH223325   6.599   1.650   6.089  0.0695 -0.1716  0.4032
  637TIP3    H123326   6.656   1.710   6.137  1.1306 -0.8022 -0.0247
  637TIP3    H223327   6.558   1.704   6.022  2.2138 -0.2056 -0.9756
  638TIP3   OH223328   3.593   5.455   6.801  0.4120 -0.4800 -0.3885
  638TIP3    H123329   3.533   5.518   6.841  0.8002 -0.8437  0.7648
  638TIP3    H223330   3.555   5.369   6.821 -1.0937 -0.6279 -3.4634
  639TIP3   OH223331   2.467   2.687   3.794 -0.6874 -0.1542 -0.4625
  639TIP3    H123332   2.516   2.752   3.742  0.8191 -1.4970 -0.7607
  639TIP3    H223333   2.415   2.639   3.731 -0.5144 -0.3405 -0.4664
  640TIP3   OH223334   0.754   6.517   5.486  0.2567 -0.2282 -0.0675
  640TIP3    H123335   0.753   6.613   5.479 -0.6114 -0.1813  0.5375
  640TIP3    H223336   0.732   6.500   5.578  1.5371 -0.9897  0.1084
  641TIP3   OH223337   1.318   5.556  14.452 -0.3059  0.0823  0.2867
  641TIP3    H123338   1.268   5.623  14.405 -1.6359 -1.9073 -1.2285
  641TIP3    H223339   1.319   5.587  14.543  1.2358  3.3664 -0.7623
  642TIP3   OH223340   2.742   5.036   5.860 -0.2046 -0.7931 -0.2322
  642TIP3    H123341   2.833   5.063   5.855 -0.9202  1.7928  0.0340
  642TIP3    H223342   2.735   4.989   5.943  1.1794 -2.2939 -0.9368
  643TIP3   OH223343   1.787   6.702  14.187 -0.3005  0.9174 -0.3826
  643TIP3    H123344   1.760   6.654  14.265 -0.6982 -2.3199 -2.4344
  643TIP3    H223345   1.706   6.743  14.156 -0.8253 -0.4599 -0.8769
  644TIP3   OH223346   4.103   4.765  14.285 -0.4620 -0.3212 -0.1424
  644TIP3    H123347   4.039   4.834  14.267 -0.4708 -0.2190  0.2808
  644TIP3    H223348   4.108   4.715  14.204 -0.6865 -0.0065 -0.3504
  645TIP3   OH223349   2.427   0.557  17.177 -0.0276  0.0047  0.1908
  645TIP3    H123350   2.337   0.591  17.180  0.0003  0.0756  0.2273
  645TIP3    H223351   2.464   0.593  17.097 -0.4210 -1.0118 -0.4662
  646TIP3   OH223352   3.244   1.411  12.185 -0.0376  0.1948  0.0119
  646TIP3    H123353   3.332   1.439  12.159  0.2120  0.7917  1.4668
  646TIP3    H223354   3.199   1.492  12.209 -1.1756 -0.0455 -1.2569
  647TIP3   OH223355   0.569   2.055  13.352  0.6594 -0.2098  0.4351
  647TIP3    H123356   0.663   2.076  13.351  0.7143 -0.4474 -2.4595
  647TIP3    H223357   0.565   1.960  13.344  0.1534 -0.2703  1.2788
  648TIP3   OH223358   2.551   5.028   4.140  0.6110  0.3649  0.5131
  648TIP3    H123359   2.567   4.967   4.068 -0.2593  0.3027  0.3631
  648TIP3    H223360   2.518   5.107   4.097 -1.1736 -0.1296  0.9348
  649TIP3   OH223361   2.818   1.260   1.153 -0.6136  0.9702  0.3204
  649TIP3    H123362   2.889   1.324   1.147 -1.9945  2.5681  0.7581
  649TIP3    H223363   2.854   1.189   1.207  0.9997  1.2564 -0.3423
  650TIP3   OH223364   0.838   4.288   3.928  0.0539  0.1748 -0.5589
  650TIP3    H123365   0.830   4.336   3.845  0.1043  1.8158  0.3617
  650TIP3    H223366   0.799   4.203   3.910  0.0894  0.5021 -2.2884
  651TIP3   OH223367   2.453   4.398  10.217  0.0853 -0.3794  0.1613
  651TIP3    H123368   2.532   4.450  10.212  0.5372 -1.0327  0.3991
  651TIP3    H223369   2.483   4.307  10.215 -0.7019 -0.6403 -0.5136
  652TIP3   OH223370   0.930   3.852   0.624 -0.2014 -0.5055  0.5394
  652TIP3    H123371   0.902   3.822   0.538 -2.9373  0.5356  1.0174
  652TIP3    H223372   0.990   3.784   0.655 -1.8545 -2.6088 -0.7662
  653TIP3   OH223373   5.459   5.281   6.123 -0.1836  0.9404 -0.3294
  653TIP3    H123374   5.468   5.287   6.218  0.5178  2.2160 -0.4668
  653TIP3    H223375   5.403   5.355   6.100  1.4008  1.8957 -1.1454
  654TIP3   OH223376   3.512   4.144   0.464 -0.2286 -0.1596  0.3086
  654TIP3    H123377   3.442   4.188   0.416 -1.5126 -0.7694  1.5908
  654TIP3    H223378   3.592   4.175   0.422 -1.2683  0.2362 -1.4395
  655TIP3   OH223379   6.416   4.557  14.370 -0.2610  0.2950  0.1291
  655TIP3    H123380   6.382   4.567  14.459  1.6702 -2.9210  1.2910
  655TIP3    H223381   6.337   4.558  14.314 -1.5267  1.7541  1.8799
  656TIP3   OH223382   6.655   4.770   3.163 -0.7189 -0.5425 -0.0830
  656TIP3    H123383   6.623   4.682   3.143 -1.1575 -0.5464  0.5968
  656TIP3    H223384   6.675   4.767   3.257 -2.6223  0.6545  0.3966
  657TIP3   OH223385   1.274   0.069   3.318  0.7475 -0.2779 -0.0672
  657TIP3    H123386   1.222  -0.010   3.334  2.2494 -1.0312  1.2557
  657TIP3    H223387   1.350   0.038   3.270 -0.2368  0.9025 -2.4597
  658TIP3   OH223388   2.824   2.808   4.727  0.7774  0.0038 -0.7630
  658TIP3    H123389   2.840   2.827   4.634  0.3677  0.0356 -0.8288
  658TIP3    H223390   2.797   2.716   4.729  1.0130 -0.0619 -0.6490
  659TIP3   OH223391   2.613   2.665  12.950  0.4732 -0.7565  0.2048
  659TIP3    H123392   2.639   2.625  12.867 -0.3732 -1.6293  0.3482
  659TIP3    H223393   2.517   2.656  12.953  0.3037  0.8873  0.4506
  660TIP3   OH223394   1.900   6.524   5.192 -0.0319 -0.0754 -0.5022
  660TIP3    H123395   1.969   6.586   5.217 -0.2460 -0.5692  1.3183
  660TIP3    H223396   1.818   6.570   5.211 -0.1989 -1.3542  2.0286
  661TIP3   OH223397   2.522   3.454  15.992  0.5216  0.3663  0.2879
  661TIP3    H123398   2.437   3.477  15.956  0.2296  2.1358  2.0115
  661TIP3    H223399   2.521   3.358  15.996 -0.8658  0.3118 -0.9029
  662TIP3   OH223400   5.803   5.681  13.921 -0.4079 -0.0277 -0.1900
  662TIP3    H123401   5.885   5.687  13.872 -0.9769 -2.5761 -1.5426
  662TIP3    H223402   5.800   5.590  13.951 -3.4178 -0.3465 -1.3784
  663TIP3   OH223403   6.594   3.667   4.816  0.2033  0.2315 -0.1129
  663TIP3    H123404   6.673   3.697   4.860 -0.4478  1.0239  0.5373
  663TIP3    H223405   6.626   3.618   4.740  1.3606 -1.9319  1.7032
  664TIP3   OH223406   0.937   1.820  16.791 -0.6115 -0.0608  0.3084
  664TIP3    H123407   1.008   1.866  16.746 -1.2365 -0.6093 -1.2964
  664TIP3    H223408   0.982   1.764  16.854  0.3948 -0.2870 -0.5732
  665TIP3   OH223409   0.120   1.853   5.876 -0.0731 -0.5410 -0.3689
  665TIP3    H123410   0.155   1.785   5.933  1.0163 -1.7005 -2.3572
  665TIP3    H223411   0.194   1.879   5.821 -0.8532  1.1933 -0.6336
  666TIP3   OH223412   4.694   4.777  11.757  0.4494  0.4460 -0.0657
  666TIP3    H123413   4.609   4.805  11.723  0.3686 -0.5544 -0.7105
  666TIP3    H223414   4.720   4.704  11.701  1.5504  0.4758  0.3794
  667TIP3   OH223415   2.646   4.828  13.455 -0.3233  0.3968  0.4763
  667TIP3    H123416   2.577   4.762  13.451  0.0308  0.0402  0.1838
  667TIP3    H223417   2.608   4.900  13.506 -0.4124 -0.3720  1.4958
  668TIP3   OH223418   6.660   4.946   4.534 -0.0216 -0.0673 -0.2597
  668TIP3    H123419   6.656   4.852   4.517  0.1497 -0.3177  1.0394
  668TIP3    H223420   6.582   4.964   4.588  1.4666 -0.0090  1.9554
  669TIP3   OH223421   3.068   3.960  13.765  0.3094  0.1027  0.1720
  669TIP3    H123422   2.995   4.015  13.736  0.2468  0.2177  0.5525
  669TIP3    H223423   3.143   4.019  13.768  0.5787 -0.1721 -0.9192
  670TIP3   OH223424   1.710   1.376   1.315  0.4012 -0.4274  0.1474
  670TIP3    H123425   1.759   1.450   1.278 -0.0486 -0.3692 -0.3458
  670TIP3    H223426   1.774   1.305   1.318 -0.2972 -1.3563 -3.6975
  671TIP3   OH223427   6.342   5.522   1.348 -0.0903 -0.5655 -0.0173
  671TIP3    H123428   6.342   5.575   1.268 -2.3829 -0.6499 -0.1206
  671TIP3    H223429   6.416   5.554   1.398  1.5488 -0.6715 -2.2793
  672TIP3   OH223430   0.785   4.421   3.693  0.7661  0.9609 -0.7296
  672TIP3    H123431   0.742   4.504   3.711  0.5895  0.9538 -1.1171
  672TIP3    H223432   0.718   4.367   3.653  0.0539 -0.3708  2.1268
  673TIP3   OH223433   3.924   3.329  12.494  0.0200  0.5726  0.5791
  673TIP3    H123434   3.926   3.411  12.545  0.4375  0.1343  1.2767
  673TIP3    H223435   3.950   3.356  12.406  0.5964  1.1262  0.9108
  674TIP3   OH223436   5.858   2.803  12.631 -0.3627  0.5116 -0.4415
  674TIP3    H123437   5.890   2.879  12.582  0.6372 -0.1121 -0.7740
  674TIP3    H223438   5.918   2.732  12.607  0.5462  0.3407  2.1848
  675TIP3   OH223439   5.416   6.103   6.188  0.0143  0.5806  0.2876
  675TIP3    H123440   5.469   6.165   6.238 -1.2537  0.6170  1.5966
  675TIP3    H223441   5.348   6.074   6.249 -0.8818 -0.2247 -1.0652
  676TIP3   OH223442   2.725   6.645  12.113  0.5575 -0.5425 -0.4278
  676TIP3    H123443   2.726   6.615  12.022  0.4152 -1.2339 -0.2004
  676TIP3    H223444   2.750   6.738  12.108 -1.4624 -0.0248 -1.3664
  677TIP3   OH223445   5.976   0.077  15.538 -0.1552  0.9577 -0.0808
  677TIP3    H123446   5.912   0.110  15.602 -0.3394  0.0134  0.2264
  677TIP3    H223447   6.057   0.123  15.559 -0.4567  1.3626  0.2166
  678TIP3   OH223448   1.699   6.477   3.841  0.2001 -0.3159 -0.3341
  678TIP3    H123449   1.761   6.413   3.878  1.4092  1.4597  0.7873
  678TIP3    H223450   1.753   6.536   3.789 -0.8656  0.0134 -1.0816
  679TIP3   OH223451   5.845   5.026  14.573 -0.1964  0.2488  0.0880
  679TIP3    H123452   5.790   5.000  14.646 -0.8371  1.0399 -0.1124
  679TIP3    H223453   5.934   5.000  14.600 -0.5123 -0.0527  0.8581
  680TIP3   OH223454   1.621   4.559   2.247 -0.1266 -0.5544 -0.0751
  680TIP3    H123455   1.567   4.521   2.317  0.6908  0.0253  0.8844
  680TIP3    H223456   1.558   4.595   2.185 -0.8687 -1.1217  0.3470
  681TIP3   OH223457   4.129   5.837   0.088  0.0670 -0.1951 -0.2617
  681TIP3    H123458   4.071   5.892   0.035  0.2072 -1.0317 -1.2988
  681TIP3    H223459   4.077   5.759   0.109  1.5409 -2.0540 -3.2039
  682TIP3   OH223460   5.436   3.069  10.453  0.3480  0.2190  0.2198
  682TIP3    H123461   5.456   2.983  10.418  1.8263  1.5482 -2.3634
  682TIP3    H223462   5.340   3.075  10.448  0.4197 -0.1508 -2.4643
  683TIP3   OH223463   3.540   3.458   4.762 -0.4320  0.4623  0.3691
  683TIP3    H123464   3.572   3.368   4.767  1.9418  0.8783 -4.3796
  683TIP3    H223465   3.602   3.508   4.815  1.3746 -0.0936 -1.1259
  684TIP3   OH223466   5.476   0.198   0.442 -0.2351 -0.2485 -0.5475
  684TIP3    H123467   5.550   0.139   0.429 -0.5736 -0.3048 -2.3896
  684TIP3    H223468   5.416   0.177   0.370 -0.4515  2.1768 -1.1073
  685TIP3   OH223469   0.846   5.322  11.184  0.0193 -0.2563  0.1510
  685TIP3    H123470   0.915   5.388  11.177  0.3591 -0.3984  2.0049
  685TIP3    H223471   0.885   5.242  11.149  0.5048 -0.1304  0.4028
  686TIP3   OH223472   3.269   0.198   1.735 -0.4860 -0.2428  0.0443
  686TIP3    H123473   3.211   0.158   1.800  2.3986 -1.7227  1.8161
  686TIP3    H223474   3.277   0.133   1.666 -0.4525 -0.2935  0.0959
  687TIP3   OH223475   2.692   6.302   5.080  0.4481 -0.3165  0.0081
  687TIP3    H123476   2.610   6.253   5.091 -0.0707  0.3212 -0.9845
  687TIP3    H223477   2.746   6.247   5.024 -1.0222  1.2476 -3.0417
  688TIP3   OH223478   1.803   6.323  14.157 -0.0725  0.2363 -0.0227
  688TIP3    H123479   1.803   6.394  14.093 -1.5983  0.1566 -0.1163
  688TIP3    H223480   1.802   6.367  14.242 -2.2576  0.3637 -0.0774
  689TIP3   OH223481   3.419   1.305  10.633 -0.2046 -0.7068 -0.0100
  689TIP3    H123482   3.361   1.280  10.704  0.4528 -0.3189  0.6710
  689TIP3    H223483   3.402   1.399  10.620 -0.1674 -0.7286 -0.2251
  690TIP3   OH223484   0.710   6.239   3.088 -0.1056 -0.6416 -0.4205
  690TIP3    H123485   0.765   6.177   3.041  0.0724 -0.6366 -0.2210
  690TIP3    H223486   0.658   6.185   3.148  0.4034 -0.5512  0.1015
  691TIP3   OH223487   3.878   4.491  16.749 -0.3339 -0.0163  0.4114
  691TIP3    H123488   3.830   4.437  16.813 -0.9261  0.3816  0.3083
  691TIP3    H223489   3.913   4.427  16.687 -1.9487 -0.2185 -0.3233
  692TIP3   OH223490   2.737   5.363  15.310  0.1730 -0.7058  0.0675
  692TIP3    H123491   2.824   5.325  15.305 -0.0747 -1.1254 -1.1488
  692TIP3    H223492   2.678   5.288  15.298 -0.3464 -0.3200  0.2065
  693TIP3   OH223493   4.641   1.826   1.726  0.1056  0.1086 -0.1425
  693TIP3    H123494   4.690   1.754   1.687  1.4053  1.3608 -0.8545
  693TIP3    H223495   4.673   1.831   1.816  1.4502  1.0434 -0.6595
  694TIP3   OH223496   4.248   5.561  16.888  0.4605  0.0280  0.1998
  694TIP3    H123497   4.337   5.528  16.876  0.4578 -0.1189  0.5744
  694TIP3    H223498   4.238   5.630  16.822  0.7745 -0.1097  0.0102
  695TIP3   OH223499   2.069   2.864   0.316  0.3613 -0.1218  0.4005
  695TIP3    H123500   2.067   2.769   0.319 -0.3918 -0.0875  1.2423
  695TIP3    H223501   2.158   2.886   0.289  0.3245 -1.0746 -0.5308
  696TIP3   OH223502   5.268   3.120   3.900  0.9608 -0.6041  0.3096
  696TIP3    H123503   5.287   3.128   3.993  2.5892 -0.1397 -0.0616
  696TIP3    H223504   5.283   3.208   3.865 -0.5911 -0.5350 -0.2391
  697TIP3   OH223505   4.265   4.282  14.186  0.1354  0.2078 -0.2154
  697TIP3    H123506   4.352   4.304  14.220  0.2774 -0.7149  0.0414
  697TIP3    H223507   4.247   4.349  14.121  0.5796  1.0307  0.5014
  698TIP3   OH223508   2.512   3.409  14.089  0.2466  0.0896 -0.1202
  698TIP3    H123509   2.503   3.468  14.014  2.5551  1.6187  0.7450
  698TIP3    H223510   2.466   3.454  14.160 -0.6309 -0.6352 -0.2192
  699TIP3   OH223511   6.043   2.988  13.383  0.1327 -0.2189  0.0366
  699TIP3    H123512   6.049   2.933  13.462 -1.9805  0.5628  0.7795
  699TIP3    H223513   5.967   2.955  13.336  0.4133  0.3863 -0.8601
  700TIP3   OH223514   3.656   5.183  13.414  0.4363 -0.3206  0.0264
  700TIP3    H123515   3.599   5.115  13.450  0.9083 -0.9068 -0.3258
  700TIP3    H223516   3.702   5.219  13.490 -0.1064 -0.1135  0.2635
  701TIP3   OH223517   3.010   2.456  15.543 -0.1535 -0.4692  0.2501
  701TIP3    H123518   3.047   2.398  15.610 -0.9555 -0.2825  0.8555
  701TIP3    H223519   3.029   2.411  15.460  0.7242 -0.7649  0.6023
  702TIP3   OH223520   0.103   6.751   1.495 -0.1822  0.5718  0.3587
  702TIP3    H123521   0.174   6.689   1.515  0.6180  1.6031  0.7235
  702TIP3    H223522   0.023   6.699   1.507  0.3880  0.2626  3.0725
  703TIP3   OH223523   6.667   2.568  16.454 -0.0786  0.1241 -0.4613
  703TIP3    H123524   6.629   2.548  16.368 -0.6711 -1.0159  0.0496
  703TIP3    H223525   6.596   2.552  16.516  1.1111 -1.7281  0.4885
  704TIP3   OH223526   2.832   5.878  16.243 -0.1259 -0.5175  0.5444
  704TIP3    H123527   2.795   5.812  16.186 -0.7969 -1.9528  2.6122
  704TIP3    H223528   2.848   5.953  16.186 -2.5655 -1.2460 -1.1231
  705TIP3   OH223529   1.512   6.513   2.418 -0.4346 -0.2427 -0.2837
  705TIP3    H123530   1.569   6.582   2.384 -0.2473  0.8023  2.0317
  705TIP3    H223531   1.423   6.544   2.400 -0.4005  1.5172  2.3398
  706TIP3   OH223532   3.580   0.399  11.755  0.3445  0.5119 -0.5420
  706TIP3    H123533   3.619   0.421  11.840  1.5803  1.4612 -1.3474
  706TIP3    H223534   3.487   0.420  11.766  0.5158  0.7352  0.5356
  707TIP3   OH223535   1.845   6.637  15.240 -0.0787 -0.5961  0.5071
  707TIP3    H123536   1.932   6.677  15.242  0.3734 -1.5150 -0.3362
  707TIP3    H223537   1.850   6.572  15.170 -1.5459 -0.4412  0.2364
  708TIP3   OH223538   6.081   6.566  14.922 -0.4714 -0.2527 -0.1191
  708TIP3    H123539   6.039   6.650  14.940 -1.7793 -1.1355  1.1021
  708TIP3    H223540   6.149   6.559  14.990  0.1082  0.1361 -0.6592
  709TIP3   OH223541   3.166   0.846   0.579 -0.0060  1.3121  0.0208
  709TIP3    H123542   3.071   0.858   0.579 -0.1951 -0.0313  0.7549
  709TIP3    H223543   3.199   0.913   0.639 -0.6627  0.6326  1.1544
  710TIP3   OH223544   4.835   1.076  15.212  0.0947 -0.1084 -0.2059
  710TIP3    H123545   4.814   1.112  15.126 -1.0648 -0.1197  0.0650
  710TIP3    H223546   4.834   0.981  15.199  0.6909 -0.0951 -0.3535
  711TIP3   OH223547   3.244   6.447  15.347 -0.3939 -0.0011 -0.3318
  711TIP3    H123548   3.325   6.498  15.349  0.1731 -0.8461 -1.1767
  711TIP3    H223549   3.217   6.450  15.255 -0.8219 -0.4869 -0.2194
  712TIP3   OH223550   5.109   1.247   1.104  0.2418 -0.1113 -0.1401
  712TIP3    H123551   5.190   1.197   1.113  0.2884  0.0899  0.5890
  712TIP3    H223552   5.130   1.334   1.137 -0.0556  0.1682 -0.6750
  713TIP3   OH223553   3.480   1.679   4.589  0.3016  0.0318 -0.1409
  713TIP3    H123554   3.439   1.644   4.510 -2.2670  0.4565  0.9459
  713TIP3    H223555   3.504   1.602   4.641  0.9694 -0.2225 -0.8206
  714TIP3   OH223556   5.423   5.874   6.686  0.0733  0.1722  0.0877
  714TIP3    H123557   5.357   5.920   6.738  0.6683  1.4408 -0.2648
  714TIP3    H223558   5.372   5.828   6.619 -0.4661  1.1173 -0.1632
  715TIP3   OH223559   1.399   4.349  16.335  0.5569 -0.0742 -0.2987
  715TIP3    H123560   1.364   4.438  16.334  0.6629  0.0213  2.7102
  715TIP3    H223561   1.347   4.303  16.401  0.7846 -2.1512 -1.5028
  716TIP3   OH223562   3.095   1.010   5.412  0.1570  0.2246  0.4602
  716TIP3    H123563   3.101   0.925   5.455 -0.0006  0.3990  0.8341
  716TIP3    H223564   3.129   0.995   5.324  1.0107 -0.0094  0.8306
  717TIP3   OH223565   3.370   6.198   5.566  0.3373 -0.1139  0.0207
  717TIP3    H123566   3.370   6.183   5.660  1.2262 -2.9158 -0.3926
  717TIP3    H223567   3.458   6.229   5.546  0.6115 -0.9914 -0.1162
  718TIP3   OH223568   6.097   6.220  15.926  0.4890 -0.2247  0.7359
  718TIP3    H123569   6.024   6.252  15.978 -1.0356 -1.0602 -0.8587
  718TIP3    H223570   6.083   6.126  15.919  0.4013 -0.0793 -1.5614
  719TIP3   OH223571   3.874   2.206  15.342  0.3234  0.5193  0.2647
  719TIP3    H123572   3.834   2.223  15.427  1.0730 -1.3375  1.0297
  719TIP3    H223573   3.966   2.186  15.362 -0.3496 -3.9235 -0.4811
  720TIP3   OH223574   6.369   4.492   4.878  0.0432  0.8579 -0.4261
  720TIP3    H123575   6.448   4.503   4.931  0.5042  2.1359 -1.3499
  720TIP3    H223576   6.396   4.434   4.807 -0.4029 -0.3384  0.3698
  721TIP3   OH223577   2.821   4.245   3.610 -0.1441 -0.3807  0.3555
  721TIP3    H123578   2.736   4.213   3.580  0.1641  1.6773 -2.9896
  721TIP3    H223579   2.872   4.166   3.629 -1.9792 -1.6658 -0.0228
  722TIP3   OH223580   5.549   3.306  16.672  0.0487 -0.2466  0.1306
  722TIP3    H123581   5.557   3.212  16.658  0.4033 -0.6953  3.0386
  722TIP3    H223582   5.633   3.342  16.642 -0.2607 -0.7542 -1.4102
  723TIP3   OH223583   2.184   3.630  12.977 -0.3731 -0.6636  0.0031
  723TIP3    H123584   2.221   3.706  13.023  2.1468 -1.9956  0.2888
  723TIP3    H223585   2.199   3.556  13.036 -0.2489 -1.8353 -1.4595
  724TIP3   OH223586   4.798   0.301  14.658  0.1720 -0.4617  0.5590
  724TIP3    H123587   4.861   0.372  14.666 -0.8503  0.7909 -1.9772
  724TIP3    H223588   4.723   0.329  14.712  1.4717 -1.6910  3.1055
  725TIP3   OH223589   6.271   5.081   0.364 -0.1947  0.3862  0.4026
  725TIP3    H123590   6.265   4.986   0.355 -2.5412  0.3349  1.9914
  725TIP3    H223591   6.208   5.115   0.301 -0.0231  0.8565  0.4793
  726TIP3   OH223592   6.413   0.351   4.166  0.1005  0.8017 -0.0329
  726TIP3    H123593   6.336   0.407   4.177  1.1966  2.0537  1.4943
  726TIP3    H223594   6.485   0.412   4.151  0.7920 -0.3646 -1.6663
  727TIP3   OH223595   3.838   6.063  13.713  0.0554 -0.5278 -0.2630
  727TIP3    H123596   3.895   6.067  13.636  0.8458 -2.0056  0.2327
  727TIP3    H223597   3.822   5.969  13.726  0.6837 -0.3543  1.9264
  728TIP3   OH223598   3.725   3.120  15.876  0.6710 -0.9191  0.5386
  728TIP3    H123599   3.787   3.077  15.817 -0.1819 -0.1604 -0.9128
  728TIP3    H223600   3.703   3.202  15.833 -0.6129 -0.7443  1.5033
  729TIP3   OH223601   5.770   1.637   4.292 -0.7878 -0.1819  0.1483
  729TIP3    H123602   5.773   1.549   4.329 -0.3259  0.4147  1.5594
  729TIP3    H223603   5.792   1.625   4.200 -1.6627 -1.6568  0.1186
  730TIP3   OH223604   2.326   5.458   3.973  0.0893  0.1671  0.4320
  730TIP3    H123605   2.261   5.412   3.920 -0.3922 -0.0929  1.2454
  730TIP3    H223606   2.304   5.550   3.964  0.6881  0.2176 -0.7124
  731TIP3   OH223607   3.241   6.556  11.155 -0.0957 -0.6605 -0.7972
  731TIP3    H123608   3.203   6.589  11.073 -1.1130  0.4355  0.0927
  731TIP3    H223609   3.239   6.461  11.146 -3.6303 -0.6815 -0.5782
  732TIP3   OH223610   4.963   5.352  11.735  1.0199  0.1073  0.2091
  732TIP3    H123611   5.002   5.267  11.755  0.3796 -0.0615  0.7406
  732TIP3    H223612   4.896   5.364  11.802 -0.4093  0.0356 -1.1825
  733TIP3   OH223613   2.397   6.045   4.512 -1.0032 -0.4553  0.1391
  733TIP3    H123614   2.395   6.120   4.452 -1.0725 -1.9321 -1.7309
  733TIP3    H223615   2.471   5.992   4.483 -1.1942 -1.3273  1.2043
  734TIP3   OH223616   0.703   3.213  16.939  0.2731 -0.3534 -0.4188
  734TIP3    H123617   0.784   3.244  16.979 -0.0560  1.1212 -0.8494
  734TIP3    H223618   0.659   3.165  17.009  0.8706  0.0400  0.2356
  735TIP3   OH223619   3.465   6.288   4.845  0.2551 -0.5596  0.4130
  735TIP3    H123620   3.530   6.335   4.897  1.1707 -1.6442  0.2517
  735TIP3    H223621   3.424   6.227   4.905 -2.6167  2.0107  1.2294
  736TIP3   OH223622   1.921   1.129   5.880 -0.0545 -0.3561 -0.4303
  736TIP3    H123623   2.002   1.152   5.924 -1.2612  0.0116  1.6853
  736TIP3    H223624   1.942   1.052   5.827  1.8858  0.3336 -0.6721
  737TIP3   OH223625   0.763   6.075   0.041 -0.3996  0.1077  0.0091
  737TIP3    H123626   0.827   6.010   0.016 -1.0310 -1.0355  1.2789
  737TIP3    H223627   0.681   6.026   0.049 -1.0288  1.1873  0.2725
  738TIP3   OH223628   6.649   4.986   0.958  0.1138  0.2875  0.7624
  738TIP3    H123629   6.672   4.912   0.902 -0.0092  0.3319  0.6542
  738TIP3    H223630   6.569   5.023   0.919  0.6670  1.0146  0.3096
  739TIP3   OH223631   4.563   3.085  10.998 -0.1724  0.0673 -0.1630
  739TIP3    H123632   4.565   3.017  11.065  0.3677 -0.1443 -0.3968
  739TIP3    H223633   4.557   3.037  10.915  2.1671  0.2386 -0.4583
  740TIP3   OH223634   1.869   4.399   6.202  0.1339  0.1080  0.5182
  740TIP3    H123635   1.849   4.347   6.279 -0.4283 -1.1559 -0.4639
  740TIP3    H223636   1.958   4.372   6.177 -0.4860 -1.0786 -0.5061
  741TIP3   OH223637   1.664   3.470   2.220  0.4904  0.6209 -0.2136
  741TIP3    H123638   1.622   3.386   2.204 -0.3843  0.8615  0.7299
  741TIP3    H223639   1.752   3.448   2.251  0.3646  0.0675 -0.2555
  742TIP3   OH223640   0.090   1.152  15.952  0.1079  0.1657 -0.1458
  742TIP3    H123641   0.007   1.146  15.999  0.0890 -1.1180 -0.3136
  742TIP3    H223642   0.155   1.123  16.015  0.4251  1.0676 -0.0494
  743TIP3   OH223643   6.621   3.547   6.237  0.4877  0.8193  0.1552
  743TIP3    H123644   6.577   3.595   6.307 -0.1210  2.0149 -1.0421
  743TIP3    H223645   6.558   3.480   6.211  0.5751  0.5978  0.5157
  744TIP3   OH223646   0.599   3.086   5.294  0.3340 -0.1632 -0.0566
  744TIP3    H123647   0.660   3.108   5.224  0.1373  1.6981  0.3322
  744TIP3    H223648   0.624   2.997   5.321  1.1218 -0.4567 -1.7104
  745TIP3   OH223649   2.703   3.728   4.015 -0.4783  0.4474 -0.3072
  745TIP3    H123650   2.744   3.791   3.956  1.9061 -2.5103 -1.9621
  745TIP3    H223651   2.776   3.695   4.068 -2.0079  0.4445  1.8525
  746TIP3   OH223652   4.210   6.172  11.868  0.0990  0.1229  0.1481
  746TIP3    H123653   4.209   6.266  11.853 -0.0159  0.0310 -0.4171
  746TIP3    H223654   4.302   6.147  11.859  0.2167  0.2727  0.8879
  747TIP3   OH223655   3.350   2.904   1.551  0.6563  0.6154  0.5565
  747TIP3    H123656   3.312   2.922   1.465 -0.9361  2.3902  1.6012
  747TIP3    H223657   3.389   2.987   1.578  0.9657  0.1278  1.6420
  748TIP3   OH223658   3.252   2.436  13.617  0.3676  0.1280  0.1108
  748TIP3    H123659   3.275   2.394  13.535 -0.4476  1.6003 -0.8829
  748TIP3    H223660   3.330   2.426  13.672  0.4066 -2.0945 -0.3302
  749TIP3   OH223661   5.300   5.938   1.238 -0.2009 -0.5499 -0.0965
  749TIP3    H123662   5.244   5.965   1.165 -0.1167  0.4565  0.2066
  749TIP3    H223663   5.382   5.911   1.196  1.0699  3.1789 -0.1841
  750TIP3   OH223664   2.628   1.639   1.049  0.0399 -0.3516 -0.4448
  750TIP3    H123665   2.630   1.568   0.985 -0.0389 -1.7459  1.0824
  750TIP3    H223666   2.609   1.596   1.132 -0.7305  1.5475  0.3806
  751TIP3   OH223667   4.941   6.300  15.978  0.5091 -0.3551  0.2041
  751TIP3    H123668   5.018   6.254  16.012  0.7963 -0.4374 -0.5416
  751TIP3    H223669   4.930   6.375  16.037  0.0499 -1.3570  1.4169
  752TIP3   OH223670   4.583   2.473  16.402 -0.2782  0.3696 -0.6897
  752TIP3    H123671   4.575   2.398  16.461  1.9269 -1.4849 -2.6565
  752TIP3    H223672   4.672   2.505  16.416 -0.4983  1.2845 -1.4104
  753TIP3   OH223673   0.545   2.386  15.002 -0.3737  0.2770 -0.4740
  753TIP3    H123674   0.518   2.477  15.010 -1.8966 -0.3817  2.5971
  753TIP3    H223675   0.640   2.388  15.015 -0.5270  1.3428  0.5176
  754TIP3   OH223676   5.968   6.448   4.732 -0.1703  0.3490  0.1326
  754TIP3    H123677   5.950   6.400   4.651  0.2220 -0.2662  0.4147
  754TIP3    H223678   5.896   6.424   4.790 -0.1516  0.3599  0.1600
  755TIP3   OH223679   4.894   2.093   3.163 -0.7222  0.1283 -0.2330
  755TIP3    H123680   4.873   2.178   3.202 -0.8247 -0.5425  1.2084
  755TIP3    H223681   4.812   2.064   3.123 -0.6831  0.7143 -0.7404
  756TIP3   OH223682   3.639   3.317   3.705  0.0044  0.1575 -0.1020
  756TIP3    H123683   3.652   3.411   3.695  0.9444 -0.1443 -2.0454
  756TIP3    H223684   3.667   3.298   3.794  0.2922  1.6515  0.1352
  757TIP3   OH223685   5.007   5.465   3.973 -0.0930  0.0788  0.0506
  757TIP3    H123686   4.988   5.441   3.882  1.6358  0.9397 -0.5765
  757TIP3    H223687   5.102   5.478   3.974 -0.1754  0.6391  1.8467
  758TIP3   OH223688   2.306   1.353  12.320  0.6697  0.2966 -0.0966
  758TIP3    H123689   2.328   1.322  12.408 -1.9555  0.6658  0.7459
  758TIP3    H223690   2.298   1.448  12.329 -0.6648  0.2359 -0.4624
  759TIP3   OH223691   3.885   3.016   0.562 -0.6024 -0.3773  0.1784
  759TIP3    H123692   3.794   2.988   0.568 -0.6528 -0.1705  0.3911
  759TIP3    H223693   3.925   2.984   0.643 -0.6292  0.0502  0.3624
  760TIP3   OH223694   0.224   0.768  14.809 -0.1895  0.4765 -0.1386
  760TIP3    H123695   0.206   0.802  14.896 -0.8244  0.1226 -0.1290
  760TIP3    H223696   0.317   0.744  14.811 -0.3575 -0.1031  0.6231
  761TIP3   OH223697   1.516   4.545  15.183  0.5242  0.0747 -0.1593
  761TIP3    H123698   1.546   4.603  15.113 -1.5129 -1.4113 -2.3330
  761TIP3    H223699   1.502   4.604  15.258  0.1239  2.1406 -1.7994
  762TIP3   OH223700   0.254   5.663   2.370  0.1256  0.0737  0.1138
  762TIP3    H123701   0.338   5.678   2.413 -0.3167  1.0973  0.6406
  762TIP3    H223702   0.237   5.744   2.322 -0.4415 -0.2259 -0.1893
  763TIP3   OH223703   3.116   2.311  13.009 -0.6588 -0.3963 -0.2249
  763TIP3    H123704   3.181   2.251  13.045 -2.2843 -2.1073 -0.0759
  763TIP3    H223705   3.121   2.298  12.915 -0.6957 -0.4006 -0.2258
  764TIP3   OH223706   5.581   5.985   0.766  0.2864 -0.8144 -0.1891
  764TIP3    H123707   5.599   6.067   0.720 -4.6891  0.0946 -0.9060
  764TIP3    H223708   5.610   6.000   0.855 -1.7965  2.3633  0.0472
  765TIP3   OH223709   5.702   3.717   0.119  0.0326 -0.4351 -0.4264
  765TIP3    H123710   5.783   3.760   0.091  0.4127  0.3963  1.8608
  765TIP3    H223711   5.732   3.643   0.173 -0.7206 -1.0077 -0.7846
  766TIP3   OH223712   5.829   5.892  13.071 -0.2697  0.1216  0.0278
  766TIP3    H123713   5.750   5.878  13.019 -1.6149  1.6097  1.6412
  766TIP3    H223714   5.824   5.827  13.141  0.2844 -0.2370 -0.2645
  767TIP3   OH223715   6.504   2.621   1.686 -0.4786 -0.0246  0.4416
  767TIP3    H123716   6.422   2.662   1.713  0.0223  1.3051  0.0221
  767TIP3    H223717   6.519   2.551   1.749 -3.2897 -2.0326 -1.0294
  768TIP3   OH223718   0.886   1.098  16.646 -0.2823 -0.1131 -0.0603
  768TIP3    H123719   0.858   1.155  16.575  1.1631  1.2797  0.4653
  768TIP3    H223720   0.898   1.156  16.721  2.4976 -0.8905  0.1370
  769TIP3   OH223721   6.411   2.400   4.218  0.0498  0.3438 -0.0363
  769TIP3    H123722   6.367   2.429   4.298  0.3079  0.1916  0.1604
  769TIP3    H223723   6.442   2.312   4.238  0.9019  0.6446  0.0069
  770TIP3   OH223724   2.052   1.810   1.604  0.1978  0.2071 -0.5046
  770TIP3    H123725   1.977   1.868   1.589  1.0032  1.6364  0.7742
  770TIP3    H223726   2.078   1.827   1.695  1.6649 -0.7348 -0.7216
  771TIP3   OH223727   6.627   2.211  13.596 -0.1487  0.5086  0.0876
  771TIP3    H123728   6.552   2.215  13.657 -0.3493 -0.4407 -0.0841
  771TIP3    H223729   6.592   2.243  13.513 -0.5425 -0.5174 -0.1531
  772TIP3   OH223730   2.499   3.415   1.709 -0.1051  0.1803  0.3485
  772TIP3    H123731   2.571   3.362   1.743  1.6851  0.9532 -2.0617
  772TIP3    H223732   2.454   3.357   1.648 -0.9889 -0.0084  1.1674
  773TIP3   OH223733   2.966   0.397  12.462  0.4520  0.2635 -0.3285
  773TIP3    H123734   2.976   0.324  12.400  0.1224  1.3561 -1.6941
  773TIP3    H223735   3.054   0.432  12.472 -0.1727  3.2232 -4.1169
  774TIP3   OH223736   5.352   1.191   0.774 -0.4021  0.4430  0.5567
  774TIP3    H123737   5.412   1.211   0.703 -0.5115  1.0345  0.6264
  774TIP3    H223738   5.350   1.271   0.827 -1.3628  0.4891  0.4675
  775TIP3   OH223739   6.489   2.462  12.928  0.3461 -0.1274  0.3109
  775TIP3    H123740   6.398   2.469  12.958  0.0601  0.7694 -0.7414
  775TIP3    H223741   6.521   2.553  12.929  1.3384 -0.4765  0.9853
  776TIP3   OH223742   4.924   6.251   4.238 -0.1016  0.0899 -0.0412
  776TIP3    H123743   4.885   6.175   4.194 -0.4142  1.2882 -1.9116
  776TIP3    H223744   4.885   6.326   4.194  2.8604  1.3379 -0.6264
  777TIP3   OH223745   0.621   5.730   2.830 -0.2235 -0.0944 -0.7897
  777TIP3    H123746   0.700   5.782   2.814 -0.6567  0.4488 -1.1818
  777TIP3    H223747   0.573   5.779   2.896 -0.3360 -0.3149 -0.7094
  778TIP3   OH223748   6.584   3.092  13.177  0.0832  0.2229 -0.3181
  778TIP3    H123749   6.618   3.124  13.260 -0.6459 -0.7083  0.3480
  778TIP3    H223750   6.489   3.102  13.183 -0.1091 -1.3517 -0.3796
  779TIP3   OH223751   0.709   2.422   2.892 -0.1758  0.0380 -0.5779
  779TIP3    H123752   0.640   2.400   2.954 -0.6391 -0.2237 -1.1936
  779TIP3    H223753   0.671   2.408   2.806  0.8384 -0.7137 -0.9183
  780TIP3   OH223754   3.773   1.033  13.505 -0.2427 -0.5162 -0.0618
  780TIP3    H123755   3.679   1.020  13.497 -0.5298  1.5377 -0.2446
  780TIP3    H223756   3.811   0.952  13.470 -1.8893 -0.6801 -1.5606
  781TIP3   OH223757   3.432   4.391  12.331  0.0097  0.0419 -0.4915
  781TIP3    H123758   3.434   4.468  12.388  0.6263 -0.8255  0.6645
  781TIP3    H223759   3.504   4.336  12.362  0.4172 -0.3988 -2.1793
  782TIP3   OH223760   1.415   3.175  14.150 -0.1633  0.0805  0.5711
  782TIP3    H123761   1.491   3.148  14.099 -1.2619  1.2353 -1.7269
  782TIP3    H223762   1.450   3.191  14.238  1.9093 -1.1190 -0.0033
  783TIP3   OH223763   1.359   0.564   2.204 -0.8079  0.5516 -0.0141
  783TIP3    H123764   1.368   0.482   2.155 -0.2003  1.1941 -1.0035
  783TIP3    H223765   1.377   0.540   2.295 -0.2361 -0.3391 -0.3563
  784TIP3   OH223766   3.081   1.011   1.995 -0.5179 -0.2704 -0.1666
  784TIP3    H123767   3.075   1.106   1.994  2.8503 -0.0100 -0.3994
  784TIP3    H223768   3.012   0.983   2.055 -0.7707  2.3533  0.8218
  785TIP3   OH223769   2.289   2.791  11.294  0.3808  0.1124 -0.2309
  785TIP3    H123770   2.355   2.796  11.225  2.9365 -2.1258  1.9517
  785TIP3    H223771   2.252   2.703  11.285  0.6698 -0.1616  1.1834
  786TIP3   OH223772   2.892   2.845  11.297 -0.5223 -0.4196 -0.1564
  786TIP3    H123773   2.819   2.782  11.294 -1.0653  0.2650 -2.9819
  786TIP3    H223774   2.882   2.888  11.381 -1.5400 -2.4927  0.8341
  787TIP3   OH223775   6.322   1.342   4.955  0.2790  0.7778 -0.0558
  787TIP3    H123776   6.320   1.256   4.996 -0.5974  0.3990 -0.8804
  787TIP3    H223777   6.402   1.383   4.989 -0.0225  0.1874  1.4258
  788TIP3   OH223778   0.428   5.851  12.081 -0.0606  0.2678 -0.1023
  788TIP3    H123779   0.339   5.815  12.089  0.0778 -0.6160 -2.2003
  788TIP3    H223780   0.485   5.775  12.089  0.2805  0.1147 -3.3355
  789TIP3   OH223781   5.614   0.387  11.834  0.1173 -0.4426  0.0015
  789TIP3    H123782   5.582   0.299  11.814 -0.1182 -0.3466 -0.0492
  789TIP3    H223783   5.539   0.432  11.873  0.3928 -0.4265  0.5044
  790TIP3   OH223784   0.867   5.293   1.213  0.0297 -0.0827 -0.2777
  790TIP3    H123785   0.808   5.365   1.191  0.5276  0.8481  1.3475
  790TIP3    H223786   0.949   5.314   1.168  0.7320  1.3070  1.5844
  791TIP3   OH223787   6.061   5.245  13.308  0.0814  0.0904  0.5653
  791TIP3    H123788   6.120   5.290  13.368 -0.7077  0.2623  1.2313
  791TIP3    H223789   6.107   5.164  13.285  1.3733  1.0818 -0.4108
  792TIP3   OH223790   3.601   5.899  12.545  0.3689  0.4409 -0.1598
  792TIP3    H123791   3.587   5.902  12.640  0.9549  1.0844 -0.0884
  792TIP3    H223792   3.678   5.842  12.535 -1.0246 -1.4312 -0.4069
  793TIP3   OH223793   3.617   5.988  17.127  0.4774  0.3549 -0.1813
  793TIP3    H123794   3.662   6.014  17.208 -0.7025  1.5163  0.1268
  793TIP3    H223795   3.553   5.923  17.155 -0.4729  1.3297 -0.0274
  794TIP3   OH223796   0.888   2.665   3.964 -0.6350 -0.2101 -0.1935
  794TIP3    H123797   0.838   2.626   3.892 -1.8088 -0.4403  0.7223
  794TIP3    H223798   0.930   2.742   3.926 -1.2984 -0.3013 -1.1144
  795TIP3   OH223799   4.485   3.008  13.046  0.0331 -0.6045  0.3633
  795TIP3    H123800   4.538   3.019  12.967 -0.0048  0.2668  0.4563
  795TIP3    H223801   4.403   3.054  13.027  0.3188  0.2766  1.1880
  796TIP3   OH223802   0.549   1.484  11.978 -0.0890  0.5547  0.0607
  796TIP3    H123803   0.544   1.460  11.886  1.2518 -3.2108  0.8698
  796TIP3    H223804   0.632   1.532  11.987 -0.7089  1.8262 -0.8149
  797TIP3   OH223805   4.315   1.646  13.614 -0.5578 -0.4346 -0.1146
  797TIP3    H123806   4.365   1.570  13.642 -1.9674 -1.2338  0.2571
  797TIP3    H223807   4.274   1.679  13.694 -1.6135 -0.5115 -0.6194
  798TIP3   OH223808   6.116   3.147   2.850  0.1592 -0.5112 -0.3936
  798TIP3    H123809   6.126   3.141   2.945 -2.1121 -3.4636 -0.2535
  798TIP3    H223810   6.193   3.101   2.815  0.2040 -0.7900  0.0722
  799TIP3   OH223811   1.891   5.632   3.310  0.1655  0.1874  0.7848
  799TIP3    H123812   1.797   5.647   3.316  0.1701  0.5123  0.1221
  799TIP3    H223813   1.929   5.694   3.372  0.0241  1.1039 -0.0258
  800TIP3   OH223814   3.538   4.092   2.937  0.5534  0.4708 -0.5518
  800TIP3    H123815   3.517   3.999   2.933  0.5397  0.4239  0.5500
  800TIP3    H223816   3.522   4.117   3.028 -2.8385  2.3437 -1.5524
  801TIP3   OH223817   4.486   5.964   0.134  0.4831 -0.2521 -0.2691
  801TIP3    H123818   4.428   5.941   0.061 -0.9805 -1.4244  1.2101
  801TIP3    H223819   4.515   6.054   0.114 -0.8608 -0.0958 -1.6650
  802TIP3   OH223820   1.088   4.200  13.706  0.0746  0.1268 -0.4420
  802TIP3    H123821   1.130   4.162  13.629  0.8411 -0.7372  0.3945
  802TIP3    H223822   1.085   4.129  13.770 -1.6111  0.5049 -0.0596
  803TIP3   OH223823   3.289   3.402   4.652 -0.3304 -0.1559  0.0160
  803TIP3    H123824   3.318   3.375   4.565  0.0681 -0.0038  0.0994
  803TIP3    H223825   3.370   3.412   4.702 -0.5456 -0.0254  0.3391
  804TIP3   OH223826   4.732   5.527  10.931 -0.1489 -0.0517  0.1014
  804TIP3    H123827   4.809   5.569  10.969  0.8183 -1.4474 -0.2848
  804TIP3    H223828   4.762   5.493  10.847 -1.3663 -0.0247 -0.3509
  805TIP3   OH223829   4.681   6.534   1.465  0.0079 -0.1343  0.2831
  805TIP3    H123830   4.673   6.625   1.436  1.1452 -0.2325 -0.3673
  805TIP3    H223831   4.682   6.483   1.384 -1.2296 -0.7789  0.6713
  806TIP3   OH223832   2.155   3.879  14.004  0.0037  0.7267  0.6368
  806TIP3    H123833   2.064   3.889  14.031 -0.4618  1.0152 -0.9678
  806TIP3    H223834   2.151   3.822  13.927  1.1626  0.8727  0.4567
  807TIP3   OH223835   3.236   0.781   1.515 -0.0778  0.0822 -0.0363
  807TIP3    H123836   3.269   0.823   1.436 -0.0642 -2.1161 -1.2415
  807TIP3    H223837   3.315   0.752   1.561 -0.1523 -0.2007 -0.0881
  808TIP3   OH223838   0.035   1.238   0.747 -0.2985  0.1495  0.6718
  808TIP3    H123839   0.014   1.175   0.816  0.8286  1.2795  2.0828
  808TIP3    H223840  -0.032   1.306   0.757  0.6121  0.9367  1.4803
  809TIP3   OH223841   6.421   3.596  11.377 -0.3829  0.1692 -0.2375
  809TIP3    H123842   6.447   3.654  11.449  1.3557 -1.4868  0.5252
  809TIP3    H223843   6.327   3.586  11.387 -0.5028  1.7381  0.4466
  810TIP3   OH223844   5.778   5.518   6.444 -0.2078 -0.2612  1.0242
  810TIP3    H123845   5.780   5.508   6.539 -1.2563  0.9569  1.1900
  810TIP3    H223846   5.703   5.576   6.427  0.3617  0.0747 -0.4856
  811TIP3   OH223847   1.973   5.006   1.677 -0.3454 -0.2997  0.6073
  811TIP3    H123848   1.939   5.062   1.607 -0.5902  0.4644  1.3344
  811TIP3    H223849   2.032   4.946   1.632  3.3910  3.3299  0.2888
  812TIP3   OH223850   3.401   2.119   2.738 -0.5372 -0.6412 -0.6553
  812TIP3    H123851   3.341   2.185   2.703  0.7668  0.5733 -0.6364
  812TIP3    H223852   3.438   2.077   2.660  0.6901  0.5410 -0.7266
  813TIP3   OH223853   0.696   4.708  16.401  0.6765  0.0824  0.0648
  813TIP3    H123854   0.764   4.770  16.426  0.0232  1.3856 -1.3682
  813TIP3    H223855   0.737   4.622  16.414  2.8553  0.8569 -1.4931
  814TIP3   OH223856   4.858   4.002   5.973  0.5345 -0.1280 -0.2903
  814TIP3    H123857   4.896   4.081   5.936  2.0672  1.5660  4.5010
  814TIP3    H223858   4.778   4.032   6.017  0.0423 -1.6180 -0.1367
  815TIP3   OH223859   6.738   1.410   6.110  0.0183 -0.0539 -0.1230
  815TIP3    H123860   6.686   1.490   6.103  0.0317  0.0208  0.5814
  815TIP3    H223861   6.692   1.357   6.177 -0.0769 -0.6959 -0.6885
  816TIP3   OH223862   5.511   5.475  14.231 -0.2103 -0.2724  1.0801
  816TIP3    H123863   5.567   5.406  14.193 -1.3023 -0.7793  0.3713
  816TIP3    H223864   5.509   5.543  14.164 -1.2511 -0.6932  0.6727
  817TIP3   OH223865   1.339   3.279   1.567  0.3501 -0.1746 -0.9478
  817TIP3    H123866   1.283   3.315   1.498  1.2758  1.1146 -1.0501
  817TIP3    H223867   1.315   3.328   1.646  1.9449  1.0392 -1.1902
  818TIP3   OH223868   0.349   1.845   5.658  0.2139  0.5557  0.2193
  818TIP3    H123869   0.425   1.788   5.647  0.6304  0.9945  0.7827
  818TIP3    H223870   0.357   1.910   5.588 -0.4131 -0.2284 -0.5992
  819TIP3   OH223871   3.532   4.536   6.431  0.5801 -0.2793 -0.3414
  819TIP3    H123872   3.439   4.557   6.436  0.1409 -2.2840  0.7237
  819TIP3    H223873   3.536   4.443   6.453  2.8532 -0.2027 -0.3242
  820TIP3   OH223874   0.959   6.387   5.027 -0.4127 -0.3932 -0.0072
  820TIP3    H123875   0.950   6.468   4.977  0.7760 -0.9574 -1.1855
  820TIP3    H223876   0.883   6.334   5.001  1.1254 -1.4087 -2.6814
  821TIP3   OH223877   1.704   1.931  12.947 -0.1524  0.0991 -0.5422
  821TIP3    H123878   1.655   1.889  12.877  0.2285  2.2075 -2.1106
  821TIP3    H223879   1.789   1.952  12.908 -0.7993  3.4850 -0.2331
  822TIP3   OH223880   5.669   0.228   4.461  0.0338 -0.0882 -0.1515
  822TIP3    H123881   5.691   0.272   4.544  0.8778  0.6279 -0.7344
  822TIP3    H223882   5.645   0.300   4.402  0.3307 -0.5034 -0.7847
  823TIP3   OH223883   5.433   1.757  14.173  0.3073 -0.2728  0.5305
  823TIP3    H123884   5.496   1.789  14.237  0.1253  0.7952  0.1942
  823TIP3    H223885   5.381   1.692  14.221  0.9649 -0.3801  1.1090
  824TIP3   OH223886   4.779   4.870   3.724 -0.1972  0.0348  0.3907
  824TIP3    H123887   4.786   4.800   3.788 -0.8598 -0.2704  0.1374
  824TIP3    H223888   4.702   4.920   3.751  0.1389  0.5254  0.4381
  825TIP3   OH223889   0.396   4.049  17.077  0.7479 -0.9250  0.2615
  825TIP3    H123890   0.311   4.010  17.056  0.3757 -0.9221  1.7011
  825TIP3    H223891   0.393   4.135  17.036  0.2116 -1.0751 -0.0237
  826TIP3   OH223892   6.550   5.244   1.491  0.6719  0.0068 -0.1528
  826TIP3    H123893   6.579   5.286   1.572  1.6438  0.5692 -0.7731
  826TIP3    H223894   6.606   5.283   1.423 -0.7698  0.2451 -1.2226
  827TIP3   OH223895   0.492   4.468   6.691  0.3959 -0.0388 -0.4432
  827TIP3    H123896   0.527   4.486   6.604  0.4156  0.5583 -0.3178
  827TIP3    H223897   0.565   4.485   6.751  1.7672 -4.8737 -0.6144
  828TIP3   OH223898   6.171   6.722   5.177  0.3232  0.1064  0.5846
  828TIP3    H123899   6.119   6.689   5.104  1.7759 -1.3262  0.1870
  828TIP3    H223900   6.113   6.714   5.253 -0.4151 -0.4703 -0.0308
  829TIP3   OH223901   1.647   1.093   5.925 -0.5686  1.0585 -0.1268
  829TIP3    H123902   1.742   1.079   5.931 -0.7000 -0.2480 -0.9716
  829TIP3    H223903   1.617   1.091   6.015 -0.1089 -0.8840 -0.0040
  830TIP3   OH223904   0.706   3.189  16.550  0.4977 -0.5383  0.1647
  830TIP3    H123905   0.759   3.186  16.471 -0.6182  0.1187 -0.6172
  830TIP3    H223906   0.714   3.101  16.587  2.0291 -0.4820  0.0012
  831TIP3   OH223907   3.797   3.078   1.842  0.3720 -0.3482  0.1442
  831TIP3    H123908   3.760   3.155   1.885  1.1698 -0.0603  0.3038
  831TIP3    H223909   3.764   3.004   1.893 -0.2370 -0.1087  0.1056
  832TIP3   OH223910   1.335   6.501   1.855  0.3817  0.4591  0.0140
  832TIP3    H123911   1.352   6.539   1.941 -1.9252  1.4616  0.0701
  832TIP3    H223912   1.311   6.410   1.873 -0.1413  0.6774  0.4556
  833TIP3   OH223913   4.294   3.521   0.129  0.0010  0.7231  0.5812
  833TIP3    H123914   4.376   3.478   0.152  0.4018  1.0046 -0.3168
  833TIP3    H223915   4.278   3.582   0.201  0.5549  0.6307  0.7821
  834TIP3   OH223916   5.855   1.796  13.433 -0.0337 -0.1005  0.1558
  834TIP3    H123917   5.923   1.861  13.452  0.2577 -0.4339  0.2469
  834TIP3    H223918   5.845   1.746  13.514 -0.9712  0.4791  0.4062
  835TIP3   OH223919   1.200   3.928  14.523 -0.1590 -0.1517  0.5476
  835TIP3    H123920   1.112   3.953  14.496  0.8134 -0.3825 -3.0810
  835TIP3    H223921   1.212   3.971  14.608 -2.6368  2.4216 -0.3286
  836TIP3   OH223922   0.660   4.147  16.504 -0.2716  0.0670 -0.1847
  836TIP3    H123923   0.698   4.220  16.455 -0.4651 -0.6814 -1.4663
  836TIP3    H223924   0.566   4.151  16.486 -0.4329  0.2016  0.6786
  837TIP3   OH223925   0.444   6.344  12.752  0.3095  0.4375  0.1020
  837TIP3    H123926   0.431   6.302  12.838  1.2482  3.4536  1.7941
  837TIP3    H223927   0.360   6.385  12.732  1.5061  4.1287  2.1478
  838TIP3   OH223928   4.896   1.785  16.101  0.0429 -0.3946  0.3767
  838TIP3    H123929   4.937   1.757  16.019 -1.1259 -1.3922  0.1154
  838TIP3    H223930   4.920   1.717  16.164 -2.2960 -1.7185 -0.1043
  839TIP3   OH223931   4.468   1.404  11.868  0.1118 -0.0761 -0.1114
  839TIP3    H123932   4.473   1.309  11.885  1.5381  0.0377  0.1414
  839TIP3    H223933   4.518   1.416  11.787 -0.7550  0.3626 -0.5894
  840TIP3   OH223934   6.157   6.655  14.180  0.0319 -0.0566 -0.3400
  840TIP3    H123935   6.153   6.750  14.191 -1.9154 -0.1194 -0.2607
  840TIP3    H223936   6.126   6.641  14.090 -0.4232 -0.6611 -0.0856
  841TIP3   OH223937   2.973   4.026  12.032 -0.0621  0.0054 -0.1002
  841TIP3    H123938   2.954   4.055  12.122 -0.8370 -1.0609  0.0918
  841TIP3    H223939   3.044   4.084  12.003  0.3863  0.1880  1.2945
  842TIP3   OH223940   0.874   3.204  11.696 -0.3747  0.5003 -0.2226
  842TIP3    H123941   0.820   3.131  11.727 -1.5633  1.0962 -0.8528
  842TIP3    H223942   0.962   3.184  11.727 -0.7380 -1.0792 -0.1839
  843TIP3   OH223943   5.236   0.747  12.108  0.5370  0.4379 -0.2317
  843TIP3    H123944   5.236   0.755  12.012  1.8262 -0.6082 -0.3342
  843TIP3    H223945   5.188   0.667  12.125 -0.7797  1.2796  0.0804
  844TIP3   OH223946   2.272   3.559  13.278  0.4612 -0.1227  0.5592
  844TIP3    H123947   2.294   3.636  13.225  1.8475  0.7017  2.3004
  844TIP3    H223948   2.179   3.571  13.298  0.6664  1.1048  0.8216
  845TIP3   OH223949   4.354   3.985  12.390 -0.7889  0.3226 -0.0277
  845TIP3    H123950   4.395   4.072  12.383 -0.0809 -0.0585 -0.7430
  845TIP3    H223951   4.401   3.931  12.326 -1.0117 -0.6744  0.6375
  846TIP3   OH223952   1.071   2.370  16.926 -0.3521 -0.5481 -0.4235
  846TIP3    H123953   1.121   2.320  16.991  0.1682 -0.8623 -1.0605
  846TIP3    H223954   0.992   2.397  16.972  0.5494  0.2213  0.7007
  847TIP3   OH223955   1.105   5.098  14.844 -0.5201  0.2981 -0.3727
  847TIP3    H123956   1.068   5.179  14.880  2.1565  1.0925  0.7177
  847TIP3    H223957   1.108   5.113  14.749 -2.6040  0.3318 -0.4648
  848TIP3   OH223958   1.281   1.349   4.125 -0.8264 -0.0485  0.3480
  848TIP3    H123959   1.199   1.389   4.095 -1.0853 -1.7192 -1.2877
  848TIP3    H223960   1.342   1.422   4.133 -1.8520  0.9366 -0.5869
  849TIP3   OH223961   0.183   2.122  16.366  0.1043 -0.2097 -0.0211
  849TIP3    H123962   0.190   2.217  16.371 -0.6587 -0.1805  0.4833
  849TIP3    H223963   0.091   2.103  16.384  0.5417 -1.1404  1.3257
  850TIP3   OH223964   4.836   1.209   1.123  0.2506 -0.3592  0.2292
  850TIP3    H123965   4.819   1.140   1.059  1.1447 -0.8550  0.5262
  850TIP3    H223966   4.930   1.227   1.115  0.2715 -0.0642  1.0430
  851TIP3   OH223967   2.700   0.538   1.261 -0.0178  0.0698  0.3325
  851TIP3    H123968   2.690   0.501   1.349  0.8315  0.1599  0.4699
  851TIP3    H223969   2.773   0.600   1.269  0.2198 -0.0982 -0.4915
  852TIP3   OH223970   6.756   5.831   4.691  0.0827  0.1285 -0.5477
  852TIP3    H123971   6.699   5.781   4.749  1.3511  0.5787  1.1143
  852TIP3    H223972   6.781   5.769   4.623 -0.9845 -0.5652 -0.3221
  853TIP3   OH223973   2.356   3.445   6.198 -0.0365 -0.0911  0.1198
  853TIP3    H123974   2.283   3.406   6.151  0.5938 -1.3362  0.1664
  853TIP3    H223975   2.315   3.498   6.266 -0.8755 -1.4620  0.6841
  854TIP3   OH223976   4.776   0.996  12.535 -0.2424  0.0582 -0.3444
  854TIP3    H123977   4.817   0.909  12.539  0.3185  0.2810 -1.1683
  854TIP3    H223978   4.846   1.056  12.557 -0.3073  0.3910 -1.0388
  855TIP3   OH223979   5.499   5.065   3.241 -0.6134 -0.6110  0.8310
  855TIP3    H123980   5.411   5.099   3.257  0.1251  0.8956  1.8300
  855TIP3    H223981   5.533   5.045   3.329 -0.2702 -1.9626  0.3929
  856TIP3   OH223982   5.935   1.563  16.788  0.4444  0.3070  0.1876
  856TIP3    H123983   5.981   1.558  16.704  0.5354  4.1422 -0.0629
  856TIP3    H223984   6.001   1.535  16.852  0.8630 -1.1274 -0.8358
  857TIP3   OH223985   0.750   5.219  12.854  0.4427  0.0061  0.6719
  857TIP3    H123986   0.832   5.227  12.902  0.0120  0.3350  1.3658
  857TIP3    H223987   0.689   5.179  12.917 -0.0244  0.1057  0.2872
  858TIP3   OH223988   4.740   1.614   1.538  0.1520 -0.0265  0.1880
  858TIP3    H123989   4.798   1.553   1.493  2.0424  1.3447  0.6858
  858TIP3    H223990   4.652   1.582   1.519  1.0748 -2.7963  0.3377
  859TIP3   OH223991   3.495   4.184   2.002  0.4036  0.1939  0.7043
  859TIP3    H123992   3.506   4.246   2.074 -0.2626 -0.3329  1.2584
  859TIP3    H223993   3.422   4.220   1.951 -0.2780 -0.3623  1.2749
  860TIP3   OH223994   6.509   6.473   4.991  0.6327 -0.1189 -0.2111
  860TIP3    H123995   6.596   6.473   4.950  0.3589  0.1229 -0.8008
  860TIP3    H223996   6.454   6.523   4.931  0.0516 -0.3812  0.0940
  861TIP3   OH223997   5.374   0.912   2.886 -0.8766 -0.4364  0.3541
  861TIP3    H123998   5.302   0.931   2.826 -0.7050  1.6162  0.7362
  861TIP3    H223999   5.440   0.870   2.831 -1.6007 -0.5942 -0.4153
  862TIP3   OH224000   0.114   2.243   0.357 -0.3180  0.2483  0.0407
  862TIP3    H124001   0.023   2.221   0.376 -0.2050  0.6520  1.0531
  862TIP3    H224002   0.113   2.336   0.336 -0.2835  0.0350 -0.9428
  863TIP3   OH224003   5.493   6.529   2.865 -0.2019  0.1553 -0.2665
  863TIP3    H124004   5.452   6.443   2.876 -1.2036  0.5575 -0.8287
  863TIP3    H224005   5.424   6.584   2.829  1.2014  0.4950 -2.5095
  864TIP3   OH224006   2.724   5.306  16.945  0.2629 -0.1450  0.0107
  864TIP3    H124007   2.655   5.368  16.968  2.9394  2.7643  0.4605
  864TIP3    H224008   2.732   5.313  16.849  0.2234 -0.1683  0.0064
  865TIP3   OH224009   2.586   1.272  11.860 -0.2655  0.1615 -0.5392
  865TIP3    H124010   2.539   1.281  11.943  0.3658  0.8575 -0.2491
  865TIP3    H224011   2.580   1.359  11.821  0.5894  0.1910 -0.6043
  866TIP3   OH224012   6.346   5.786  16.649  0.1976 -0.2985 -0.7262
  866TIP3    H124013   6.338   5.691  16.661 -2.4281  0.0921  0.9028
  866TIP3    H224014   6.340   5.822  16.738 -3.7123  1.6814 -1.6873
  867TIP3   OH224015   3.912   0.944   2.637  0.3193  0.1175  0.0148
  867TIP3    H124016   3.839   0.951   2.575 -0.0854 -0.9631  0.3659
  867TIP3    H224017   3.978   1.005   2.603 -0.0399 -0.2048 -1.2821
  868TIP3   OH224018   2.473   3.253   0.029 -0.4812 -0.8246 -0.2283
  868TIP3    H124019   2.471   3.157   0.034 -0.6656 -0.8106 -0.0222
  868TIP3    H224020   2.476   3.282   0.120  1.3009 -0.6572 -0.3286
  869TIP3   OH224021   5.472   3.922   3.544  0.0333 -0.6554  0.0302
  869TIP3    H124022   5.404   3.905   3.609  1.0667  0.8341  1.5355
  869TIP3    H224023   5.554   3.908   3.591  0.8004  0.6059 -0.9180
  870TIP3   OH224024   1.212   2.586  17.020 -0.1958 -0.0627  0.4411
  870TIP3    H124025   1.291   2.543  17.053 -0.2722 -0.7403 -0.2452
  870TIP3    H224026   1.168   2.519  16.967  0.1977  1.1834 -1.5044
  871TIP3   OH224027   1.463   1.794  17.220  0.9412 -0.6540 -0.5005
  871TIP3    H124028   1.508   1.872  17.187  0.2691 -0.7787 -1.7448
  871TIP3    H224029   1.482   1.726  17.156 -0.7955 -0.7728 -0.9289
  872TIP3   OH224030   3.019   5.348  16.903 -0.2687 -0.1020 -0.1230
  872TIP3    H124031   2.935   5.382  16.872  0.0238 -0.6042 -1.5303
  872TIP3    H224032   3.015   5.355  16.998 -1.3607  1.1455 -0.2503
  873TIP3   OH224033   5.229   5.442   0.354  0.5520  0.1770 -0.8096
  873TIP3    H124034   5.232   5.514   0.417 -1.1969  1.2832 -1.9287
  873TIP3    H224035   5.227   5.363   0.408 -0.8356  1.0950  0.5404
  874TIP3   OH224036   5.511   0.373  15.432  0.0489 -0.1190  0.3115
  874TIP3    H124037   5.581   0.414  15.482 -0.4639 -0.9956  1.7840
  874TIP3    H224038   5.531   0.279  15.433 -0.6262 -0.2762 -0.0651
  875TIP3   OH224039   2.184   0.013  11.342 -0.3749 -0.1675  0.1044
  875TIP3    H124040   2.237   0.092  11.354 -0.9124  0.2369 -0.1390
  875TIP3    H224041   2.247  -0.059  11.344  0.2245  0.3292 -0.4736
  876TIP3   OH224042   3.619   2.470   4.556  0.5163  0.1149 -0.5791
  876TIP3    H124043   3.708   2.502   4.566  0.0712  1.3185 -0.4328
  876TIP3    H224044   3.563   2.541   4.587 -0.4183 -1.7655  2.2904
  877TIP3   OH224045   5.586   1.517   3.147 -0.0785 -0.1870  0.1656
  877TIP3    H124046   5.512   1.489   3.200  0.0082  0.1341  0.4612
  877TIP3    H224047   5.577   1.469   3.064 -0.1415 -0.7900  0.5185
  878TIP3   OH224048   6.207   0.902  13.892  0.3175 -0.7634  0.1588
  878TIP3    H124049   6.113   0.919  13.894 -0.0846 -2.9111  0.2027
  878TIP3    H224050   6.239   0.951  13.816 -1.2005 -1.7483 -1.1498
  879TIP3   OH224051   2.749   4.343   5.063  0.1702 -0.4018  0.6561
  879TIP3    H124052   2.734   4.257   5.104  1.6229 -0.6786  0.6437
  879TIP3    H224053   2.720   4.406   5.128 -1.0331 -0.8965  0.6189
  880TIP3   OH224054   5.830   0.187  15.741  0.5358  0.3401 -0.1577
  880TIP3    H124055   5.883   0.212  15.817  0.2540  0.6900 -0.0751
  880TIP3    H224056   5.830   0.265  15.685 -2.2253  1.3639  1.1603
  881TIP3   OH224057   6.065   0.026  17.024 -0.0608  0.2185 -0.3425
  881TIP3    H124058   6.084  -0.065  17.044 -0.3758  0.3305  0.5204
  881TIP3    H224059   6.013   0.024  16.944  2.9485 -0.1314 -2.3781
  882TIP3   OH224060   5.740   1.118   1.853  0.2078 -0.6137 -0.0217
  882TIP3    H124061   5.752   1.072   1.936  1.1602 -0.4184 -0.0438
  882TIP3    H224062   5.759   1.210   1.873  0.8723 -0.6317 -0.5505
  883TIP3   OH224063   0.626   0.434   1.263 -0.2396  0.8531 -0.4164
  883TIP3    H124064   0.669   0.414   1.180 -0.2470 -2.8275  0.3975
  883TIP3    H224065   0.688   0.489   1.310  2.2403 -1.7259 -0.5715
  884TIP3   OH224066   5.455   3.842  16.253  0.3146  0.2152  0.0630
  884TIP3    H124067   5.386   3.828  16.188 -0.1918  0.4726  0.5388
  884TIP3    H224068   5.534   3.861  16.202  0.1341 -0.5343 -0.4919
  885TIP3   OH224069   0.037   5.617   2.548 -0.6139 -0.0368 -0.5744
  885TIP3    H124070   0.014   5.526   2.527  0.1790 -0.1463 -0.9797
  885TIP3    H224071   0.095   5.644   2.477 -0.4047  0.6074 -0.1581
  886TIP3   OH224072   4.717   6.758  14.287 -0.1632 -0.1282 -0.4021
  886TIP3    H124073   4.742   6.666  14.295 -2.7335 -0.8592 -0.3755
  886TIP3    H224074   4.754   6.800  14.365 -0.6569 -1.5377  0.6151
  887TIP3   OH224075   5.016   4.359   0.857  0.1256 -0.5677 -0.6424
  887TIP3    H124076   5.004   4.265   0.843  0.0466 -0.7753  0.7487
  887TIP3    H224077   4.929   4.391   0.880  0.0658 -0.0661 -1.5360
  888TIP3   OH224078   4.624   1.799  15.228 -0.0505 -0.2480 -0.5719
  888TIP3    H124079   4.714   1.774  15.251  0.3363 -0.3800 -2.1651
  888TIP3    H224080   4.570   1.727  15.260  0.4548 -0.3718  0.0134
  889TIP3   OH224081   0.152   2.691  13.898 -0.2270  0.7408 -0.4216
  889TIP3    H124082   0.121   2.728  13.980  0.0085 -0.0019  0.0083
  889TIP3    H224083   0.083   2.631  13.871 -0.5226  1.3517 -1.0150
  890TIP3   OH224084   1.897   4.058   5.082 -0.6063  0.1295  0.5266
  890TIP3    H124085   1.919   4.113   5.158  1.5807  1.8223 -1.2433
  890TIP3    H224086   1.918   4.113   5.007 -2.3320 -1.6851 -1.3210
  891TIP3   OH224087   6.125   3.974  16.666  0.3414 -0.2975  0.0122
  891TIP3    H124088   6.202   3.940  16.622  1.4725  0.5332  1.3082
  891TIP3    H224089   6.076   3.896  16.692  0.6609 -0.8237 -0.9287
  892TIP3   OH224090   1.762   5.382  16.347  0.4229 -0.3613 -0.3216
  892TIP3    H124091   1.736   5.396  16.256 -1.1919 -1.0932  0.0156
  892TIP3    H224092   1.753   5.468  16.388 -0.3863 -0.3611 -0.4877
  893TIP3   OH224093   4.348   1.357  12.581  0.3383 -0.1242 -0.0668
  893TIP3    H124094   4.432   1.323  12.612 -0.5931 -2.3155  0.1601
  893TIP3    H224095   4.365   1.384  12.491  1.7540  1.2977  0.6123
  894TIP3   OH224096   6.457   5.277  13.698 -0.1770  0.1600  0.5602
  894TIP3    H124097   6.432   5.368  13.683 -0.8110 -0.0624  0.1948
  894TIP3    H224098   6.541   5.281  13.743 -0.2556  0.9254  0.6408
  895TIP3   OH224099   3.520   2.596   5.655  0.0090  0.2617 -0.5563
  895TIP3    H124100   3.533   2.688   5.679 -2.4522  0.7249 -0.9434
  895TIP3    H224101   3.451   2.597   5.589 -1.4737 -2.0359  0.8792
  896TIP3   OH224102   1.963   0.699  10.997  0.2883  0.0489 -0.2823
  896TIP3    H124103   2.010   0.781  11.011 -2.3878  1.5731  0.1615
  896TIP3    H224104   2.008   0.636  11.052  1.6291  1.5067  0.3480
  897TIP3   OH224105   1.165   5.786   6.202 -0.2614  0.2861 -0.3865
  897TIP3    H124106   1.151   5.702   6.246  0.1739  1.2090  1.5920
  897TIP3    H224107   1.220   5.765   6.127  0.9211 -1.0080  0.8193
  898TIP3   OH224108   4.552   1.906  15.528  0.3942  0.0165  0.3957
  898TIP3    H124109   4.486   1.914  15.459  1.8663 -1.2079 -1.2113
  898TIP3    H224110   4.622   1.965  15.499  0.3932  0.6263  1.6225
  899TIP3   OH224111   5.776   1.278   3.983 -0.2119 -0.3908  0.0259
  899TIP3    H124112   5.690   1.300   4.018 -0.1393 -0.1401  0.0514
  899TIP3    H224113   5.762   1.269   3.888 -0.1191  0.3979 -0.0641
  900TIP3   OH224114   4.248   1.026   4.892  0.0713  0.4656  0.7063
  900TIP3    H124115   4.237   0.932   4.876 -0.9603  0.4643  1.4114
  900TIP3    H224116   4.163   1.055   4.924  0.6222  1.4862  1.2451
  901TIP3   OH224117   5.139   0.814   2.089  0.2525 -0.4463 -0.3393
  901TIP3    H124118   5.159   0.732   2.133  1.8425 -0.5024 -1.1429
  901TIP3    H224119   5.195   0.879   2.133 -0.2540  0.0191 -0.3779
  902TIP3   OH224120   3.465   5.400  12.496 -0.1832  0.0254 -0.0167
  902TIP3    H124121   3.392   5.390  12.436  0.7989  0.3359 -1.2757
  902TIP3    H224122   3.459   5.323  12.553 -0.7150 -0.6286 -0.9365
  903TIP3   OH224123   4.798   0.231   4.906 -0.9295  0.2993 -0.3546
  903TIP3    H124124   4.790   0.135   4.908 -1.2607  0.3364  2.4587
  903TIP3    H224125   4.855   0.249   4.832 -0.8147 -2.0914 -0.8859
  904TIP3   OH224126   0.600   4.113  16.159  0.2283 -0.1719 -0.3349
  904TIP3    H124127   0.684   4.072  16.141  0.2998 -0.1091 -0.1481
  904TIP3    H224128   0.593   4.184  16.097  1.9621  2.1363  2.0161
  905TIP3   OH224129   0.751   5.224  16.879 -0.3067  0.6480  0.4043
  905TIP3    H124130   0.729   5.213  16.787  1.4204 -1.7280  0.2253
  905TIP3    H224131   0.800   5.144  16.902 -0.0322  1.5432  3.1565
  906TIP3   OH224132   1.088   6.336  15.536 -0.3258 -0.1065 -0.3487
  906TIP3    H124133   1.007   6.312  15.581  0.2744  0.6960  1.2193
  906TIP3    H224134   1.128   6.402  15.593  1.1313 -0.0568 -1.4031
  907TIP3   OH224135   1.298   4.742   4.426 -0.0977 -0.2197  0.2784
  907TIP3    H124136   1.229   4.680   4.404  1.5182 -2.8565  2.3251
  907TIP3    H224137   1.277   4.770   4.515 -0.4283  1.7035 -0.3771
  908TIP3   OH224138   2.442   3.609  12.885  0.0974 -0.3826  0.2338
  908TIP3    H124139   2.455   3.514  12.877  1.1564 -0.3288  1.2066
  908TIP3    H224140   2.350   3.618  12.907  0.2745 -1.2755  1.4116
  909TIP3   OH224141   0.185   0.604  12.524 -0.7389 -0.3810 -0.0922
  909TIP3    H124142   0.168   0.565  12.438  0.8221 -0.2258 -0.4878
  909TIP3    H224143   0.177   0.698  12.510 -1.3203 -0.4006  0.1224
  910TIP3   OH224144   5.732   3.965   2.379 -0.1678  0.1195  0.3289
  910TIP3    H124145   5.664   4.021   2.417 -0.5835  2.1095 -3.0981
  910TIP3    H224146   5.703   3.876   2.397 -2.3586  0.9724  1.2206
  911TIP3   OH224147   5.959   0.958   5.435 -0.3645 -0.4623 -0.3321
  911TIP3    H124148   5.998   1.038   5.470  1.1950 -0.8979 -1.0528
  911TIP3    H224149   5.928   0.910   5.512  1.2092 -0.4616  0.3146
  912TIP3   OH224150   0.723   4.258  12.337  0.3095  0.0369 -0.1188
  912TIP3    H124151   0.673   4.327  12.381  0.5274 -0.2444  0.5752
  912TIP3    H224152   0.730   4.188  12.402  1.8516  0.1822 -0.1096
  913TIP3   OH224153   2.620   4.674   6.588  0.4450 -0.1879  0.0767
  913TIP3    H124154   2.577   4.639   6.666 -0.4401  0.6897 -0.0101
  913TIP3    H224155   2.556   4.734   6.550  0.4641 -1.3763 -1.9040
  914TIP3   OH224156   3.542   6.567  14.922 -0.1955  0.6746  0.1982
  914TIP3    H124157   3.585   6.652  14.936  0.5980  0.1839  0.7520
  914TIP3    H224158   3.462   6.589  14.874 -0.7751  1.9184  1.6801
  915TIP3   OH224159   0.457   1.993  16.323  0.1692 -0.0304 -0.1757
  915TIP3    H124160   0.443   1.943  16.403 -0.2257 -1.5049 -1.1365
  915TIP3    H224161   0.377   2.043  16.311 -0.1123 -0.4484 -0.0809
  916TIP3   OH224162   1.120   4.434  11.180  0.2877  0.0460  0.2647
  916TIP3    H124163   1.145   4.505  11.239  1.2679 -0.9980  1.1268
  916TIP3    H224164   1.149   4.355  11.225  0.5233 -0.7999 -1.3696
  917TIP3   OH224165   1.268   4.861  12.361  0.3367  0.1703 -0.6278
  917TIP3    H124166   1.317   4.861  12.443  0.1957  0.9724 -0.5441
  917TIP3    H224167   1.310   4.929  12.308 -0.1911  0.3165 -0.8559
  918TIP3   OH224168   1.394   0.229   5.355 -0.1364  0.0078 -0.3177
  918TIP3    H124169   1.328   0.223   5.424 -1.0128 -1.5436 -1.2726
  918TIP3    H224170   1.471   0.186   5.392  0.3740  1.7920  0.7831
  919TIP3   OH224171   2.155   2.046   5.998  0.3885 -0.0048 -0.0726
  919TIP3    H124172   2.078   2.055   6.054  0.3174  1.0207 -0.3258
  919TIP3    H224173   2.226   2.089   6.047  0.9719 -1.5586  0.4763
  920TIP3   OH224174   4.842   3.332  13.232 -0.6420 -0.2423  0.1938
  920TIP3    H124175   4.858   3.238  13.227 -2.3799 -0.5485  0.4148
  920TIP3    H224176   4.929   3.370  13.250 -0.0775 -1.8465  0.8990
  921TIP3   OH224177   6.717   4.635  14.746  0.4098 -0.2076  0.1721
  921TIP3    H124178   6.773   4.619  14.822 -0.1955  0.4943  0.7704
  921TIP3    H224179   6.760   4.707  14.699  0.3427 -0.0845  0.2991
  922TIP3   OH224180   6.380   1.500  14.224 -0.3911  0.0852  0.1321
  922TIP3    H124181   6.367   1.594  14.209 -1.6641 -0.2842 -1.2140
  922TIP3    H224182   6.475   1.489  14.228 -0.2132  1.2929 -0.6546
  923TIP3   OH224183   0.715   0.472  13.950  0.4571 -0.8355 -0.1319
  923TIP3    H124184   0.707   0.550  13.896 -1.8107 -0.4339  0.7459
  923TIP3    H224185   0.809   0.460  13.962  0.8178  1.8791 -0.0845
  924TIP3   OH224186   0.247   0.439  13.689  0.3070 -0.5753 -0.4938
  924TIP3    H124187   0.239   0.374  13.759  3.2097 -0.2955  0.1402
  924TIP3    H224188   0.289   0.392  13.617  1.9639  0.4632 -0.2104
  925TIP3   OH224189   0.284   1.583  14.623  0.3574 -0.1627  0.1110
  925TIP3    H124190   0.355   1.525  14.650  2.3907  1.4415 -1.5628
  925TIP3    H224191   0.321   1.671  14.632 -0.3056  0.5826 -3.6959
  926TIP3   OH224192   4.560   6.123   3.391  0.0414 -0.0870  0.5619
  926TIP3    H124193   4.530   6.088   3.308 -0.1027 -0.8651  0.9369
  926TIP3    H224194   4.598   6.208   3.369  2.3558 -1.4015 -0.6720
  927TIP3   OH224195   1.172   0.128  17.006  0.1316 -0.3710 -0.1482
  927TIP3    H124196   1.078   0.124  16.990 -0.3081  1.0336  1.7993
  927TIP3    H224197   1.191   0.222  17.010  0.4824 -0.5105  5.1537
  928TIP3   OH224198   0.969   3.722  13.167 -0.3524  0.0140 -0.0890
  928TIP3    H124199   0.956   3.696  13.076  0.4414 -1.5661  0.2280
  928TIP3    H224200   0.896   3.682  13.214  0.8238 -1.6745  0.3853
  929TIP3   OH224201   6.129   4.745   3.940 -0.1189 -0.4293 -0.1640
  929TIP3    H124202   6.045   4.708   3.966  0.4218 -1.6787 -0.1537
  929TIP3    H224203   6.177   4.757   4.023  0.1081 -0.7040 -0.2545
  930TIP3   OH224204   1.420   6.643  16.907 -0.2042  0.0823 -0.2190
  930TIP3    H124205   1.509   6.666  16.882  0.9820 -1.2356  2.4897
  930TIP3    H224206   1.401   6.699  16.982  0.1543 -2.7790  2.1149
  931TIP3   OH224207   0.051   4.676   0.541  0.2464 -0.1510  0.0808
  931TIP3    H124208  -0.030   4.628   0.524 -1.8103  1.9467  3.4994
  931TIP3    H224209   0.060   4.734   0.465 -1.1017 -0.8851 -0.6634
  932TIP3   OH224210   4.529   4.622   0.326 -0.4110  0.0796  0.1648
  932TIP3    H124211   4.513   4.637   0.420  1.1111  0.0867  0.4413
  932TIP3    H224212   4.550   4.528   0.320  0.1728  0.2197 -0.0558
  933TIP3   OH224213   5.735   3.990   5.187  0.2899  0.1763 -0.1746
  933TIP3    H124214   5.807   4.053   5.194  0.2930  0.2228 -0.5821
  933TIP3    H224215   5.688   4.016   5.107 -1.8408  1.8343  1.5639
  934TIP3   OH224216   1.079   4.711  15.522  0.1186  0.2139  0.2878
  934TIP3    H124217   1.007   4.766  15.552 -1.4708 -0.7144 -1.6750
  934TIP3    H224218   1.130   4.767  15.463 -0.0377  0.3248  0.2604
  935TIP3   OH224219   6.151   4.115  13.225 -0.1919 -0.3213  0.0151
  935TIP3    H124220   6.232   4.095  13.273 -0.2701  1.6792  1.0649
  935TIP3    H224221   6.082   4.073  13.276  0.0099 -0.5388  0.1091
  936TIP3   OH224222   1.757   1.264  15.749 -0.0939  0.8397 -0.4747
  936TIP3    H124223   1.843   1.231  15.721 -0.5332 -0.5942 -0.1859
  936TIP3    H224224   1.737   1.334  15.687  0.7869  0.4405 -1.2230
  937TIP3   OH224225   4.701   6.418  17.155 -0.2276  0.0920 -0.2737
  937TIP3    H124226   4.702   6.377  17.068 -1.7521  2.1854 -1.3098
  937TIP3    H224227   4.777   6.476  17.155 -0.8325  0.8917 -0.6183
  938TIP3   OH224228   1.729   3.874   4.010 -0.2665  0.0112 -0.3301
  938TIP3    H124229   1.691   3.907   4.091  0.0336  0.3407 -0.3255
  938TIP3    H224230   1.790   3.942   3.982  0.9439 -0.8837  0.1053
  939TIP3   OH224231   4.464   3.942  16.238  0.4734  0.7275  0.1818
  939TIP3    H124232   4.521   3.916  16.166 -1.2820  0.0687 -1.0031
  939TIP3    H224233   4.427   3.859  16.271 -1.3640  1.2828 -0.4162
  940TIP3   OH224234   5.192   3.759   5.970  0.3012 -0.1576 -0.2393
  940TIP3    H124235   5.278   3.742   6.010  0.6198 -0.0800 -0.8754
  940TIP3    H224236   5.213   3.787   5.881 -0.3108  1.3135  0.0585
  941TIP3   OH224237   5.011   0.642   2.602  0.2191 -0.6673  0.0782
  941TIP3    H124238   4.945   0.699   2.641  1.7714  0.6866  0.7887
  941TIP3    H224239   4.973   0.554   2.606 -1.4487  0.0613  0.6322
  942TIP3   OH224240   3.764   1.909   3.007 -0.2738 -0.2127 -0.2316
  942TIP3    H124241   3.852   1.903   3.044 -0.5970  2.1669  1.0127
  942TIP3    H224242   3.707   1.922   3.083 -1.5354 -0.2669 -1.1524
  943TIP3   OH224243   0.379   1.896   0.186 -0.0284 -0.0526  0.2081
  943TIP3    H124244   0.375   1.988   0.213  0.9402  0.3048 -0.8220
  943TIP3    H224245   0.374   1.899   0.090  2.5303 -0.8935  0.0208
  944TIP3   OH224246   1.196   1.711   0.601  0.0410 -0.1704  0.0832
  944TIP3    H124247   1.263   1.652   0.636  0.0971 -0.3484 -0.3244
  944TIP3    H224248   1.243   1.793   0.583  0.1487 -0.3004 -0.2175
  945TIP3   OH224249   4.324   4.065   0.038  0.0959  0.0980  0.0517
  945TIP3    H124250   4.293   4.057   0.129  0.0990  0.4552  0.0823
  945TIP3    H224251   4.376   3.986   0.025 -0.1978 -0.1302  0.2459
  946TIP3   OH224252   2.885   3.366   3.256  0.0607 -0.2504 -0.3279
  946TIP3    H124253   2.915   3.448   3.295 -1.6903  0.8006 -1.1007
  946TIP3    H224254   2.819   3.393   3.192  0.8965 -2.1217 -2.0376
  947TIP3   OH224255   2.388   6.638  17.224  0.1574 -0.8926  0.3654
  947TIP3    H124256   2.397   6.732  17.243  1.6877 -0.9217 -0.1441
  947TIP3    H224257   2.295   6.626  17.208 -0.0791  0.5216  0.5990
  948TIP3   OH224258   6.466   1.328  14.572  0.2995  0.1579 -0.6881
  948TIP3    H124259   6.557   1.332  14.601  0.0987  0.1656 -0.0520
  948TIP3    H224260   6.419   1.287  14.645 -0.3283  0.7958 -0.7319
  949TIP3   OH224261   0.826   5.692  10.875 -0.0531 -0.5096  0.3507
  949TIP3    H124262   0.753   5.717  10.819  1.3655  0.8029 -0.9431
  949TIP3    H224263   0.815   5.597  10.887 -2.1737 -0.2824  0.5121
  950TIP3   OH224264   3.263   1.513  13.116 -0.3287 -0.0027 -0.4066
  950TIP3    H124265   3.290   1.573  13.046  0.6681 -2.5528 -2.2685
  950TIP3    H224266   3.327   1.526  13.185 -0.2173  1.1875 -0.7214
  951TIP3   OH224267   4.414   4.193   2.511  0.7366  0.2985 -0.0671
  951TIP3    H124268   4.432   4.280   2.476 -1.4296  0.8660  0.1620
  951TIP3    H224269   4.333   4.203   2.561  0.5074 -1.8329  0.0480
  952TIP3   OH224270   1.790   0.606   5.500 -0.2664 -0.3978 -0.2085
  952TIP3    H124271   1.834   0.581   5.581  1.1245 -1.5480 -1.2967
  952TIP3    H224272   1.697   0.595   5.519  0.0528 -0.7655  1.1857
  953TIP3   OH224273   6.151   0.688   6.087 -0.3304  0.7437 -0.0274
  953TIP3    H124274   6.129   0.600   6.058 -0.7705  0.8119  0.0879
  953TIP3    H224275   6.070   0.738   6.075  0.5136  1.6730 -2.1565
  954TIP3   OH224276   5.343   0.351  12.353  0.2827  0.1393  0.1378
  954TIP3    H124277   5.348   0.293  12.277  0.8809 -2.3554  2.0098
  954TIP3    H224278   5.249   0.356  12.374  0.2428 -0.2488  0.0422
  955TIP3   OH224279   6.663   3.025   6.467  0.0915 -0.4898 -0.1027
  955TIP3    H124280   6.617   3.104   6.437  1.6790  0.7172  0.5908
  955TIP3    H224281   6.593   2.971   6.505 -1.4579 -0.7004 -3.1066
  956TIP3   OH224282   1.778   3.399  14.550 -0.0014 -0.0896  0.6935
  956TIP3    H124283   1.862   3.358  14.570 -0.1791 -0.3166  0.9762
  956TIP3    H224284   1.776   3.403  14.454 -0.0051 -0.7896  0.6614
  957TIP3   OH224285   4.973   3.948  11.578 -0.4335  0.9210 -0.5558
  957TIP3    H124286   5.025   3.974  11.501 -0.3950  0.0578 -0.8179
  957TIP3    H224287   4.883   3.967  11.553 -0.4246  0.5922 -0.8297
  958TIP3   OH224288   2.094   1.115   2.999 -0.6138  0.2524  0.3105
  958TIP3    H124289   2.006   1.109   3.036 -0.6054  0.5875  0.3904
  958TIP3    H224290   2.112   1.028   2.963 -1.3663  0.4533 -0.5763
  959TIP3   OH224291   0.426   2.936  11.356  0.4361  0.4992  0.8540
  959TIP3    H124292   0.399   2.961  11.268  2.7507  1.5966  0.4160
  959TIP3    H224293   0.344   2.929  11.405 -0.9084 -0.6183 -1.4869
  960TIP3   OH224294   0.011   1.076   4.107  0.1259 -0.5651 -0.1502
  960TIP3    H124295   0.088   1.032   4.142  1.0960  0.7939 -0.5647
  960TIP3    H224296   0.044   1.129   4.035 -1.1692  0.2032 -0.1942
  961TIP3   OH224297   1.429   1.450   4.440 -0.2827 -0.3420 -0.0503
  961TIP3    H124298   1.377   1.375   4.470  0.2594 -0.4427  0.6269
  961TIP3    H224299   1.514   1.412   4.417 -0.3118 -0.0787 -0.5993
  962TIP3   OH224300   4.498   1.131   4.939  0.2271 -0.8871 -0.2241
  962TIP3    H124301   4.535   1.057   4.987 -1.1798 -0.5580  1.4092
  962TIP3    H224302   4.416   1.099   4.904 -0.9999  0.2172  1.5437
  963TIP3   OH224303   5.415   5.699  10.423  0.1709 -0.3251  0.0984
  963TIP3    H124304   5.336   5.732  10.382  0.4077 -0.3717 -0.3937
  963TIP3    H224305   5.403   5.604  10.428  1.4468 -0.6826 -2.6802
  964TIP3   OH224306   2.108   4.627  13.641 -0.6448  0.0471 -0.1559
  964TIP3    H124307   2.159   4.556  13.603 -0.6686  0.7350 -1.4940
  964TIP3    H224308   2.075   4.591  13.724  0.8030 -0.8892  0.0406
  965TIP3   OH224309   5.952   1.317   3.021  0.0249 -0.3365  0.1143
  965TIP3    H124310   6.041   1.344   2.997  0.9751 -2.7118  0.8133
  965TIP3    H224311   5.896   1.354   2.953  1.5391  1.2559 -0.2969
  966TIP3   OH224312   1.929   2.643   2.977 -0.0332  0.2215  0.1519
  966TIP3    H124313   1.890   2.568   2.932 -0.7503  1.5895 -1.5631
  966TIP3    H224314   1.861   2.672   3.037 -1.6714  2.4623 -2.6719
  967TIP3   OH224315   1.549   0.695  13.589 -0.4905  0.9855  0.2606
  967TIP3    H124316   1.455   0.687  13.572 -0.7989  2.3282  1.2005
  967TIP3    H224317   1.556   0.690  13.685  0.5881 -0.8505  0.1058
  968TIP3   OH224318   4.228   3.953  15.879  0.0700 -0.3295 -0.4511
  968TIP3    H124319   4.138   3.951  15.911  1.3360  3.0124  3.7282
  968TIP3    H224320   4.262   3.865  15.898 -1.1738 -0.4058  1.5809
  969TIP3   OH224321   3.394   6.707   3.933  0.3164 -0.7175  0.1536
  969TIP3    H124322   3.307   6.697   3.895  0.2154 -1.7163  0.6238
  969TIP3    H224323   3.445   6.636   3.893  0.8426 -0.3065  0.0912
  970TIP3   OH224324   1.324   3.329  16.581 -0.2859  0.8037  0.2369
  970TIP3    H124325   1.277   3.316  16.498 -2.7309  2.6557  1.2492
  970TIP3    H224326   1.329   3.424  16.590  2.5664  0.6333  0.8333
  971TIP3   OH224327   3.502   1.163  14.058 -0.4290 -0.6145  0.4457
  971TIP3    H124328   3.425   1.106  14.073 -0.8410  0.6951  3.7144
  971TIP3    H224329   3.473   1.223  13.990 -1.5616 -1.4884  0.1188
  972TIP3   OH224330   0.287   6.454  15.225 -0.5088  0.3249 -0.3273
  972TIP3    H124331   0.212   6.504  15.193 -0.9769 -0.5594 -0.6282
  972TIP3    H224332   0.362   6.495  15.182 -0.7460  1.6395  0.5023
  973TIP3   OH224333   1.225   4.058  13.500  0.4633 -0.1599 -0.2772
  973TIP3    H124334   1.138   4.029  13.471  1.2396 -2.6039 -0.2435
  973TIP3    H224335   1.286   4.001  13.453  1.9541 -0.0529  1.4903
  974TIP3   OH224336   5.941   5.538  14.720 -0.1947 -0.1857  0.4235
  974TIP3    H124337   5.869   5.487  14.755 -1.4018  1.5054  0.4610
  974TIP3    H224338   6.002   5.546  14.793 -0.0974 -1.3496  0.4821
  975TIP3   OH224339   1.699   4.276  14.178  0.1517  0.0081 -0.0356
  975TIP3    H124340   1.683   4.229  14.259 -2.4957  0.8153 -0.0590
  975TIP3    H224341   1.792   4.261  14.159  0.5472 -1.0071  2.5907
  976TIP3   OH224342   1.153   4.252  10.625  0.2309 -0.4027  0.0838
  976TIP3    H124343   1.082   4.215  10.678 -0.7936  0.9458 -0.3203
  976TIP3    H224344   1.232   4.207  10.655 -1.0506 -3.2801 -0.7600
  977TIP3   OH224345   5.795   4.546  14.838  0.4079 -0.0099 -0.7380
  977TIP3    H124346   5.799   4.453  14.814  2.4401  0.2554 -1.5432
  977TIP3    H224347   5.800   4.592  14.754  1.6562  0.8529 -0.2063
  978TIP3   OH224348   3.034   5.406   4.387 -0.0810 -0.0116  0.2271
  978TIP3    H124349   2.974   5.337   4.413 -0.0299  0.7740  2.5847
  978TIP3    H224350   2.991   5.487   4.414  1.9639  0.5647  1.9194
  979TIP3   OH224351   4.133   5.327  16.651  0.0070 -0.2434 -0.1178
  979TIP3    H124352   4.118   5.250  16.597  0.8905 -0.3718 -0.1799
  979TIP3    H224353   4.087   5.397  16.606 -0.4068 -0.6368 -0.3082
  980TIP3   OH224354   5.963   2.088   0.107 -0.2357  0.0423 -0.0877
  980TIP3    H124355   5.869   2.102   0.096  0.3480  2.8477 -2.3491
  980TIP3    H224356   5.998   2.097   0.018  2.0705 -1.8960  0.5904
  981TIP3   OH224357   5.438   4.143  15.965  0.2647  0.3630 -0.2856
  981TIP3    H124358   5.493   4.076  15.922 -0.8050 -0.2246 -0.7690
  981TIP3    H224359   5.404   4.196  15.892  0.0766  0.6324 -0.0024
  982TIP3   OH224360   3.515   1.518  14.263 -0.2698 -0.2999 -0.2334
  982TIP3    H124361   3.545   1.546  14.177  1.8207 -1.7079 -0.0042
  982TIP3    H224362   3.567   1.569  14.325 -0.5817 -0.4827  0.1849
  983TIP3   OH224363   3.189   2.398  14.966 -0.3465 -0.4599  0.7581
  983TIP3    H124364   3.262   2.337  14.980 -0.1958 -0.2415  0.9398
  983TIP3    H224365   3.125   2.349  14.915  0.2543 -0.4180 -0.0524
  984TIP3   OH224366   6.558   4.212   4.862  0.0764  0.1313 -0.3953
  984TIP3    H124367   6.527   4.213   4.953  0.5887  0.1546 -0.2227
  984TIP3    H224368   6.653   4.210   4.869  0.0954 -0.6547 -0.9330
  985TIP3   OH224369   4.659   0.607  11.482  0.1334  0.5902 -0.3498
  985TIP3    H124370   4.649   0.524  11.434  0.7783 -0.2579  0.9434
  985TIP3    H224371   4.651   0.582  11.574  3.4073  1.4499  0.2411
  986TIP3   OH224372   1.446   3.574   2.474 -0.4776 -0.0631  0.2997
  986TIP3    H124373   1.525   3.523   2.492  0.6548  1.2139 -0.8635
  986TIP3    H224374   1.406   3.530   2.398  0.5238  0.7725 -0.7341
  987TIP3   OH224375   1.046   2.499  12.751  0.0214 -0.1390 -0.3334
  987TIP3    H124376   1.108   2.445  12.702  0.0125  1.1647 -1.8108
  987TIP3    H224377   0.980   2.438  12.783  1.5892 -1.4247  0.5304
  988TIP3   OH224378   5.689   4.602   2.578 -0.4647  0.4385  0.2077
  988TIP3    H124379   5.636   4.617   2.656  1.7011  1.7638  1.4944
  988TIP3    H224380   5.740   4.683   2.567  0.4368 -0.3357 -1.6345
  989TIP3   OH224381   5.025   4.376   3.066 -0.2409  0.3379  0.5638
  989TIP3    H124382   5.020   4.427   3.147  0.1360  0.9111  0.2359
  989TIP3    H224383   5.053   4.440   3.000  0.5491 -0.3743  0.2107
  990TIP3   OH224384   6.547   1.164   4.763  0.7654 -0.2186  0.8887
  990TIP3    H124385   6.528   1.139   4.673  0.0812 -0.6268  1.1381
  990TIP3    H224386   6.461   1.179   4.802  0.9971 -1.0813  1.7630
  991TIP3   OH224387   3.548   2.189   3.516 -0.1582 -0.1240 -0.1151
  991TIP3    H124388   3.593   2.114   3.477  1.5347  1.2448 -0.8647
  991TIP3    H224389   3.541   2.167   3.609  0.8586 -0.9560 -0.2238
  992TIP3   OH224390   5.345   0.997  12.222 -0.1084 -0.0312 -0.0383
  992TIP3    H124391   5.281   0.930  12.201 -0.8160  0.9096 -0.9445
  992TIP3    H224392   5.386   1.018  12.139  0.4355  0.3250  0.3163
  993TIP3   OH224393   5.562   5.869   2.815 -0.8635 -0.3026  0.3021
  993TIP3    H124394   5.561   5.893   2.723  0.7636  1.2034  0.6412
  993TIP3    H224395   5.541   5.775   2.816 -1.3399 -0.2236 -1.5439
  994TIP3   OH224396   4.329   2.784  15.614 -0.4530 -0.1516  0.8853
  994TIP3    H124397   4.313   2.696  15.581  0.7977 -0.4522  1.0389
  994TIP3    H224398   4.367   2.771  15.701  0.0452  0.5225  0.7793
  995TIP3   OH224399   0.988   5.329  16.986  0.1820  0.1637 -0.2635
  995TIP3    H124400   0.910   5.316  16.932  0.3259 -0.2886 -0.3630
  995TIP3    H224401   1.016   5.241  17.009 -0.1567  0.3677  0.9670
  996TIP3   OH224402   1.538   0.291  15.431  0.2060  0.2369 -0.2141
  996TIP3    H124403   1.543   0.199  15.457  0.6884  0.0916 -0.8223
  996TIP3    H224404   1.495   0.290  15.346 -1.1177  0.6920  0.4326
  997TIP3   OH224405   5.776   6.362  14.162  0.0872  0.6531  0.5061
  997TIP3    H124406   5.702   6.304  14.177  1.6145 -1.3462  0.4392
  997TIP3    H224407   5.773   6.380  14.068  1.5238 -2.0163 -0.0931
  998TIP3   OH224408   0.796   0.680  15.716  0.2703  0.1722  0.5511
  998TIP3    H124409   0.827   0.743  15.650 -0.2479 -0.8521 -0.6851
  998TIP3    H224410   0.793   0.731  15.797  2.0702  1.1404  0.0399
  999TIP3   OH224411   1.354   6.263   3.777  0.0043 -0.3812  0.2752
  999TIP3    H124412   1.413   6.193   3.805  0.7487  0.7515  1.5906
  999TIP3    H224413   1.363   6.330   3.845  1.2504  2.1239 -2.2807
 1000TIP3   OH224414   1.847   4.953  11.808 -0.1733 -0.3736  0.0588
 1000TIP3    H124415   1.919   4.913  11.857  0.1115  1.8142  1.4911
 1000TIP3    H224416   1.881   5.037  11.780 -1.4196 -0.2843 -1.2242
 1001TIP3   OH224417   3.483   2.867   3.486 -0.1318  0.2573  0.4488
 1001TIP3    H124418   3.416   2.841   3.549 -0.4569 -1.3468 -0.5256
 1001TIP3    H224419   3.434   2.896   3.409  0.2622  2.2176  0.9021
 1002TIP3   OH224420   0.684   0.337   2.315 -0.2086 -0.2536 -0.3085
 1002TIP3    H124421   0.663   0.428   2.292 -1.4824 -0.1672  1.1183
 1002TIP3    H224422   0.686   0.337   2.410 -1.0125 -1.9140 -0.2927
 1003TIP3   OH224423   2.261   3.699   2.082 -0.2049  0.3987  0.7649
 1003TIP3    H124424   2.188   3.712   2.020 -0.1086 -1.1849  0.3015
 1003TIP3    H224425   2.331   3.661   2.028 -0.2888 -1.4573  1.9281
 1004TIP3   OH224426   0.438   1.197   2.973  0.3865 -0.1874  0.3079
 1004TIP3    H124427   0.482   1.275   2.939 -0.3274 -1.0076 -2.5837
 1004TIP3    H224428   0.492   1.170   3.047  0.9447  2.7236  1.0307
 1005TIP3   OH224429   6.014   5.190   5.693 -0.3154  0.6766 -0.1693
 1005TIP3    H124430   5.940   5.241   5.659 -1.7481 -0.5852  0.9259
 1005TIP3    H224431   6.002   5.192   5.788  0.8980  0.1939 -0.0005
 1006TIP3   OH224432   4.447   4.466   1.806  0.1952  0.1228 -0.2536
 1006TIP3    H124433   4.513   4.398   1.799 -0.4582 -0.2954 -3.3549
 1006TIP3    H224434   4.399   4.446   1.886  1.0376 -2.1110 -0.2858
 1007TIP3   OH224435   6.716   6.450   3.061 -0.3350 -0.2260  0.7980
 1007TIP3    H124436   6.676   6.519   3.008  0.9096 -0.6587 -0.7174
 1007TIP3    H224437   6.763   6.498   3.130  0.1644  0.4289  0.0110
 1008TIP3   OH224438   1.474   5.610  17.185 -0.2977  0.6772  0.2670
 1008TIP3    H124439   1.467   5.543  17.118 -2.1386  0.0771  1.0239
 1008TIP3    H224440   1.549   5.663  17.159  0.0110 -0.5340 -1.3540
 1009TIP3   OH224441   5.272   5.644  16.851 -0.3419 -0.3105 -0.2857
 1009TIP3    H124442   5.331   5.716  16.873 -0.7381  0.0257 -0.3083
 1009TIP3    H224443   5.329   5.571  16.831  0.0693  0.1082 -0.6323
 1010TIP3   OH224444   5.075   0.324  15.072 -0.2670  0.3354 -0.0156
 1010TIP3    H124445   5.034   0.238  15.063 -0.6137  0.3638  1.3277
 1010TIP3    H224446   5.165   0.310  15.043 -0.6742 -0.1757 -1.0690
 1011TIP3   OH224447   3.125   4.768  14.390  0.6699  0.5943 -0.3955
 1011TIP3    H124448   3.077   4.840  14.429  1.3067  1.8081 -1.7865
 1011TIP3    H224449   3.192   4.746  14.454 -0.7859 -0.1501  0.9252
 1012TIP3   OH224450   5.506   4.870   0.758 -0.0815  0.6408 -0.1602
 1012TIP3    H124451   5.417   4.890   0.730 -0.3238  0.1003  0.2233
 1012TIP3    H224452   5.553   4.953   0.747 -0.6545  0.9565 -0.2642
 1013TIP3   OH224453   2.651   1.269  13.723 -0.4261 -0.4502 -0.6240
 1013TIP3    H124454   2.605   1.201  13.772  1.2629  0.4463  2.3640
 1013TIP3    H224455   2.721   1.222  13.677 -2.1442 -1.3362 -2.3676
 1014TIP3   OH224456   0.370   5.793  13.167  0.4449  0.0061  0.1156
 1014TIP3    H124457   0.446   5.755  13.123  0.3452 -0.4665  0.3478
 1014TIP3    H224458   0.367   5.749  13.252  0.6744  0.9558  0.6330
 1015TIP3   OH224459   5.718   1.214   0.365  0.4367  1.0391  0.7018
 1015TIP3    H124460   5.652   1.206   0.295  0.7548 -0.3632  0.5404
 1015TIP3    H224461   5.779   1.280   0.333  0.2890  0.7887 -0.1196
 1016TIP3   OH224462   0.260   2.590   5.411 -0.1153 -0.0048  0.1292
 1016TIP3    H124463   0.276   2.548   5.496  2.4021 -0.2870 -0.4458
 1016TIP3    H224464   0.246   2.517   5.351 -1.3254  0.1784  0.1789
 1017TIP3   OH224465   3.290   6.786   3.409 -0.6903 -0.2129  0.7713
 1017TIP3    H124466   3.320   6.824   3.491 -2.1516  0.7839  0.8551
 1017TIP3    H224467   3.313   6.693   3.416  1.5937  0.3352  1.1681
 1018TIP3   OH224468   2.236   5.248  16.656 -0.5020 -0.4155  0.1643
 1018TIP3    H124469   2.318   5.259  16.608 -1.3849 -0.2167 -1.3454
 1018TIP3    H224470   2.241   5.159  16.690  0.1305 -0.5865 -0.3488
 1019TIP3   OH224471   5.370   2.626  14.544  0.2615 -0.2008  0.3344
 1019TIP3    H124472   5.409   2.586  14.622 -1.4068 -2.7547 -0.0792
 1019TIP3    H224473   5.279   2.642  14.570  0.1715  0.6601 -0.5008
 1020TIP3   OH224474   1.599   6.773  15.232 -0.0112  0.0831 -0.4875
 1020TIP3    H124475   1.614   6.851  15.286  0.3517 -0.9288  0.8898
 1020TIP3    H224476   1.685   6.754  15.195  0.2280 -0.5696  0.4061
 1021TIP3   OH224477   3.037   1.097   3.358  0.6525  0.2191 -0.2123
 1021TIP3    H124478   3.128   1.127   3.347  1.7048 -3.1481 -1.4212
 1021TIP3    H224479   2.989   1.137   3.286  1.4851  0.9440 -0.3716
 1022TIP3   OH224480   3.108   6.137   4.825  0.3611  0.1988 -0.3184
 1022TIP3    H124481   3.146   6.053   4.850  0.9241  0.3958 -0.5207
 1022TIP3    H224482   3.162   6.202   4.869 -1.4724  0.3963  1.7510
 1023TIP3   OH224483   5.316   5.779   2.419  0.3633  0.3810  0.2596
 1023TIP3    H124484   5.315   5.809   2.509  3.3265  1.8498 -0.1184
 1023TIP3    H224485   5.324   5.860   2.367 -0.2790 -0.5009 -1.2349
 1024TIP3   OH224486   6.538   2.864  15.643  0.0306 -0.2455  0.4482
 1024TIP3    H124487   6.564   2.869  15.735 -1.5624  1.0017  0.8511
 1024TIP3    H224488   6.524   2.955  15.617  1.1733 -0.5211 -1.2539
 1025TIP3   OH224489   6.073   4.358  12.644  0.5870  0.2164 -0.3068
 1025TIP3    H124490   6.130   4.296  12.598 -0.4307 -2.0859  1.4421
 1025TIP3    H224491   5.987   4.345  12.603  0.5251  1.0370 -0.4446
 1026TIP3   OH224492   3.577   2.388   1.880 -0.2139 -0.4755  0.4718
 1026TIP3    H124493   3.548   2.476   1.901  1.6620  0.1227  0.6286
 1026TIP3    H224494   3.539   2.333   1.949 -1.0261  0.2514  0.6115
 1027TIP3   OH224495   0.467   1.211   5.373  0.0886  0.4584  0.3563
 1027TIP3    H124496   0.459   1.188   5.465  0.5937 -1.8897 -0.1687
 1027TIP3    H224497   0.377   1.222   5.343 -0.1220  0.0457  0.8322
 1028TIP3   OH224498   5.122   1.128  12.007 -0.5197 -0.1361  0.3072
 1028TIP3    H124499   5.147   1.220  12.013 -0.4675  0.1737 -3.5071
 1028TIP3    H224500   5.172   1.085  12.077  3.3343  1.9735 -0.9647
 1029TIP3   OH224501   3.061   6.504   2.709 -0.0223  0.1106  0.1757
 1029TIP3    H124502   3.051   6.458   2.626 -2.9118 -0.7951  0.9600
 1029TIP3    H224503   3.098   6.438   2.768 -1.4997 -0.3800  0.5655
 1030TIP3   OH224504   4.181   3.506   0.985 -0.0448 -0.4492  0.4981
 1030TIP3    H124505   4.236   3.441   0.941  2.2572  1.2420  0.7648
 1030TIP3    H224506   4.203   3.589   0.943 -4.7634 -0.0943 -1.5167
 1031TIP3   OH224507   3.842   5.564  12.069 -0.7784 -0.6686  0.3989
 1031TIP3    H124508   3.787   5.579  11.992  0.7880 -0.7676 -0.7622
 1031TIP3    H224509   3.797   5.609  12.140 -1.7027  0.3162 -0.7961
 1032TIP3   OH224510   1.174   3.325   0.091 -0.3692  0.1462 -0.0308
 1032TIP3    H124511   1.183   3.231   0.075 -0.6111  0.0836  0.2031
 1032TIP3    H224512   1.262   3.353   0.117  0.2054  0.3774 -2.1102
 1033TIP3   OH224513   3.739   5.914   1.534 -0.0368  0.0128 -0.2367
 1033TIP3    H124514   3.765   6.002   1.506  1.1341  0.1584  1.2234
 1033TIP3    H224515   3.644   5.918   1.543 -0.0750  0.8908 -0.9515
 1034TIP3   OH224516   1.238   0.495   0.250  0.3136 -0.0743  0.4347
 1034TIP3    H124517   1.312   0.524   0.196  0.7343  3.9199  2.9076
 1034TIP3    H224518   1.160   0.522   0.202  0.5669 -0.2105 -0.0537
 1035TIP3   OH224519   0.117   2.105  15.777  0.2985  0.5994 -0.7158
 1035TIP3    H124520   0.039   2.084  15.829  0.6654 -1.2692 -0.8607
 1035TIP3    H224521   0.086   2.110  15.687 -0.3339  3.8145 -0.3781
 1036TIP3   OH224522   6.209   4.011  12.260 -0.3697 -0.3623  1.0022
 1036TIP3    H124523   6.277   4.074  12.234 -0.5146 -0.1400  1.1560
 1036TIP3    H224524   6.257   3.935  12.291 -0.1876 -0.1981  1.1269
 1037TIP3   OH224525   6.783   4.387   1.782 -0.4070 -0.0790 -0.4788
 1037TIP3    H124526   6.692   4.411   1.764 -0.8793 -0.1083  1.7803
 1037TIP3    H224527   6.808   4.440   1.857  0.3649 -2.4285  1.0093
 1038TIP3   OH224528   2.357   2.494   6.386 -0.3535 -0.4681 -0.3593
 1038TIP3    H124529   2.415   2.513   6.459 -0.8344 -0.9185  0.1402
 1038TIP3    H224530   2.402   2.531   6.310  1.5146 -2.4572 -0.2662
 1039TIP3   OH224531   3.465   2.435  16.919  0.4707  0.2199 -0.5364
 1039TIP3    H124532   3.460   2.520  16.876  1.2785  1.2343  1.3198
 1039TIP3    H224533   3.556   2.407  16.907  0.3487 -0.1176 -0.6725
 1040TIP3   OH224534   5.188   5.823  14.810 -0.2806 -0.2466  0.2524
 1040TIP3    H124535   5.122   5.890  14.792 -2.0429 -2.0650 -0.1106
 1040TIP3    H224536   5.211   5.838  14.902 -1.8544 -0.1538  0.6501
 1041TIP3   OH224537   0.592   3.983  15.442  0.3208 -0.8134 -0.1459
 1041TIP3    H124538   0.678   3.986  15.400  0.1886  0.3241 -0.3524
 1041TIP3    H224539   0.568   4.075  15.454 -0.0504 -1.1169  1.6021
 1042TIP3   OH224540   6.255   6.320   5.684 -0.4028 -0.3477  0.2816
 1042TIP3    H124541   6.254   6.369   5.602 -1.3471  0.8120  0.9756
 1042TIP3    H224542   6.342   6.336   5.721  0.3634 -1.6081 -0.9054
 1043TIP3   OH224543   3.633   1.626   5.129  0.6377  0.7559 -0.6326
 1043TIP3    H124544   3.619   1.540   5.091  0.2656  0.4582  0.1745
 1043TIP3    H224545   3.718   1.654   5.093  0.0295  0.7335 -2.1164
 1044TIP3   OH224546   2.595   6.757  15.334 -0.0326 -0.1646  0.7270
 1044TIP3    H124547   2.506   6.729  15.312 -0.5613  0.5147  1.9811
 1044TIP3    H224548   2.630   6.687  15.389 -0.3981  0.3646  1.6360
 1045TIP3   OH224549   0.829   5.621  11.129  0.5488 -0.0993  0.3729
 1045TIP3    H124550   0.914   5.582  11.145  0.1405 -0.9048  0.6085
 1045TIP3    H224551   0.837   5.664  11.044  0.5614 -1.9506 -0.5771
 1046TIP3   OH224552   5.287   6.207  14.442  0.0713  0.1442 -0.3643
 1046TIP3    H124553   5.216   6.243  14.389  0.9157  0.5890 -1.2187
 1046TIP3    H224554   5.352   6.278  14.447  0.7895 -0.5089 -0.2373
 1047TIP3   OH224555   6.486   4.231  16.611  0.2767  0.5704  0.0203
 1047TIP3    H124556   6.393   4.225  16.586 -0.5319 -0.3059  2.9951
 1047TIP3    H224557   6.526   4.154  16.570 -0.4041  0.6460 -0.8132
 1048TIP3   OH224558   3.978   4.253   3.462  0.3313  0.1954 -0.4695
 1048TIP3    H124559   3.993   4.183   3.399 -1.0436  0.3224 -0.9483
 1048TIP3    H224560   3.976   4.209   3.547  0.6963 -0.1699 -0.6451
 1049TIP3   OH224561   6.416   5.005   5.875  0.2339  0.9020  0.1071
 1049TIP3    H124562   6.401   5.041   5.788 -0.6790  1.6320  0.5571
 1049TIP3    H224563   6.330   5.003   5.916  0.0676 -2.7478 -0.2283
 1050TIP3   OH224564   4.021   2.090   4.703 -0.4624  0.1082 -0.1136
 1050TIP3    H124565   3.984   2.018   4.652 -0.6815  0.9033 -1.0921
 1050TIP3    H224566   4.109   2.061   4.725 -0.2207 -0.0750 -1.2964
 1051TIP3   OH224567   5.397   0.606  15.841 -0.0060  0.3507  0.0903
 1051TIP3    H124568   5.302   0.603  15.851 -0.0658  1.0044 -0.2492
 1051TIP3    H224569   5.411   0.603  15.746  0.3065  0.3617  0.1362
 1052TIP3   OH224570   2.464   4.375  17.076 -0.0392 -0.2305  0.0885
 1052TIP3    H124571   2.378   4.417  17.087 -1.0666 -2.4876  1.0402
 1052TIP3    H224572   2.443   4.284  17.053  2.1137 -0.6110 -0.4816
 1053TIP3   OH224573   3.490   2.454  16.238  0.3828 -0.0553 -0.6039
 1053TIP3    H124574   3.553   2.472  16.168  2.8150 -0.1283  1.5027
 1053TIP3    H224575   3.515   2.512  16.309 -2.9334  1.0454 -0.2268
 1054TIP3   OH224576   2.550   2.753  15.318  0.1974 -0.6270  0.1134
 1054TIP3    H124577   2.485   2.775  15.385 -0.8379  0.4567 -1.2395
 1054TIP3    H224578   2.528   2.664  15.292  0.6797 -1.1012  1.2927
 1055TIP3   OH224579   3.989   2.687   2.829  0.1691 -0.1820  0.3459
 1055TIP3    H124580   4.027   2.774   2.813  2.7887 -1.1527  1.0633
 1055TIP3    H224581   3.896   2.698   2.809  0.3077  2.9708  1.0657
 1056TIP3   OH224582   2.197   6.442  12.327  0.1157  0.4455  0.2493
 1056TIP3    H124583   2.245   6.463  12.407  1.4819 -2.0878  0.1550
 1056TIP3    H224584   2.232   6.357  12.301 -2.0398  0.1434 -1.7220
 1057TIP3   OH224585   0.844   3.278   3.123 -0.2102 -0.6640 -0.1770
 1057TIP3    H124586   0.824   3.218   3.050  0.5184  2.4240 -3.0181
 1057TIP3    H224587   0.940   3.282   3.125 -0.2063 -1.2305  1.4156
 1058TIP3   OH224588   1.724   4.296  10.897 -0.0487 -0.0019 -0.1594
 1058TIP3    H124589   1.678   4.257  10.823  0.8295 -1.3943  0.0149
 1058TIP3    H224590   1.805   4.331  10.859  0.9649 -1.7802  0.3287
 1059TIP3   OH224591   2.161   5.496   5.964  0.1634  0.1817 -0.4362
 1059TIP3    H124592   2.138   5.517   5.873 -2.8101 -0.2567  0.1681
 1059TIP3    H224593   2.154   5.579   6.010 -1.1853 -0.1403 -0.0582
 1060TIP3   OH224594   4.495   0.650   1.810 -0.1490  0.4267  0.3958
 1060TIP3    H124595   4.491   0.735   1.767  1.5369  0.8185  0.9851
 1060TIP3    H224596   4.480   0.669   1.903 -1.0391 -0.0926  0.3736
 1061TIP3   OH224597   1.935   5.728  14.768 -0.5397 -0.0079  0.7858
 1061TIP3    H124598   2.027   5.703  14.781 -0.6898  0.2835  2.5339
 1061TIP3    H224599   1.900   5.660  14.710  0.2031 -1.4268  1.9535
 1062TIP3   OH224600   4.845   2.615  13.735 -0.1210 -0.0501 -0.3665
 1062TIP3    H124601   4.931   2.576  13.725  0.6781  1.2395  1.1790
 1062TIP3    H224602   4.818   2.593  13.824 -2.8762 -3.2527 -1.8673
 1063TIP3   OH224603   4.109   1.876  11.700  0.4790  0.3090 -0.7095
 1063TIP3    H124604   4.117   1.965  11.733  0.2085  0.4413 -0.9971
 1063TIP3    H224605   4.015   1.862  11.690  0.4938 -0.1963 -0.1567
 1064TIP3   OH224606   3.280   0.374   2.318 -0.3628  0.3161  0.2676
 1064TIP3    H124607   3.271   0.465   2.346 -2.4929  0.7573 -1.7202
 1064TIP3    H224608   3.212   0.327   2.366  0.2642 -0.0963  0.7544
 1065TIP3   OH224609   3.177   1.419  11.662  0.0582 -0.2526 -0.0697
 1065TIP3    H124610   3.098   1.444  11.614  0.6175 -0.0544 -0.8976
 1065TIP3    H224611   3.214   1.348  11.611  0.0034 -0.8699  0.7443
 1066TIP3   OH224612   0.576   3.957  11.000  0.5795 -0.0026 -0.0317
 1066TIP3    H124613   0.559   4.051  11.001  0.6521  0.0023  0.4770
 1066TIP3    H224614   0.590   3.936  10.907 -1.5569  0.1114 -0.4129
 1067TIP3   OH224615   1.534   6.724   1.791  0.0245  0.8563 -0.2911
 1067TIP3    H124616   1.477   6.654   1.821 -1.7817  2.1810 -0.5018
 1067TIP3    H224617   1.617   6.710   1.836 -0.8669 -0.4007  0.9869
 1068TIP3   OH224618   1.423   2.472  14.286 -0.4192  0.1020 -0.5087
 1068TIP3    H124619   1.482   2.547  14.298  0.1242 -0.4745  0.4588
 1068TIP3    H224620   1.373   2.468  14.367  2.5540 -3.1960  1.2743
 1069TIP3   OH224621   0.813   2.119  16.720  0.0742  0.4255 -0.2529
 1069TIP3    H124622   0.905   2.097  16.733  0.1155  0.7033 -0.0604
 1069TIP3    H224623   0.813   2.175  16.643 -0.2331 -1.6534 -1.7820
 1070TIP3   OH224624   0.339   6.377  10.749 -0.1162  0.3041 -0.1098
 1070TIP3    H124625   0.248   6.354  10.735  0.1200 -0.7347  0.0389
 1070TIP3    H224626   0.345   6.400  10.842  0.5800 -3.5316  0.8644
 1071TIP3   OH224627   1.941   6.058  14.090 -0.2946  0.2960  0.4497
 1071TIP3    H124628   1.877   6.129  14.096  0.9124  1.6506 -1.8358
 1071TIP3    H224629   1.993   6.066  14.170 -0.2576  1.9308  0.2842
 1072TIP3   OH224630   3.263   3.856   1.842  0.6184  0.2042 -0.0332
 1072TIP3    H124631   3.254   3.819   1.755 -0.3066 -0.4076  0.3210
 1072TIP3    H224632   3.218   3.940   1.838  0.5404  0.1565 -0.1302
 1073TIP3   OH224633   0.225   5.441  16.095 -0.0505 -0.4242 -0.0172
 1073TIP3    H124634   0.162   5.508  16.069 -0.4481 -0.8579 -0.1873
 1073TIP3    H224635   0.275   5.423  16.015  1.7414  1.4541  0.6311
 1074TIP3   OH224636   2.886   0.315   2.110 -0.2151 -0.0966  0.1402
 1074TIP3    H124637   2.936   0.372   2.052 -1.6464  0.9741 -0.0687
 1074TIP3    H224638   2.849   0.249   2.052  1.7151 -1.4857  0.4262
 1075TIP3   OH224639   5.083   4.653  12.321 -0.2955  0.3676  0.0125
 1075TIP3    H124640   5.155   4.658  12.384 -2.5304 -0.6826  2.7566
 1075TIP3    H224641   5.074   4.742  12.287  2.4155  0.4606 -0.5575
 1076TIP3   OH224642   6.105   2.847   1.073 -0.0553  0.2846  0.8153
 1076TIP3    H124643   6.075   2.849   1.164 -2.7010 -0.2117  0.0243
 1076TIP3    H224644   6.125   2.938   1.052 -1.1220  0.6739  1.4032
 1077TIP3   OH224645   6.544   1.167  12.040  0.2370  0.4179  0.2110
 1077TIP3    H124646   6.599   1.238  12.072  0.5915 -0.0197  0.5852
 1077TIP3    H224647   6.570   1.154  11.949  1.9750 -0.9447  0.8838
 1078TIP3   OH224648   0.733   5.319   1.656 -0.4217 -0.2958 -0.6276
 1078TIP3    H124649   0.786   5.280   1.587 -0.6230 -0.8696 -0.4565
 1078TIP3    H224650   0.646   5.329   1.617 -0.4095 -0.1574 -0.6202
 1079TIP3   OH224651   4.361   2.440  11.904  0.6459 -0.7541 -0.0030
 1079TIP3    H124652   4.306   2.419  11.828 -1.0123  0.1594  0.9255
 1079TIP3    H224653   4.325   2.386  11.975  0.5161  0.3719  0.7879
 1080TIP3   OH224654   4.258   1.625   0.916  0.4763  0.5090 -0.3287
 1080TIP3    H124655   4.244   1.674   0.997  1.0080  0.2830 -0.1012
 1080TIP3    H224656   4.305   1.686   0.859  1.1937  0.2512 -0.0233
 1081TIP3   OH224657   1.554   2.440   5.364 -0.5892 -0.0161  0.7402
 1081TIP3    H124658   1.494   2.394   5.305 -0.5596 -0.8180  1.3245
 1081TIP3    H224659   1.548   2.392   5.446  3.0259 -1.9705  0.0156
 1082TIP3   OH224660   1.121   2.233  11.453  0.3948  0.1452 -0.2850
 1082TIP3    H124661   1.139   2.209  11.363 -0.6185  2.4723 -1.1457
 1082TIP3    H224662   1.194   2.197  11.503  1.1682 -0.8147 -2.0883
 1083TIP3   OH224663   4.209   1.956   2.011  0.3090 -0.0240  0.0098
 1083TIP3    H124664   4.136   1.933   1.954 -0.0723  1.9471 -0.3453
 1083TIP3    H224665   4.288   1.932   1.962 -0.0232  1.4565 -1.2748
 1084TIP3   OH224666   4.767   3.351  14.360 -0.0101  0.0627  0.5165
 1084TIP3    H124667   4.843   3.294  14.370  1.2464  1.8366  1.2530
 1084TIP3    H224668   4.802   3.431  14.321 -1.9731 -0.1503 -1.8338
 1085TIP3   OH224669   4.392   4.360  12.172 -0.2726 -0.5978 -0.1999
 1085TIP3    H124670   4.364   4.437  12.123 -0.2562 -0.9752 -0.8032
 1085TIP3    H224671   4.334   4.357  12.248 -0.5167 -0.2079 -0.3720
 1086TIP3   OH224672   6.278   5.097   2.898  0.4438  0.2353 -0.3671
 1086TIP3    H124673   6.282   5.154   2.974 -1.0458  1.3556 -1.1085
 1086TIP3    H224674   6.320   5.015   2.927 -0.3577  0.5387  1.7267
 1087TIP3   OH224675   0.872   6.215   0.282  0.9159  0.2272  0.4924
 1087TIP3    H124676   0.906   6.272   0.214 -0.7696  2.4867  1.4573
 1087TIP3    H224677   0.794   6.175   0.243  0.2616  1.1038  0.8713
 1088TIP3   OH224678   2.351   4.837  12.638 -0.2397 -0.5445  0.1302
 1088TIP3    H124679   2.397   4.797  12.712  0.8834  2.2451  1.0002
 1088TIP3    H224680   2.258   4.820  12.657  0.0354  0.0470  2.1437
 1089TIP3   OH224681   1.205   5.764   3.379  0.2478  0.1595 -0.2290
 1089TIP3    H124682   1.131   5.816   3.410 -0.4476 -1.7351  1.3928
 1089TIP3    H224683   1.279   5.796   3.431  0.0898  0.4206 -0.1604
 1090TIP3   OH224684   5.041   6.185   0.771  0.6968 -0.1104  0.0694
 1090TIP3    H124685   5.010   6.206   0.683 -0.1079 -1.5033  0.0012
 1090TIP3    H224686   5.062   6.092   0.767  0.6006 -0.1904  1.3651
 1091TIP3   OH224687   3.698   4.651  14.935  0.2738 -0.3309  0.2022
 1091TIP3    H124688   3.605   4.662  14.954 -0.1477 -0.9916 -1.4391
 1091TIP3    H224689   3.728   4.586  14.999 -0.4538 -0.3469  0.5276
 1092TIP3   OH224690   4.964   3.883  13.037  0.7902  0.3877  0.0140
 1092TIP3    H124691   4.941   3.813  13.097  0.1561  2.2437  2.0138
 1092TIP3    H224692   4.933   3.853  12.952  0.0266 -1.4911  0.9379
 1093TIP3   OH224693   2.654   2.992  16.308  0.8422 -0.0454  0.3741
 1093TIP3    H124694   2.589   2.922  16.311  0.9394 -0.1232  0.7175
 1093TIP3    H224695   2.609   3.066  16.268  0.9898 -0.5802 -0.8081
 1094TIP3   OH224696   2.620   4.993  12.331  0.1421  0.1076 -0.1208
 1094TIP3    H124697   2.529   4.976  12.307  0.5637 -3.1416  0.3547
 1094TIP3    H224698   2.670   4.975  12.251  0.3497  2.9649 -0.7163
 1095TIP3   OH224699   5.966   6.777  16.108 -0.5592  0.0117 -0.0264
 1095TIP3    H124700   5.954   6.872  16.101 -0.0238 -0.0172 -1.3846
 1095TIP3    H224701   5.914   6.753  16.185  1.4566  1.7759  1.9634
 1096TIP3   OH224702   4.594   2.463   3.658 -0.2905 -0.3498  0.1003
 1096TIP3    H124703   4.560   2.552   3.650 -1.1631 -0.7957 -1.2265
 1096TIP3    H224704   4.681   2.466   3.620 -0.8158 -0.3456 -1.1102
 1097TIP3   OH224705   0.689   2.512  12.411  0.0137  0.0720 -0.5545
 1097TIP3    H124706   0.736   2.485  12.332  0.1483  1.2513 -0.8910
 1097TIP3    H224707   0.598   2.521  12.384 -0.2849 -1.4703 -0.0847
 1098TIP3   OH224708   2.928   5.412   3.148 -0.1539  0.4628  0.1988
 1098TIP3    H124709   3.023   5.405   3.156 -0.2472 -1.2709  0.0397
 1098TIP3    H224710   2.912   5.413   3.054 -0.3684 -0.8622  0.2035
 1099TIP3   OH224711   1.693   0.876   2.059  0.4580  0.4674  0.3311
 1099TIP3    H124712   1.675   0.815   1.988  1.1209 -0.9569  1.3585
 1099TIP3    H224713   1.787   0.891   2.055  0.1749  2.0967 -0.4406
 1100TIP3   OH224714   4.764   3.878  16.229 -0.4188  0.2817  0.7851
 1100TIP3    H124715   4.772   3.836  16.143 -0.2209  1.0815  0.4136
 1100TIP3    H224716   4.854   3.903  16.252 -0.6856  1.5597  0.4693
 1101TIP3   OH224717   6.752   2.751  12.946  0.1719 -0.1643  0.7484
 1101TIP3    H124718   6.782   2.798  13.023 -1.0105 -1.3328  1.9459
 1101TIP3    H224719   6.820   2.686  12.929  2.0458  2.2111 -1.1939
 1102TIP3   OH224720   3.397   0.551   2.705 -0.1680  1.0951 -0.2125
 1102TIP3    H124721   3.337   0.478   2.687  1.5306 -0.2202 -0.7773
 1102TIP3    H224722   3.377   0.577   2.795  0.5802 -1.4822  0.7565
 1103TIP3   OH224723   6.372   6.234   3.773 -0.3130 -0.4277 -0.0118
 1103TIP3    H124724   6.373   6.148   3.731 -2.8253 -0.7454  0.5335
 1103TIP3    H224725   6.357   6.215   3.865 -0.3774  0.5735  0.1852
 1104TIP3   OH224726   3.364   1.499  11.853 -0.3018  0.6588 -0.0465
 1104TIP3    H124727   3.298   1.490  11.784  1.2928  0.1029 -1.5141
 1104TIP3    H224728   3.429   1.432  11.833 -0.5421 -0.5152  2.8553
 1105TIP3   OH224729   6.750   0.987  16.662  0.0042 -0.1151  0.0500
 1105TIP3    H124730   6.727   1.050  16.594  0.0690 -0.5031 -0.3335
 1105TIP3    H224731   6.740   0.901  16.620 -0.6607 -0.3823  0.7413
 1106TIP3   OH224732   0.542   6.703   4.726  0.3717  0.0285 -0.5918
 1106TIP3    H124733   0.633   6.688   4.698  0.5244 -0.9262  0.4075
 1106TIP3    H224734   0.520   6.627   4.779 -0.7443  0.6514 -0.1459
 1107TIP3   OH224735   0.337   0.716   2.540  0.1762 -1.1161 -0.6603
 1107TIP3    H124736   0.401   0.648   2.518  0.7873 -0.4896 -0.8294
 1107TIP3    H224737   0.379   0.798   2.514  0.3156 -0.4795  1.4711
 1108TIP3   OH224738   2.944   6.747  16.725  0.0032  0.2637 -0.4835
 1108TIP3    H124739   2.911   6.718  16.640 -1.8849 -1.6720  0.8509
 1108TIP3    H224740   2.959   6.666  16.773  0.1709  1.3672  1.3463
 1109TIP3   OH224741   2.573   4.943   2.337  0.2291 -0.0128 -0.3260
 1109TIP3    H124742   2.518   4.983   2.270 -0.8848 -0.5344  0.2599
 1109TIP3    H224743   2.579   4.851   2.312  1.2031  0.1194 -0.6206
 1110TIP3   OH224744   5.135   2.154   4.573  0.3090  0.0945  0.3177
 1110TIP3    H124745   5.092   2.092   4.631  0.5962  0.2322  0.6752
 1110TIP3    H224746   5.174   2.220   4.631 -0.4252  0.8896 -0.0780
 1111TIP3   OH224747   3.028   4.526  11.549  0.1742 -0.3775  0.0109
 1111TIP3    H124748   2.967   4.547  11.620 -0.7933  1.7350 -1.4076
 1111TIP3    H224749   3.095   4.595  11.554  0.6086 -0.7506 -0.5536
 1112TIP3   OH224750   5.422   3.273  10.853 -0.4264  0.0400  0.2218
 1112TIP3    H124751   5.459   3.247  10.768 -0.1311  1.3790 -0.0718
 1112TIP3    H224752   5.365   3.201  10.877 -1.1526  0.0009 -1.5095
 1113TIP3   OH224753   1.557   5.193  16.472  0.5019 -0.4174 -0.7575
 1113TIP3    H124754   1.629   5.247  16.440 -0.3219  2.5619  2.1911
 1113TIP3    H224755   1.506   5.251  16.529 -3.1808 -2.9688 -1.2655
 1114TIP3   OH224756   2.999   0.951  13.757 -0.4259 -0.0785  0.4166
 1114TIP3    H124757   2.996   0.989  13.845 -0.4162 -0.6696  0.6760
 1114TIP3    H224758   3.032   0.862  13.771 -0.2662 -0.1133 -0.2045
 1115TIP3   OH224759   0.161   3.816   3.332  0.2222 -0.0207  0.1076
 1115TIP3    H124760   0.215   3.752   3.379  0.0395 -1.0764 -1.0911
 1115TIP3    H224761   0.194   3.814   3.242  1.0792  2.5473  0.3207
 1116TIP3   OH224762   4.564   0.961   5.350  0.1894 -0.4141  0.9343
 1116TIP3    H124763   4.507   0.961   5.273  0.8092  0.2371  0.4813
 1116TIP3    H224764   4.507   0.931   5.421 -0.9115  0.8605  0.6140
 1117TIP3   OH224765   3.838   6.612   4.498  0.0674  0.5077 -0.0852
 1117TIP3    H124766   3.804   6.698   4.524  0.5496  0.4191  0.8603
 1117TIP3    H224767   3.766   6.551   4.515 -0.0104  0.6133 -0.0328
 1118TIP3   OH224768   6.608   5.572  16.721  0.2340 -0.3109  0.1690
 1118TIP3    H124769   6.553   5.521  16.782 -1.4809 -1.2402 -2.1008
 1118TIP3    H224770   6.570   5.555  16.635  2.1453  1.6363 -1.0861
 1119TIP3   OH224771   3.638   5.505  13.424  0.3831 -0.3105  0.7088
 1119TIP3    H124772   3.597   5.543  13.347  2.2574  0.4032  0.0234
 1119TIP3    H224773   3.727   5.541  13.423  0.6381 -0.8387  2.8168
 1120TIP3   OH224774   3.019   6.030  12.029  0.0074 -0.2692 -0.6237
 1120TIP3    H124775   2.997   6.018  11.936  2.0394  0.9228 -1.3018
 1120TIP3    H224776   2.983   6.117  12.051  1.8536  0.6331 -1.0750
 1121TIP3   OH224777   1.334   4.080  16.423  0.3570 -0.1342  0.2885
 1121TIP3    H124778   1.399   4.071  16.354  1.0432 -0.5319  0.9838
 1121TIP3    H224779   1.251   4.094  16.376  0.6142 -1.6278 -0.6672
 1122TIP3   OH224780   2.263   6.590   3.845  0.0664  0.5272  0.4462
 1122TIP3    H124781   2.325   6.583   3.772  0.1584 -0.6646  0.6213
 1122TIP3    H224782   2.196   6.524   3.825 -0.8187  1.3715  0.5783
 1123TIP3   OH224783   1.474   4.672  11.910 -0.1412  0.4604 -0.0840
 1123TIP3    H124784   1.439   4.597  11.957 -0.1465  0.1891 -0.5183
 1123TIP3    H224785   1.442   4.748  11.959  0.2693  0.1758  0.6349
 1124TIP3   OH224786   3.279   3.502  13.299 -0.0107  0.7112  0.2825
 1124TIP3    H124787   3.228   3.581  13.316 -0.3076  0.5673  0.0718
 1124TIP3    H224788   3.214   3.438  13.269  0.2116  0.3545  0.5675
 1125TIP3   OH224789   0.514   1.122   4.269 -0.0305  0.4553  0.1888
 1125TIP3    H124790   0.597   1.090   4.232 -0.5347  1.7325 -2.1233
 1125TIP3    H224791   0.517   1.217   4.255 -0.6751  0.8549  2.6224
 1126TIP3   OH224792   4.188   2.410  14.971 -0.2946 -0.6945 -0.1299
 1126TIP3    H124793   4.132   2.334  14.987 -0.5375 -0.5785 -0.4355
 1126TIP3    H224794   4.149   2.454  14.896 -0.4959  0.0727  0.4217
 1127TIP3   OH224795   3.090   6.580   1.177 -0.0291 -0.2799 -0.3316
 1127TIP3    H124796   3.109   6.590   1.270  2.2381  0.4566 -0.8466
 1127TIP3    H224797   3.161   6.527   1.142  0.5029  1.5167 -2.0973
 1128TIP3   OH224798   2.742   2.302  13.122  0.6588 -0.2215 -0.1302
 1128TIP3    H124799   2.781   2.385  13.148 -2.5769  0.6903  2.0627
 1128TIP3    H224800   2.699   2.320  13.039 -0.9882  0.6642  0.8801
 1129TIP3   OH224801   3.469   6.576   4.163 -0.2746  0.1350 -0.4524
 1129TIP3    H124802   3.418   6.630   4.103 -1.3430  2.3552  2.3517
 1129TIP3    H224803   3.483   6.631   4.239  0.4676 -2.8083  1.6394
 1130TIP3   OH224804   4.113   2.647   2.057 -0.3496 -0.7379 -0.3744
 1130TIP3    H124805   4.129   2.629   1.964 -0.3780  0.1910 -0.5606
 1130TIP3    H224806   4.018   2.655   2.064 -0.2783  0.1285 -0.4335
 1131TIP3   OH224807   1.319   0.897   1.952  0.0878  0.1785  0.0433
 1131TIP3    H124808   1.283   0.813   1.980  0.1491  0.5513  1.2772
 1131TIP3    H224809   1.311   0.896   1.856  0.2247 -1.2898  0.0286
 1132TIP3   OH224810   6.325   5.778  13.808  0.3897  0.2048  0.7954
 1132TIP3    H124811   6.366   5.819  13.884  1.7590 -0.2090  0.2786
 1132TIP3    H224812   6.293   5.852  13.756 -0.0549  0.5059  1.4845
 1133TIP3   OH224813   2.310   4.326   6.576 -0.3174  0.2062 -0.2388
 1133TIP3    H124814   2.356   4.355   6.497 -0.5821 -0.6069 -0.7011
 1133TIP3    H224815   2.228   4.290   6.544 -0.3798 -0.2357  0.3948
 1134TIP3   OH224816   6.131   5.092   1.681 -0.2164  0.5185 -0.2093
 1134TIP3    H124817   6.190   5.164   1.705  0.4931 -0.4763  1.1088
 1134TIP3    H224818   6.063   5.133   1.627  0.4600  2.0822  0.1102
 1135TIP3   OH224819   4.270   1.674   5.956  0.1096 -0.3016 -0.6382
 1135TIP3    H124820   4.210   1.657   5.883 -0.6761 -1.6438  0.3099
 1135TIP3    H224821   4.304   1.761   5.938 -1.6401  0.2312 -1.5151
 1136TIP3   OH224822   3.217   3.797   1.130 -0.1335  0.1944  0.0595
 1136TIP3    H124823   3.282   3.863   1.152 -0.1385  0.1813  0.1131
 1136TIP3    H224824   3.143   3.816   1.188  1.0347 -1.7797  2.2797
 1137TIP3   OH224825   2.562   5.099   2.033  0.3233 -1.1859  0.2225
 1137TIP3    H124826   2.508   5.114   1.955  0.3769 -0.4996  0.3127
 1137TIP3    H224827   2.576   5.186   2.069 -0.1444 -1.5449  1.3040
 1138TIP3   OH224828   4.127   2.197   0.711 -0.1365  0.0332  0.0356
 1138TIP3    H124829   4.105   2.189   0.804  2.4843 -1.7658  0.5535
 1138TIP3    H224830   4.054   2.158   0.665 -0.3684 -1.2551  1.4655
 1139TIP3   OH224831   0.918   1.520  17.174 -0.3929  0.0786  0.6318
 1139TIP3    H124832   0.937   1.456  17.105  0.4311 -0.0364  0.9581
 1139TIP3    H224833   0.873   1.592  17.129  0.1637  0.0170 -0.0218
 1140TIP3   OH224834   5.431   0.605   5.764 -0.0785  0.0767 -0.3662
 1140TIP3    H124835   5.393   0.560   5.687  0.6959 -0.6567 -0.3321
 1140TIP3    H224836   5.487   0.673   5.727 -1.3609  1.1273 -0.4179
 1141TIP3   OH224837   3.896   1.730  14.996 -0.5771  0.5873  0.0953
 1141TIP3    H124838   3.829   1.724  14.928 -1.3154  1.3829  0.7365
 1141TIP3    H224839   3.863   1.674  15.066  1.6763 -2.7593 -1.3759
 1142TIP3   OH224840   3.929   1.666  15.283  0.3591  0.5749  0.0738
 1142TIP3    H124841   3.882   1.737  15.327 -0.3384 -0.0998  0.4351
 1142TIP3    H224842   4.012   1.705  15.256  1.0720  0.8460  2.5202
 1143TIP3   OH224843   6.635   4.963   0.015  0.0925 -0.0303 -0.8253
 1143TIP3    H124844   6.594   4.964  -0.072 -1.6242 -1.7648 -0.0913
 1143TIP3    H224845   6.724   4.933  -0.000 -0.0684  0.0735 -2.0290
 1144TIP3   OH224846   5.567   0.733   1.125 -0.3905 -0.1705 -0.1817
 1144TIP3    H124847   5.639   0.774   1.078 -0.0974  0.8790  1.1592
 1144TIP3    H224848   5.512   0.806   1.154 -2.9287 -1.0025 -2.5887
 1145TIP3   OH224849   0.135   4.666  16.144 -0.1234 -0.8475  0.0481
 1145TIP3    H124850   0.156   4.720  16.220 -1.1224 -0.4106  0.0133
 1145TIP3    H224851   0.150   4.723  16.068 -2.1641 -0.2717  0.0536
 1146TIP3   OH224852   4.155   3.038   1.147  0.1312  0.0472  0.5827
 1146TIP3    H124853   4.138   3.055   1.240  0.4940 -0.3772  0.7293
 1146TIP3    H224854   4.159   2.942   1.141 -1.3761  0.0098 -0.1265
 1147TIP3   OH224855   5.214   0.650  13.901 -0.1006 -0.6110  0.1580
 1147TIP3    H124856   5.260   0.731  13.926 -1.5448  0.0143  0.8782
 1147TIP3    H224857   5.276   0.580  13.922  1.5523  0.3538 -1.3842
 1148TIP3   OH224858   5.350   3.428   1.917 -0.3228  0.1014 -0.0572
 1148TIP3    H124859   5.320   3.374   1.990  0.8492 -0.1694  0.2291
 1148TIP3    H224860   5.434   3.389   1.892  1.1868  2.5683  1.0121
 1149TIP3   OH224861   4.880   0.838  14.291  0.0000  0.1198  0.4724
 1149TIP3    H124862   4.847   0.925  14.313  1.3969  0.7620  0.0222
 1149TIP3    H224863   4.957   0.853  14.236  0.0062 -1.4008  0.0258
 1150TIP3   OH224864   6.283   0.637  12.507 -0.1938 -0.7217  0.2573
 1150TIP3    H124865   6.192   0.610  12.512  0.1101 -2.1305 -1.3166
 1150TIP3    H224866   6.294   0.670  12.418  0.7319 -0.1336  0.5720
 1151TIP3   OH224867   4.075   2.983  14.935 -0.2768 -0.0079  0.0087
 1151TIP3    H124868   3.991   3.009  14.974 -0.6854 -0.7812 -0.3611
 1151TIP3    H224869   4.137   3.047  14.969 -0.9664  0.4048  0.5062
 1152TIP3   OH224870   3.308   1.283   0.108  0.5197 -0.7403 -0.1996
 1152TIP3    H124871   3.337   1.199   0.072  1.0351 -0.1902 -1.1058
 1152TIP3    H224872   3.357   1.293   0.190  0.0303 -1.5796  0.2008
 1153TIP3   OH224873   0.794   1.155  13.082 -0.1540 -0.0768 -0.5215
 1153TIP3    H124874   0.815   1.209  13.158  0.4925 -1.0210 -0.0254
 1153TIP3    H224875   0.799   1.216  13.007 -0.9309  0.8838  0.1899
 1154TIP3   OH224876   5.898   6.741   1.335  0.6527  0.3067  0.0942
 1154TIP3    H124877   5.828   6.700   1.387  1.0311 -0.5639 -0.0793
 1154TIP3    H224878   5.878   6.717   1.245  0.2633  1.4292 -0.1297
 1155TIP3   OH224879   5.182   5.541  12.983 -0.4737 -0.3026 -1.0612
 1155TIP3    H124880   5.189   5.490  13.064 -1.6126 -0.4108 -1.0248
 1155TIP3    H224881   5.246   5.612  12.994 -2.4056  1.1632  1.0358
 1156TIP3   OH224882   2.911   0.884  15.366  0.1911 -0.2420  0.0096
 1156TIP3    H124883   2.964   0.901  15.288  0.3579  2.1905  0.6261
 1156TIP3    H224884   2.969   0.904  15.439 -0.9258  0.4911  0.7057
 1157TIP3   OH224885   1.440   4.321   0.129  0.4073  0.0646  0.3402
 1157TIP3    H124886   1.390   4.380   0.185 -2.1795 -2.2622  0.5669
 1157TIP3    H224887   1.374   4.269   0.083  2.5587 -0.6718 -2.0186
 1158TIP3   OH224888   1.607   3.853   3.167 -0.0956  0.3580  0.3708
 1158TIP3    H124889   1.586   3.882   3.255 -2.5798  0.2569 -0.1583
 1158TIP3    H224890   1.640   3.931   3.123  0.5382  0.5563  1.1840
 1159TIP3   OH224891   6.423   6.344   4.489 -0.9499 -0.6460 -0.0308
 1159TIP3    H124892   6.508   6.339   4.447  0.2414 -0.9234  2.3403
 1159TIP3    H224893   6.362   6.366   4.418  1.0773 -0.4139 -1.7328
 1160TIP3   OH224894   5.397   6.659  12.805 -0.5880  0.4351 -0.5120
 1160TIP3    H124895   5.395   6.589  12.740 -0.7918 -1.5957  1.6164
 1160TIP3    H224896   5.469   6.716  12.776 -1.4270  0.2535 -3.1330
 1161TIP3   OH224897   1.933   5.388  14.385  0.7008 -0.0745  0.1873
 1161TIP3    H124898   1.988   5.419  14.457  0.1651  0.5370  0.3371
 1161TIP3    H224899   1.994   5.344  14.325  1.3210  0.4233  0.4492
 1162TIP3   OH224900   5.135   5.255  15.555  0.2651 -0.2060  0.1439
 1162TIP3    H124901   5.147   5.257  15.461  1.0305 -0.7908  0.2284
 1162TIP3    H224902   5.109   5.345  15.578  0.7710  0.1103 -0.5269
 1163TIP3   OH224903   5.667   0.451   3.230 -0.6251  0.0771 -1.2382
 1163TIP3    H124904   5.687   0.455   3.324 -2.4465 -1.2143 -0.7697
 1163TIP3    H224905   5.698   0.535   3.196  3.0951 -0.7218 -0.1395
 1164TIP3   OH224906   6.480   2.163   4.321 -0.2573  0.1114 -0.2365
 1164TIP3    H124907   6.558   2.112   4.297 -1.5316 -1.3333 -1.3582
 1164TIP3    H224908   6.451   2.125   4.404  0.5311  1.0158  0.4685
 1165TIP3   OH224909   2.021   1.781  16.854  0.6397  0.7672  0.0945
 1165TIP3    H124910   1.929   1.774  16.829  0.8483  0.1375 -0.5062
 1165TIP3    H224911   2.067   1.725  16.792  1.3208  0.2744  1.0369
 1166TIP3   OH224912   4.955   1.335  17.209 -0.0698 -0.6567  0.5096
 1166TIP3    H124913   4.946   1.249  17.169 -0.8739 -0.1592 -0.3957
 1166TIP3    H224914   5.040   1.332  17.254  0.2072 -1.6914 -0.0662
 1167TIP3   OH224915   3.869   0.514   0.743 -0.1494 -0.6576 -0.6036
 1167TIP3    H124916   3.894   0.438   0.795  3.9003  0.7712 -0.2473
 1167TIP3    H224917   3.874   0.485   0.652  1.5300 -0.8323 -0.4745
 1168TIP3   OH224918   1.025   5.646   0.183 -0.0143  0.1893  0.6591
 1168TIP3    H124919   1.109   5.607   0.157 -0.4623  0.6647 -1.6003
 1168TIP3    H224920   1.011   5.716   0.120 -1.3918  1.1250  1.9723
 1169TIP3   OH224921   0.923   6.704  13.867  0.4301  0.2302  0.1167
 1169TIP3    H124922   0.957   6.790  13.893  1.0729 -0.8044  2.9095
 1169TIP3    H224923   0.862   6.680  13.937 -2.7371  0.0730 -2.5930
 1170TIP3   OH224924   5.626   6.566   5.739 -0.3071  0.2548  0.2981
 1170TIP3    H124925   5.685   6.571   5.664 -0.5537 -0.4169  0.0553
 1170TIP3    H224926   5.547   6.612   5.710  0.3206  1.7299  0.8548
 1171TIP3   OH224927   1.720   0.477   2.786 -0.3248  0.2387 -0.4059
 1171TIP3    H124928   1.732   0.548   2.723  1.6762  1.8840  1.7407
 1171TIP3    H224929   1.784   0.410   2.760  0.0201  0.6171 -0.5389
 1172TIP3   OH224930   2.648   5.300  14.765 -0.2408 -0.7170 -0.0640
 1172TIP3    H124931   2.674   5.259  14.848  0.9717  0.7019  0.2728
 1172TIP3    H224932   2.640   5.393  14.785 -0.4724 -0.4314 -1.4171
 1173TIP3   OH224933   4.621   1.561   5.138 -0.7076 -0.4481  0.1563
 1173TIP3    H124934   4.550   1.622   5.156 -1.8818 -2.1268  1.3584
 1173TIP3    H224935   4.633   1.565   5.043 -2.3453 -0.0813 -0.0531
 1174TIP3   OH224936   0.246   4.726   3.219  0.3732  0.3636 -0.4356
 1174TIP3    H124937   0.174   4.676   3.182 -0.9583  2.1230 -0.2612
 1174TIP3    H224938   0.249   4.700   3.311 -0.0456  0.3150 -0.4389
 1175TIP3   OH224939   2.171   4.321   2.027 -0.2312 -0.0981 -0.4298
 1175TIP3    H124940   2.179   4.382   2.101  0.1316 -1.9552  1.0964
 1175TIP3    H224941   2.077   4.314   2.012 -0.2914  0.5661 -0.3965
 1176TIP3   OH224942   6.601   6.397   2.507  0.2728  0.6191  0.6094
 1176TIP3    H124943   6.683   6.394   2.459  0.5204 -0.5721  1.0840
 1176TIP3    H224944   6.589   6.307   2.540 -2.1994  0.2924 -1.1011
 1177TIP3   OH224945   6.620   0.982   2.571 -0.0364  0.0029  0.6485
 1177TIP3    H124946   6.711   0.954   2.557 -0.2851 -0.4563 -0.0736
 1177TIP3    H224947   6.607   0.973   2.666  0.1244 -1.6624  0.5343
 1178TIP3   OH224948   3.303   6.532   1.543  0.0923  0.4801  0.1736
 1178TIP3    H124949   3.211   6.503   1.543  0.9089 -2.3902 -2.5367
 1178TIP3    H224950   3.344   6.483   1.614 -0.0099  0.2191  0.0503
 1179TIP3   OH224951   5.300   6.270   1.768  0.3096  0.2791 -0.1380
 1179TIP3    H124952   5.277   6.334   1.701 -1.6609 -0.6054 -0.3331
 1179TIP3    H224953   5.221   6.217   1.780  1.5037 -1.3420  0.9044
 1180TIP3   OH224954   3.582   6.248   3.552 -0.5258  0.5133 -0.0835
 1180TIP3    H124955   3.620   6.336   3.551 -1.1117  0.7720 -1.4418
 1180TIP3    H224956   3.512   6.252   3.486 -1.5681 -0.5233  0.9329
 1181TIP3   OH224957   3.262   1.500  16.042 -0.3790 -0.2200 -0.1646
 1181TIP3    H124958   3.302   1.587  16.044 -0.6108 -0.1020 -0.6251
 1181TIP3    H224959   3.214   1.497  15.959  2.3786 -2.0191 -1.7674
 1182TIP3   OH224960   3.458   4.662  10.670  0.6586  0.4838  0.3481
 1182TIP3    H124961   3.523   4.597  10.644  0.3081  0.5568 -0.7485
 1182TIP3    H224962   3.495   4.746  10.641  0.4469  0.6105  0.4393
 1183TIP3   OH224963   5.997   5.676  10.770  0.2611 -0.1925  0.4305
 1183TIP3    H124964   5.934   5.653  10.701  0.2573  1.3075 -0.0792
 1183TIP3    H224965   6.078   5.632  10.744  0.0032 -0.4096 -0.0205
 1184TIP3   OH224966   5.628   3.713   4.306  0.4079 -0.6081 -0.1715
 1184TIP3    H124967   5.581   3.635   4.276  0.4603 -0.3289 -0.9725
 1184TIP3    H224968   5.713   3.708   4.263  0.5607 -0.3195  0.0967
 1185TIP3   OH224969   6.117   0.199  15.868 -0.3675  0.1028  0.6896
 1185TIP3    H124970   6.145   0.108  15.854 -3.2817 -0.5508 -1.2955
 1185TIP3    H224971   6.147   0.246  15.791  1.7085  1.0012  2.0159
 1186TIP3   OH224972   0.530   1.449  11.284  0.7609 -0.0105 -0.4309
 1186TIP3    H124973   0.583   1.485  11.355  0.7665 -1.9543  0.5790
 1186TIP3    H224974   0.588   1.387  11.240  0.1867 -0.1212 -1.0462
 1187TIP3   OH224975   3.322   4.359   1.917  0.1726  0.5766 -0.3898
 1187TIP3    H124976   3.265   4.366   1.841 -1.0554 -0.2951  0.4296
 1187TIP3    H224977   3.297   4.433   1.973  2.2129  2.2029 -1.5388
 1188TIP3   OH224978   2.868   4.992  14.855  0.0336  0.3185  0.3207
 1188TIP3    H124979   2.837   4.901  14.859 -1.1420  0.6728 -0.2673
 1188TIP3    H224980   2.932   4.999  14.925 -2.3407 -0.0514  2.6059
 1189TIP3   OH224981   2.297   5.277   2.077 -0.2525 -0.1363  0.2735
 1189TIP3    H124982   2.250   5.216   2.019 -2.0781  2.1607 -0.7501
 1189TIP3    H224983   2.286   5.240   2.164 -3.9962  0.2460  0.0596
 1190TIP3   OH224984   4.620   0.652   5.465  0.6190 -0.2075  0.1999
 1190TIP3    H124985   4.676   0.713   5.417 -1.0235 -0.8115 -2.6115
 1190TIP3    H224986   4.572   0.708   5.527  1.2660  0.9212 -0.2942
 1191TIP3   OH224987   0.700   1.096  17.034  0.5284  0.6446  0.7902
 1191TIP3    H124988   0.667   1.159  17.098  0.2666  1.4424 -0.1084
 1191TIP3    H224989   0.627   1.083  16.973  1.9687  2.7895 -1.4910
 1192TIP3   OH224990   2.774   4.202  15.063  0.5254  0.7966  0.6621
 1192TIP3    H124991   2.801   4.274  15.006 -0.1822  0.9919  0.5698
 1192TIP3    H224992   2.771   4.239  15.151  0.5048  0.7887  0.6656
 1193TIP3   OH224993   0.272   3.989   1.657 -0.7876  0.0104 -0.1330
 1193TIP3    H124994   0.341   3.926   1.676 -0.0545  1.1481  1.0724
 1193TIP3    H224995   0.266   3.990   1.562  0.2836 -0.7144 -0.2207
 1194TIP3   OH224996   6.370   1.726   5.860 -0.0079 -0.5432 -0.4835
 1194TIP3    H124997   6.381   1.812   5.819  0.4056 -0.9867 -1.3381
 1194TIP3    H224998   6.303   1.739   5.927 -1.7079 -0.0990 -2.2345
 1195TIP3   OH224999   4.180   1.523   0.191 -0.7859 -0.1304  0.1681
 1195TIP3    H125000   4.158   1.588   0.257  0.1052 -2.3227  2.6862
 1195TIP3    H225001   4.097   1.478   0.173 -1.2282  1.0982 -0.9711
 1196TIP3   OH225002   1.459   1.482  12.702  0.2897  0.3532  0.2708
 1196TIP3    H125003   1.496   1.545  12.640  0.6949 -0.1099  0.0412
 1196TIP3    H225004   1.399   1.429  12.650  0.9407 -0.3053  0.1849
 1197TIP3   OH225005   3.952   1.140  13.225 -0.5356  0.1732  0.4630
 1197TIP3    H125006   3.961   1.188  13.307  0.1729  0.3320  0.2960
 1197TIP3    H225007   4.040   1.108  13.205 -0.1661  2.2471 -1.4987
 1198TIP3   OH225008   3.820   6.338  16.775 -0.0982  0.3968  0.2448
 1198TIP3    H125009   3.776   6.398  16.715  0.4887  0.2446 -0.3351
 1198TIP3    H225010   3.766   6.258  16.772 -0.8037  0.8342  0.9150
 1199TIP3   OH225011   5.151   4.170  16.461 -0.2351 -0.4256 -0.5497
 1199TIP3    H125012   5.210   4.201  16.393  0.1936 -1.4959 -0.6751
 1199TIP3    H225013   5.072   4.223  16.451 -0.4227 -0.9890 -2.2836
 1200TIP3   OH225014   3.654   6.064  13.436  0.0149  0.4148  0.3697
 1200TIP3    H125015   3.691   6.028  13.517 -1.2740  0.4137  0.9802
 1200TIP3    H225016   3.687   6.007  13.367  0.1757 -0.3121  1.0424
 1201TIP3   OH225017   2.344   2.893   2.141  0.6851  0.0537  0.3397
 1201TIP3    H125018   2.282   2.966   2.137 -0.4062 -0.8970 -0.6259
 1201TIP3    H225019   2.326   2.843   2.062  2.5347 -0.3813  0.1842
 1202TIP3   OH225020   1.534   0.800  16.435 -0.1483  0.3271  0.0172
 1202TIP3    H125021   1.570   0.872  16.487 -0.1539 -0.5245  1.2403
 1202TIP3    H225022   1.601   0.732  16.440 -0.0687  0.2945 -1.2719
 1203TIP3   OH225023   5.293   0.868   3.544 -0.1892  0.3964 -0.1064
 1203TIP3    H125024   5.366   0.816   3.578 -1.9353 -1.3259  1.1065
 1203TIP3    H225025   5.229   0.869   3.615 -1.3312  1.9298 -1.1325
 1204TIP3   OH225026   3.554   2.458   0.423 -0.4872  0.0816  0.2888
 1204TIP3    H125027   3.511   2.514   0.487 -1.6147  0.6718 -0.9527
 1204TIP3    H225028   3.584   2.518   0.355  2.4616 -0.3064  1.1859
 1205TIP3   OH225029   0.546   0.310   4.955 -0.1378 -0.1959 -0.2662
 1205TIP3    H125030   0.465   0.264   4.937  0.0431 -0.5771 -0.1201
 1205TIP3    H225031   0.527   0.363   5.033  0.1463 -1.3059  0.5669
 1206TIP3   OH225032   5.044   0.527  13.000  0.2417  0.0597  0.0898
 1206TIP3    H125033   5.104   0.570  12.940 -0.9878 -0.9129 -1.9073
 1206TIP3    H225034   4.986   0.597  13.031  2.0551  0.9076  1.6445
 1207TIP3   OH225035   2.027   6.204   3.311  0.5914  0.2583  0.1046
 1207TIP3    H125036   1.971   6.147   3.259  0.3537 -0.7464  1.4323
 1207TIP3    H225037   2.036   6.284   3.258 -0.5270 -0.3096 -0.9666
 1208TIP3   OH225038   3.873   2.153   0.573 -0.3314  1.0751 -0.4416
 1208TIP3    H125039   3.836   2.209   0.641  0.0587  2.7091 -1.5520
 1208TIP3    H225040   3.831   2.183   0.492 -1.0081 -1.0387 -0.9030
 1209TIP3   OH225041   0.106   5.624   3.098  0.1312 -0.3003  0.3767
 1209TIP3    H125042   0.074   5.575   3.022 -0.3929 -0.5587  0.7601
 1209TIP3    H225043   0.198   5.600   3.106  0.4562  0.5341 -0.8098
 1210TIP3   OH225044   1.296   2.941  16.593  0.0103 -0.3957 -0.3150
 1210TIP3    H125045   1.204   2.951  16.569 -0.8099  3.1044  3.6669
 1210TIP3    H225046   1.294   2.897  16.678  1.8518  0.8911  0.4299
 1211TIP3   OH225047   3.740   2.363   3.668 -0.0959  0.2863  0.4514
 1211TIP3    H125048   3.669   2.307   3.638  0.6031 -0.2594 -0.1933
 1211TIP3    H225049   3.728   2.445   3.619 -0.2680  0.1803  0.3163
 1212TIP3   OH225050   0.091   4.738  12.304  0.1645 -0.0511 -0.2430
 1212TIP3    H125051   0.154   4.707  12.369  1.7758  2.0275 -0.7273
 1212TIP3    H225052   0.005   4.718  12.341  1.0424  1.1610  2.5610
 1213TIP3   OH225053   2.175   2.730   1.965 -0.0572  0.1839 -0.0335
 1213TIP3    H125054   2.111   2.682   2.018  0.9322 -1.3875 -0.2488
 1213TIP3    H225055   2.187   2.676   1.887 -0.5807  1.8814 -1.3273
 1214TIP3   OH225056   5.778   2.525   5.141  0.2214  0.1526  0.3470
 1214TIP3    H125057   5.782   2.614   5.177 -0.5073  0.0671  0.6381
 1214TIP3    H225058   5.863   2.487   5.161  1.2970  1.4695 -1.5425
 1215TIP3   OH225059   5.605   2.619  13.229 -0.1571  0.1362 -0.3771
 1215TIP3    H125060   5.689   2.584  13.260  0.4680  0.4981 -1.6484
 1215TIP3    H225061   5.550   2.621  13.307  0.6625 -1.1516  0.2485
 1216TIP3   OH225062   2.307   1.770   3.298  0.0875 -0.4175 -0.9490
 1216TIP3    H125063   2.364   1.775   3.221  1.9660 -1.0322  0.3960
 1216TIP3    H225064   2.242   1.704   3.275  0.2203 -0.1043 -2.2745
 1217TIP3   OH225065   0.096   3.198   5.696 -0.2203  0.0907  0.2025
 1217TIP3    H125066   0.189   3.181   5.682  0.1139  0.9536  1.3160
 1217TIP3    H225067   0.071   3.137   5.766 -0.5123 -0.2021 -0.1574
 1218TIP3   OH225068   4.861   5.017   2.155 -0.1490  0.3326 -0.0619
 1218TIP3    H125069   4.788   4.955   2.155  0.2375 -0.1246 -0.9322
 1218TIP3    H225070   4.864   5.052   2.066 -0.1767  1.3872  0.3444
 1219TIP3   OH225071   1.979   3.999   0.630  0.4403  0.4298  0.1196
 1219TIP3    H125072   1.933   4.036   0.705  1.7163  1.3512  0.4529
 1219TIP3    H225073   1.914   3.941   0.589 -0.1969 -0.2523  2.0309
 1220TIP3   OH225074   2.251   3.047  16.654  0.8689 -0.0830 -0.1215
 1220TIP3    H125075   2.177   3.092  16.696 -0.1683 -1.0886 -0.8498
 1220TIP3    H225076   2.318   3.045  16.722  0.1160  0.5454  0.6707
 1221TIP3   OH225077   1.620   0.415  11.280  0.4106  0.5104 -0.1866
 1221TIP3    H125078   1.574   0.424  11.196 -2.0580 -1.0412  0.9395
 1221TIP3    H225079   1.641   0.504  11.306 -0.3248  1.1155 -1.6461
 1222TIP3   OH225080   5.777   1.014  14.682 -0.6046 -0.1828  0.2635
 1222TIP3    H125081   5.862   1.041  14.649 -0.3787 -2.4419 -1.1024
 1222TIP3    H225082   5.776   1.042  14.774  0.7672  1.6648 -0.2666
 1223TIP3   OH225083   1.746   1.459  15.581 -0.2318 -0.0284  0.3166
 1223TIP3    H125084   1.801   1.432  15.508 -0.2922 -0.1444  0.3156
 1223TIP3    H225085   1.709   1.543  15.553  1.1732  0.8270  0.9481
 1224TIP3   OH225086   6.751   1.382   1.821 -0.1761  0.0287 -0.4732
 1224TIP3    H125087   6.725   1.366   1.912 -2.7776 -2.7147 -1.6237
 1224TIP3    H225088   6.804   1.306   1.798  0.3222  0.6330 -1.3251
 1225TIP3   OH225089   6.323   3.071   3.590  0.3929 -0.2540  0.5467
 1225TIP3    H125090   6.316   3.029   3.675  1.8140  0.3949  0.9835
 1225TIP3    H225091   6.298   3.162   3.606  1.0730 -0.0338  0.3495
 1226TIP3   OH225092   6.333   1.901   1.244 -0.2249 -0.5102 -0.6320
 1226TIP3    H125093   6.273   1.892   1.170  1.6325  0.4377 -2.2810
 1226TIP3    H225094   6.309   1.984   1.285 -0.3380 -0.3572 -1.0081
 1227TIP3   OH225095   5.665   4.680  15.774  0.0512 -0.1302 -0.0544
 1227TIP3    H125096   5.626   4.704  15.690  0.8711 -0.6336 -0.5840
 1227TIP3    H225097   5.730   4.613  15.753 -0.7025 -1.2665  1.1461
 1228TIP3   OH225098   2.250   3.990   4.826  0.0940 -0.0028  0.1134
 1228TIP3    H125099   2.321   3.930   4.800  1.6245  0.8218  2.2054
 1228TIP3    H225100   2.206   3.944   4.897 -0.5857  0.1034 -0.2427
 1229TIP3   OH225101   0.488   2.280  12.519  0.6671  0.2799 -0.0651
 1229TIP3    H125102   0.521   2.236  12.441 -0.0249  1.8380 -1.2723
 1229TIP3    H225103   0.548   2.353  12.533  0.4571  0.3443  0.5206
 1230TIP3   OH225104   5.161   3.114  15.242 -0.4279 -0.1330 -0.4915
 1230TIP3    H125105   5.225   3.061  15.195 -0.8260 -3.5277  2.5909
 1230TIP3    H225106   5.213   3.174  15.295  0.1045  0.3638 -1.5707
 1231TIP3   OH225107   3.569   5.136   1.658  0.0345 -0.3126 -0.2000
 1231TIP3    H125108   3.615   5.078   1.718 -0.1942 -1.0608 -0.7447
 1231TIP3    H225109   3.583   5.097   1.572 -0.1401  0.4273 -0.5647
 1232TIP3   OH225110   1.576   2.236   1.381  0.0790 -0.4064  0.5132
 1232TIP3    H125111   1.605   2.322   1.410  0.8648 -0.5873  0.2731
 1232TIP3    H225112   1.498   2.218   1.433  0.0035  0.3804  0.6780
 1233TIP3   OH225113   5.013   2.545   2.761 -0.0946  0.1842  0.1313
 1233TIP3    H125114   4.974   2.570   2.845 -2.4762  1.2672 -1.2301
 1233TIP3    H225115   5.026   2.450   2.768 -2.7910 -0.1822  0.7543
 1234TIP3   OH225116   5.934   5.294  14.517  0.1865  0.0312 -0.0887
 1234TIP3    H125117   5.871   5.366  14.510  0.0235  0.1154  2.0509
 1234TIP3    H225118   5.883   5.215  14.500  0.4892  0.4179 -3.0784
 1235TIP3   OH225119   4.452   4.095   3.659 -0.0119  0.9310  0.4452
 1235TIP3    H125120   4.413   4.145   3.588 -0.2627 -0.4417 -0.3984
 1235TIP3    H225121   4.528   4.052   3.620 -0.0778  0.2688  1.0237
 1236TIP3   OH225122   5.424   5.923  11.978 -0.3236 -0.3965  0.1423
 1236TIP3    H125123   5.359   5.926  11.908 -1.2752  0.0010  1.0322
 1236TIP3    H225124   5.444   5.829  11.988  2.1170 -0.2699 -2.7097
 1237TIP3   OH225125   1.578   3.217   2.255 -0.0023 -0.3709  0.3960
 1237TIP3    H125126   1.540   3.193   2.171  1.4079 -1.4265  0.0443
 1237TIP3    H225127   1.601   3.133   2.296  0.9817  0.2158  1.0508
 1238TIP3   OH225128   2.923   2.560   5.434  0.0660  0.2252 -0.5462
 1238TIP3    H125129   2.983   2.565   5.508 -0.5597  0.2236 -0.0344
 1238TIP3    H225130   2.889   2.471   5.437 -0.2546  0.3439 -0.6010
 1239TIP3   OH225131   3.034   3.032  16.576  0.1292 -0.9574 -0.3279
 1239TIP3    H125132   3.005   3.026  16.485 -1.3518 -1.6073  0.1630
 1239TIP3    H225133   3.067   2.944  16.596  0.3184 -0.8542 -0.1905
 1240TIP3   OH225134   2.859   2.309  16.412 -0.0919 -0.4488  0.2706
 1240TIP3    H125135   2.919   2.309  16.337  0.8002  2.7611  0.9106
 1240TIP3    H225136   2.890   2.238  16.468  1.0246 -0.9898 -1.0114
 1241TIP3   OH225137   0.548   1.717   2.349 -0.1309  0.1348 -0.6441
 1241TIP3    H125138   0.624   1.668   2.380  0.6532  1.4420 -0.4268
 1241TIP3    H225139   0.585   1.793   2.304 -1.3083  0.3381 -1.2971
 1242TIP3   OH225140   5.703   4.719  13.993  0.5306  0.2483  0.4977
 1242TIP3    H125141   5.621   4.678  14.019 -0.0391  1.5274  0.7266
 1242TIP3    H225142   5.735   4.665  13.920 -3.3596  3.0056 -3.4407
 1243TIP3   OH225143   0.264   4.763   0.739  0.2133  0.2288 -0.2180
 1243TIP3    H125144   0.209   4.722   0.673  0.7526 -0.0076 -0.5224
 1243TIP3    H225145   0.339   4.798   0.690  1.5271 -1.5215  0.4734
 1244TIP3   OH225146   6.097   6.020  11.270  0.1490  0.4250 -0.3225
 1244TIP3    H125147   6.159   5.947  11.261 -1.2215 -0.7611 -0.3732
 1244TIP3    H225148   6.083   6.028  11.364  1.0110  1.2434 -0.2595
 1245TIP3   OH225149   4.864   3.409  12.046 -0.4136 -0.2298 -0.8206
 1245TIP3    H125150   4.831   3.391  11.957 -3.3350 -4.1935  0.8974
 1245TIP3    H225151   4.794   3.460  12.087  0.0320 -0.1361 -0.1745
 1246TIP3   OH225152   3.288   1.301  11.022 -0.2661  0.3495 -0.1221
 1246TIP3    H125153   3.291   1.313  11.117 -0.1460 -1.3370  0.0981
 1246TIP3    H225154   3.301   1.208  11.010  1.5824  0.8180 -1.9018
 1247TIP3   OH225155   4.210   2.790   4.001 -0.0865 -0.5174 -0.5527
 1247TIP3    H125156   4.202   2.867   4.057 -1.1918 -0.6907 -0.4580
 1247TIP3    H225157   4.278   2.813   3.938  0.0520  0.2844 -0.1189
 1248TIP3   OH225158   6.179   6.627  16.266  0.1896  0.3579  0.0882
 1248TIP3    H125159   6.187   6.640  16.171 -0.8163 -1.5573 -0.2776
 1248TIP3    H225160   6.252   6.677  16.303  1.0275  0.5328 -1.7443
 1249TIP3   OH225161   0.670   1.726  14.671 -0.3476  0.4119 -0.2430
 1249TIP3    H125162   0.701   1.636  14.682 -2.1308 -0.3347 -1.0891
 1249TIP3    H225163   0.742   1.781  14.702  0.5948 -1.3166  0.6784
 1250TIP3   OH225164   4.169   4.018  14.157  0.3350  0.1219  0.0546
 1250TIP3    H125165   4.177   4.113  14.170 -1.1325  0.1625  0.7948
 1250TIP3    H225166   4.076   4.005  14.137  0.8100 -0.9920 -1.5850
 1251TIP3   OH225167   5.992   0.536  14.874 -0.2447 -0.5617 -0.0914
 1251TIP3    H125168   5.972   0.447  14.904 -2.0108 -0.3776 -0.6255
 1251TIP3    H225169   6.037   0.523  14.790 -1.1484 -0.9585 -0.5279
 1252TIP3   OH225170   0.690   1.540  11.484  0.2072  0.0847  0.5399
 1252TIP3    H125171   0.662   1.619  11.530  1.2768  0.9535 -0.2775
 1252TIP3    H225172   0.728   1.485  11.552 -1.9482 -0.4199  1.3824
 1253TIP3   OH225173   1.705   5.006   4.393  0.3304  0.0779  0.3419
 1253TIP3    H125174   1.641   5.077   4.393  0.5381  0.2944 -1.6715
 1253TIP3    H225175   1.759   5.023   4.470  0.1473  1.9215  0.1027
 1254TIP3   OH225176   5.045   3.004  11.516 -0.2244 -0.2677 -0.1430
 1254TIP3    H125177   5.088   3.059  11.581 -3.4866  0.5939  1.4237
 1254TIP3    H225178   5.026   3.063  11.443  1.1690 -0.6301 -0.8023
 1255TIP3   OH225179   1.767   0.672  14.445 -0.1100 -0.6313  0.3423
 1255TIP3    H125180   1.726   0.645  14.527 -0.9968 -0.2679  0.0209
 1255TIP3    H225181   1.748   0.766  14.439 -2.3682 -1.1933 -1.6080
 1256TIP3   OH225182   5.632   3.097   0.873  0.0366 -0.6869  0.7756
 1256TIP3    H125183   5.630   3.002   0.859 -2.1822 -0.4902 -0.5930
 1256TIP3    H225184   5.723   3.117   0.895  1.0881 -2.8015 -1.4200
 1257TIP3   OH225185   6.661   4.135  16.881 -0.2953  0.2783  0.0346
 1257TIP3    H125186   6.735   4.190  16.909  0.4994  0.4878 -2.3931
 1257TIP3    H225187   6.671   4.127  16.786 -1.9861 -1.7931 -0.0043
 1258TIP3   OH225188   1.802   1.242  13.602  0.0284 -0.2594  0.2908
 1258TIP3    H125189   1.777   1.233  13.511 -1.0647  0.0687  0.5564
 1258TIP3    H225190   1.771   1.162  13.644  0.3654 -0.3273  0.4179
 1259TIP3   OH225191   4.416   2.436   2.921 -0.0135 -0.3625  0.6844
 1259TIP3    H125192   4.475   2.368   2.887 -0.6407 -0.5169 -0.0915
 1259TIP3    H225193   4.329   2.408   2.895 -0.2308  1.0450 -0.1482
 1260TIP3   OH225194   3.025   6.769   5.231 -0.2423  0.1030 -0.2288
 1260TIP3    H125195   3.019   6.832   5.303 -0.0655 -0.0089 -0.1169
 1260TIP3    H225196   3.032   6.684   5.274 -1.0165 -0.0415 -0.3824
 1261TIP3   OH225197   0.912   3.442  11.130  0.2367 -0.1718 -0.3079
 1261TIP3    H125198   0.970   3.454  11.205 -0.8798 -2.1750  0.9149
 1261TIP3    H225199   0.910   3.347  11.116 -2.6704 -0.1534 -0.3329
 1262TIP3   OH225200   2.171   4.484   0.698  0.1037  0.0746 -0.3006
 1262TIP3    H125201   2.253   4.447   0.729  1.0772  1.6961 -0.8523
 1262TIP3    H225202   2.197   4.555   0.639 -1.6774  0.9096 -0.1504
 1263TIP3   OH225203   4.604   3.256   2.190  0.4410 -0.2524 -0.4176
 1263TIP3    H125204   4.577   3.167   2.211 -1.3235  0.3855  0.1332
 1263TIP3    H225205   4.523   3.307   2.193  1.4254  1.3705 -0.7168
 1264TIP3   OH225206   3.372   5.330  13.193  0.4680 -0.2719 -0.3067
 1264TIP3    H125207   3.344   5.353  13.281  1.0152 -0.1004 -0.1780
 1264TIP3    H225208   3.468   5.338  13.195  0.9604 -5.0820  0.4724
 1265TIP3   OH225209   5.666   3.621  16.788 -0.2411 -0.0270 -0.0800
 1265TIP3    H125210   5.725   3.546  16.793  0.3160  0.4935  1.1205
 1265TIP3    H225211   5.579   3.582  16.784 -0.0671 -0.7226  2.2035
 1266TIP3   OH225212   0.076   4.486   3.696 -0.4591  0.3145  0.4888
 1266TIP3    H125213   0.043   4.538   3.770 -0.0730 -1.4790  1.9383
 1266TIP3    H225214  -0.003   4.448   3.658 -0.7506  1.9535 -0.6053
 1267TIP3   OH225215   4.658   2.642  14.920 -0.0644  0.3112 -0.0340
 1267TIP3    H125216   4.589   2.575  14.917 -0.5498  0.7712  0.6580
 1267TIP3    H225217   4.627   2.705  14.985  1.2773  0.2419  0.6946
 1268TIP3   OH225218   1.934   3.769   0.862 -0.2525  0.1832  0.3212
 1268TIP3    H125219   2.001   3.763   0.929  0.7985  1.1142 -0.6298
 1268TIP3    H225220   1.943   3.689   0.811 -0.7233 -0.2900  0.9669
 1269TIP3   OH225221   2.881   1.601  14.499  0.0411 -0.3963 -0.7040
 1269TIP3    H125222   2.832   1.678  14.469  0.7909  0.4819  0.2825
 1269TIP3    H225223   2.863   1.597  14.593  1.8095 -0.0885 -0.3412
 1270TIP3   OH225224   1.765   2.517  16.029  0.3415  0.3359  0.0315
 1270TIP3    H125225   1.722   2.599  16.057 -2.1584 -0.5732 -0.9739
 1270TIP3    H225226   1.806   2.539  15.946 -0.9290  0.3973 -0.5859
 1271TIP3   OH225227   1.794   3.576  15.873 -0.6170  0.0944  0.3090
 1271TIP3    H125228   1.793   3.481  15.884 -0.3625 -0.0901 -1.1124
 1271TIP3    H225229   1.712   3.596  15.827  0.1753  0.3269 -1.0378
 1272TIP3   OH225230   5.343   1.270   1.354 -0.4162 -0.0336  0.5361
 1272TIP3    H125231   5.405   1.343   1.346  0.0476 -0.4896 -0.0515
 1272TIP3    H225232   5.352   1.222   1.272 -1.1019 -0.4598  0.7094
 1273TIP3   OH225233   1.775   3.281  14.267 -0.7730 -0.2769 -0.0024
 1273TIP3    H125234   1.860   3.304  14.229 -0.5253 -0.4975  0.4078
 1273TIP3    H225235   1.721   3.254  14.193 -0.5932  0.1887 -0.3066
 1274TIP3   OH225236   2.234   2.874   1.591  0.4222  0.1866  0.0757
 1274TIP3    H125237   2.241   2.920   1.507  0.7265 -0.8193 -0.4514
 1274TIP3    H225238   2.171   2.926   1.641  0.4192  0.9293 -0.6831
 1275TIP3   OH225239   5.078   3.819  13.784 -0.0835  0.4824 -0.6595
 1275TIP3    H125240   5.122   3.873  13.850 -0.3322 -1.4353  1.1486
 1275TIP3    H225241   4.988   3.853  13.781 -0.1038  0.5037  0.0945
 1276TIP3   OH225242   3.557   0.834  16.149  0.8367  0.1616  0.2264
 1276TIP3    H125243   3.471   0.860  16.116  0.2983  0.8397  2.1273
 1276TIP3    H225244   3.550   0.739  16.159  1.1966 -0.1522 -2.0617
 1277TIP3   OH225245   0.246   4.049  13.941 -0.1016 -0.3227  0.1823
 1277TIP3    H125246   0.279   4.139  13.944 -0.0111 -0.3825  1.2523
 1277TIP3    H225247   0.263   4.014  14.029  0.4226 -1.5879 -0.4116
 1278TIP3   OH225248   0.681   5.657  11.646 -1.0266  0.1880 -0.0521
 1278TIP3    H125249   0.757   5.635  11.699 -0.3593  0.2772 -0.9623
 1278TIP3    H225250   0.606   5.631  11.700 -0.3197 -1.8446  0.0127
 1279TIP3   OH225251   4.463   5.461  12.330  0.2970 -0.0190  0.1532
 1279TIP3    H125252   4.394   5.426  12.274  1.6906 -2.2836 -0.2308
 1279TIP3    H225253   4.544   5.437  12.285  1.3635  1.6343  1.1476
 1280TIP3   OH225254   4.565   4.172  15.454  0.1190 -0.2003  0.1607
 1280TIP3    H125255   4.629   4.215  15.511  0.2271 -1.1326  0.7583
 1280TIP3    H225256   4.617   4.132  15.385  0.1090 -0.2489  0.1802
 1281TIP3   OH225257   3.957   3.768   2.867  0.5843 -0.0824  0.6808
 1281TIP3    H125258   3.984   3.790   2.778 -0.5304  1.3848  0.6827
 1281TIP3    H225259   4.028   3.801   2.922  0.3400  0.8217  0.4654
 1282TIP3   OH225260   1.269   2.421   5.583 -0.2451 -0.2072 -0.0915
 1282TIP3    H125261   1.352   2.385   5.616  0.8167 -0.9386 -3.3765
 1282TIP3    H225262   1.239   2.357   5.519 -2.6328  0.7764  0.0121
 1283TIP3   OH225263   5.245   1.708  12.129  0.4349 -0.3299 -0.4498
 1283TIP3    H125264   5.204   1.730  12.045 -0.3660 -0.9753 -0.2390
 1283TIP3    H225265   5.178   1.730  12.194  1.5302  1.4079  0.1294
 1284TIP3   OH225266   3.092   5.689  16.859  0.1198 -0.0349 -0.5270
 1284TIP3    H125267   3.003   5.659  16.842 -1.3873  3.3561  0.9484
 1284TIP3    H225268   3.117   5.647  16.941 -0.7064  0.1423 -0.1826
 1285TIP3   OH225269   2.887   1.801   1.603  0.1601 -0.5670 -0.0405
 1285TIP3    H125270   2.925   1.831   1.520 -0.1513  1.8550  0.6381
 1285TIP3    H225271   2.795   1.785   1.583 -0.0422  0.5580 -0.0679
 1286TIP3   OH225272   5.829   4.354   2.568  0.2488 -0.0261 -0.0195
 1286TIP3    H125273   5.876   4.320   2.492 -1.7359 -3.2530  0.1222
 1286TIP3    H225274   5.777   4.427   2.533  2.4807  1.2224 -0.8773
 1287TIP3   OH225275   0.260   3.265   0.314  0.4879  0.0498 -0.0292
 1287TIP3    H125276   0.317   3.209   0.261  1.1461  0.6647  0.0076
 1287TIP3    H225277   0.172   3.244   0.285  0.6603 -1.6512  0.6212
 1288TIP3   OH225278   4.437   1.193  15.355  0.3168  0.3255 -0.2258
 1288TIP3    H125279   4.518   1.241  15.368  1.9946 -2.7497  1.1580
 1288TIP3    H225280   4.443   1.159  15.265 -0.0373  1.1524 -0.5663
 1289TIP3   OH225281   4.065   0.559  16.435  0.3447 -0.0631 -0.0751
 1289TIP3    H125282   4.132   0.512  16.485 -0.2378  1.2136  2.0139
 1289TIP3    H225283   3.999   0.493  16.414  0.8883 -0.7444  0.3411
 1290TIP3   OH225284   2.357   1.455  16.842 -0.2262 -0.3327 -0.0370
 1290TIP3    H125285   2.422   1.387  16.822  0.3267  0.4043 -0.7850
 1290TIP3    H225286   2.409   1.527  16.879 -0.7667 -0.1983  0.4576
 1291TIP3   OH225287   6.616   0.608   2.479 -0.4672 -0.1084  0.1674
 1291TIP3    H125288   6.675   0.669   2.435 -1.6636  2.0069  1.4082
 1291TIP3    H225289   6.532   0.653   2.481 -0.9873 -1.1031  2.5972
 1292TIP3   OH225290   3.259   4.683  11.364  0.3722  0.0461  0.0962
 1292TIP3    H125291   3.248   4.599  11.321  2.6967 -0.2425  0.0205
 1292TIP3    H225292   3.341   4.675  11.412  0.3620  2.1005  0.5070
 1293TIP3   OH225293   1.569   5.475   6.048  0.0196  0.7280  0.1852
 1293TIP3    H125294   1.525   5.445   6.127 -0.5354 -0.1100 -0.4413
 1293TIP3    H225295   1.592   5.567   6.067 -0.2540  0.5845  1.2428
 1294TIP3   OH225296   4.313   2.667   3.092  0.0790 -0.2965 -0.2506
 1294TIP3    H125297   4.348   2.599   3.149 -2.1951 -1.6497 -0.4083
 1294TIP3    H225298   4.323   2.748   3.142 -0.6256 -1.2743  1.5004
 1295TIP3   OH225299   0.204   5.375  13.900 -0.6397  0.3554 -0.2858
 1295TIP3    H125300   0.162   5.461  13.893 -0.1646  0.7510  1.5628
 1295TIP3    H225301   0.295   5.390  13.874 -0.6676  0.3040 -0.4169
 1296TIP3   OH225302   4.214   2.045  11.917  0.5258  0.0100 -0.3018
 1296TIP3    H125303   4.290   2.043  11.860  0.9960 -1.5447  0.3570
 1296TIP3    H225304   4.227   1.971  11.977 -0.8652  0.4973  0.6216
 1297TIP3   OH225305   5.859   6.753   4.414  0.2924  0.2557  0.3779
 1297TIP3    H125306   5.870   6.829   4.357 -0.4256  1.4500  1.7998
 1297TIP3    H225307   5.914   6.772   4.490 -0.4715 -0.2924  1.0808
 1298TIP3   OH225308   4.222   0.606  16.226  0.1172  0.0428  0.1552
 1298TIP3    H125309   4.168   0.612  16.305 -0.4124 -1.5027 -0.0763
 1298TIP3    H225310   4.159   0.612  16.154  0.5014  0.5411 -0.1406
 1299TIP3   OH225311   0.390   5.353   6.073  0.0460 -0.9122 -0.3372
 1299TIP3    H125312   0.331   5.398   6.011  0.8533 -1.8088 -1.7832
 1299TIP3    H225313   0.335   5.335   6.149 -0.9930  0.1331 -0.8158
 1300TIP3   OH225314   2.176   5.012   3.990 -0.0570 -0.5708 -0.1417
 1300TIP3    H125315   2.231   4.982   4.062  0.8157  0.4126 -0.3912
 1300TIP3    H225316   2.232   5.008   3.912 -0.2315  0.7070 -0.3526
 1301TIP3   OH225317   1.943   0.897   5.725  0.1569 -0.1995 -0.4411
 1301TIP3    H125318   2.031   0.858   5.725 -0.6400 -2.0603  0.3048
 1301TIP3    H225319   1.884   0.822   5.722 -1.4352  0.9736  0.6703
 1302TIP3   OH225320   2.728   2.129   0.629 -0.0849 -0.4979 -0.5312
 1302TIP3    H125321   2.721   2.034   0.626  1.1305 -0.6264  0.3073
 1302TIP3    H225322   2.822   2.147   0.620 -0.3278  0.6276 -0.9338
 1303TIP3   OH225323   4.289   1.248   3.918  0.4693  0.2135  0.3162
 1303TIP3    H125324   4.242   1.331   3.928  0.5867  0.4687 -1.0809
 1303TIP3    H225325   4.252   1.191   3.985 -0.0267  1.2164  0.9055
 1304TIP3   OH225326   6.390   2.430   3.513 -0.5403  0.0105  0.3785
 1304TIP3    H125327   6.326   2.472   3.455 -1.0125  0.1724  1.0118
 1304TIP3    H225328   6.429   2.362   3.460 -1.1486 -0.0021 -0.0608
 1305TIP3   OH225329   1.446   4.688   0.074  0.5416 -0.0556 -0.8980
 1305TIP3    H125330   1.457   4.717  -0.017  1.7371  0.9941 -0.4253
 1305TIP3    H225331   1.530   4.648   0.096  0.4483  0.2047 -0.0637
 1306TIP3   OH225332   5.198   4.273  13.053  0.4812 -0.5364  0.1651
 1306TIP3    H125333   5.198   4.240  12.963  0.8805  1.2786 -0.5123
 1306TIP3    H225334   5.282   4.317  13.064 -1.0325  2.5453  0.1507
 1307TIP3   OH225335   6.702   2.043  15.987 -1.0592  0.1714 -0.1241
 1307TIP3    H125336   6.669   2.077  16.070 -0.4606  0.1475  0.1236
 1307TIP3    H225337   6.650   2.088  15.920  1.5030  3.5956  0.0733
 1308TIP3   OH225338   2.099   3.283  13.238 -0.3104  0.1056  0.1957
 1308TIP3    H125339   2.066   3.372  13.230 -0.8700 -0.1105  0.0745
 1308TIP3    H225340   2.090   3.262  13.331  1.2861  0.7303  0.5108
 1309TIP3   OH225341   3.044   6.617  12.109 -0.4608 -0.1400 -0.4260
 1309TIP3    H125342   2.993   6.599  12.188 -0.0867  1.3759  0.1789
 1309TIP3    H225343   3.111   6.548  12.108 -2.4342 -2.1221 -1.2145
 1310TIP3   OH225344   5.125   6.112  16.691  0.5288  0.0601 -0.7304
 1310TIP3    H125345   5.108   6.018  16.692 -1.9094  0.4672  0.6097
 1310TIP3    H225346   5.100   6.141  16.603  1.2920 -0.5549 -1.1443
 1311TIP3   OH225347   6.588   4.670  11.406 -0.2328 -0.1004  0.0297
 1311TIP3    H125348   6.575   4.585  11.365 -0.7460 -1.0416  2.0857
 1311TIP3    H225349   6.500   4.708  11.409 -0.0067  0.5265 -0.8778
 1312TIP3   OH225350   1.053   3.882   2.926 -0.3202 -0.4375 -0.5054
 1312TIP3    H125351   1.127   3.892   2.986 -1.1874  0.8867  0.3814
 1312TIP3    H225352   0.977   3.869   2.984 -0.9065 -0.8678 -1.3701
 1313TIP3   OH225353   2.140   2.339   5.625  0.0956 -0.2111 -0.0735
 1313TIP3    H125354   2.102   2.256   5.654  0.0036  0.3220  1.4063
 1313TIP3    H225355   2.146   2.332   5.530 -0.6267 -1.6076 -0.0190
 1314TIP3   OH225356   1.451   6.672   6.298 -0.2128  0.0379  0.2918
 1314TIP3    H125357   1.393   6.725   6.352 -1.5290  0.4493 -1.4597
 1314TIP3    H225358   1.535   6.716   6.302 -1.1031  1.8570 -0.5182
 1315TIP3   OH225359   5.887   0.980   0.867 -0.2332  0.3911  0.1002
 1315TIP3    H125360   5.860   0.991   0.776  0.3571 -0.6031 -0.1914
 1315TIP3    H225361   5.981   0.993   0.867  0.0190 -1.3493  0.2802
 1316TIP3   OH225362   3.200   3.158  16.790 -0.6681 -0.5653 -0.1757
 1316TIP3    H125363   3.144   3.107  16.732 -0.9050 -0.0871 -0.3673
 1316TIP3    H225364   3.251   3.092  16.838 -1.0127 -0.9820 -0.3815
 1317TIP3   OH225365   2.108   0.614  11.733 -0.4845  0.2807  0.2502
 1317TIP3    H125366   2.143   0.547  11.791  2.0514  0.6976 -0.7230
 1317TIP3    H225367   2.022   0.635  11.769 -1.4501 -3.6591  0.4266
 1318TIP3   OH225368   1.550   5.642   3.087  0.0908  0.4482 -0.0729
 1318TIP3    H125369   1.597   5.559   3.075 -0.0473  0.5706 -1.6486
 1318TIP3    H225370   1.502   5.654   3.004  0.1125  2.1020  0.1445
 1319TIP3   OH225371   5.980   4.501  13.975 -0.6682  0.0359 -0.2730
 1319TIP3    H125372   5.954   4.449  13.899  3.2540 -1.0681 -0.9771
 1319TIP3    H225373   5.990   4.590  13.942  1.8565 -0.5937 -1.3321
 1320TIP3   OH225374   1.589   0.141   5.024  0.0050 -0.2440  0.2574
 1320TIP3    H125375   1.652   0.190   5.078 -0.9127  0.0177  1.1174
 1320TIP3    H225376   1.550   0.207   4.967 -1.1000  0.0142  1.2897
 1321TIP3   OH225377   3.477   4.552  11.531 -0.3052 -0.2304  0.2201
 1321TIP3    H125378   3.541   4.614  11.564 -0.7135  0.1380  0.3202
 1321TIP3    H225379   3.483   4.478  11.592 -0.0863 -0.1337  0.3181
 1322TIP3   OH225380   6.528   2.615  16.091 -0.2524 -0.0629 -0.4580
 1322TIP3    H125381   6.532   2.528  16.052  1.0874  0.9457 -2.6363
 1322TIP3    H225382   6.619   2.642  16.101 -0.5978  2.6082 -3.4451
 1323TIP3   OH225383   0.362   0.940   3.251 -0.2211 -0.1857 -0.1897
 1323TIP3    H125384   0.439   0.968   3.301 -0.2913  0.3912 -0.4027
 1323TIP3    H225385   0.341   0.853   3.287  0.5557 -0.3692 -0.1709
 1324TIP3   OH225386   4.649   2.119  13.064 -0.1386 -0.1485  0.0277
 1324TIP3    H125387   4.618   2.166  13.142 -1.2309  0.4707 -0.7620
 1324TIP3    H225388   4.743   2.134  13.062 -0.1548  0.1243  1.0354
 1325TIP3   OH225389   5.658   5.784  10.524 -0.0408  0.4012  0.3126
 1325TIP3    H125390   5.633   5.763  10.614 -3.4948  1.5280 -0.3179
 1325TIP3    H225391   5.588   5.747  10.471  0.3610  2.4284 -1.6994
 1326TIP3   OH225392   0.545   4.381   1.029 -0.5171  0.1949 -0.5702
 1326TIP3    H125393   0.605   4.347   0.963 -2.3311 -0.3572 -1.9873
 1326TIP3    H225394   0.463   4.396   0.981 -1.5750  0.7196  1.3571
 1327TIP3   OH225395   6.263   0.500  13.390 -0.5368 -0.5278 -0.6474
 1327TIP3    H125396   6.220   0.581  13.365  0.9328  0.3686 -0.3698
 1327TIP3    H225397   6.322   0.481  13.318 -0.2741 -0.8991 -0.3389
 1328TIP3   OH225398   6.672   2.368  11.874  0.0542 -0.2820  0.1462
 1328TIP3    H125399   6.744   2.318  11.913 -1.6513 -3.1423 -0.2514
 1328TIP3    H225400   6.595   2.346  11.926 -0.5908  2.7892  0.6104
 1329TIP3   OH225401   1.014   1.473  12.991 -0.0658  0.2126  0.3469
 1329TIP3    H125402   1.040   1.383  12.971  0.7137  0.5213 -0.0840
 1329TIP3    H225403   0.924   1.466  13.023  0.9708 -1.0612  3.1419
 1330TIP3   OH225404   0.535   5.789   2.099  0.2852  0.0915 -0.0572
 1330TIP3    H125405   0.545   5.703   2.059 -1.3287 -0.0779 -0.1120
 1330TIP3    H225406   0.553   5.851   2.028 -1.4737 -0.2094 -0.7836
 1331TIP3   OH225407   2.804   5.616   0.085 -0.5097  0.3715 -0.7106
 1331TIP3    H125408   2.893   5.647   0.104 -2.0321  3.6448  1.3079
 1331TIP3    H225409   2.792   5.633  -0.008  1.4761 -1.4908 -1.3495
 1332TIP3   OH225410   5.565   1.072  12.364  0.5185  0.2074  0.6943
 1332TIP3    H125411   5.474   1.047  12.349 -0.3059  1.4121  3.2884
 1332TIP3    H225412   5.599   1.006  12.425  1.7549 -0.8631 -1.0958
 1333TIP3   OH225413   1.647   3.378   6.066 -0.4117 -0.1472 -0.5428
 1333TIP3    H125414   1.580   3.407   6.128 -0.4998  0.6617 -1.0162
 1333TIP3    H225415   1.642   3.440   5.994 -0.3407 -1.1125 -1.3906
 1334TIP3   OH225416   5.744   1.137  16.046 -0.2267  0.2551  0.3042
 1334TIP3    H125417   5.812   1.141  16.113 -0.2579 -1.6683  0.4612
 1334TIP3    H225418   5.745   1.046  16.016 -2.3678  0.3390 -0.0766
 1335TIP3   OH225419   6.224   4.089   1.072 -0.2253 -0.2543 -0.0648
 1335TIP3    H125420   6.155   4.050   1.126 -0.8637 -0.3426 -0.9193
 1335TIP3    H225421   6.229   4.180   1.101 -0.9071 -0.1743 -0.1971
 1336TIP3   OH225422   0.806   2.276  16.186 -0.1602 -0.3270  0.3821
 1336TIP3    H125423   0.845   2.189  16.195 -1.9728 -1.2419 -0.3794
 1336TIP3    H225424   0.719   2.268  16.226 -1.7391  0.1374 -2.7730
 1337TIP3   OH225425   1.102   4.315  14.513  0.0631  0.4407  0.7287
 1337TIP3    H125426   1.087   4.368  14.592 -1.5531  1.4517 -0.2183
 1337TIP3    H225427   1.196   4.323  14.496 -0.0401  2.4705  0.9873
 1338TIP3   OH225428   3.491   6.058   1.105 -0.3277  0.1547 -0.5144
 1338TIP3    H125429   3.464   5.974   1.143 -1.3015  0.4565 -0.5341
 1338TIP3    H225430   3.534   6.104   1.178  1.1245 -0.7499 -0.7624
 1339TIP3   OH225431   5.532   3.776   4.844 -0.0563  0.0010  0.1688
 1339TIP3    H125432   5.489   3.718   4.908  0.0364  0.0832  0.3056
 1339TIP3    H225433   5.556   3.718   4.772 -0.8287  0.0380 -0.1227
 1340TIP3   OH225434   3.267   4.932   3.225 -0.2183  0.1463  0.3087
 1340TIP3    H125435   3.318   4.898   3.298 -1.1182 -0.0462  0.8520
 1340TIP3    H225436   3.247   4.855   3.172 -0.7561  0.0855  0.6014
 1341TIP3   OH225437   0.080   5.691  14.313  0.5771  0.3977 -0.1651
 1341TIP3    H125438   0.077   5.690  14.218 -0.6040 -0.6880 -0.1318
 1341TIP3    H225439  -0.006   5.722  14.340  0.1218 -1.3950  0.5600
 1342TIP3   OH225440   5.877   4.623  13.052 -0.5976 -0.3395  0.1725
 1342TIP3    H125441   5.820   4.550  13.077 -1.2982 -0.4429 -1.6258
 1342TIP3    H225442   5.957   4.582  13.021 -0.2644 -0.2627  0.9158
 1343TIP3   OH225443   3.284   6.602   4.448  0.0484  0.4077 -0.8478
 1343TIP3    H125444   3.330   6.535   4.499 -1.7706  0.9021  1.5615
 1343TIP3    H225445   3.354   6.652   4.405  1.5244 -1.5018 -0.7342
 1344TIP3   OH225446   2.936   5.204  13.639 -0.0432 -0.6668 -0.0753
 1344TIP3    H125447   2.937   5.151  13.718  1.1414 -0.1340  0.2688
 1344TIP3    H225448   2.858   5.175  13.592 -1.7347  0.2394  2.1076
 1345TIP3   OH225449   6.177   2.837  16.951 -0.1366  0.3259 -0.5778
 1345TIP3    H125450   6.138   2.870  16.870  0.3289  1.9425 -0.1597
 1345TIP3    H225451   6.218   2.913  16.991 -0.8039 -0.3370  1.4472
 1346TIP3   OH225452   4.276   6.210  12.527  0.2325  0.7427 -0.8919
 1346TIP3    H125453   4.363   6.174  12.509  0.7647  2.0692 -1.0460
 1346TIP3    H225454   4.231   6.207  12.442 -0.8691 -2.4897 -0.2634
 1347TIP3   OH225455   0.292   2.174   5.047 -0.5919  0.1369  0.2473
 1347TIP3    H125456   0.275   2.090   5.004 -1.3728  0.9287 -1.0064
 1347TIP3    H225457   0.385   2.191   5.032 -0.7062  0.0730 -0.5245
 1348TIP3   OH225458   3.421   0.233  13.069  0.0819  0.1176 -0.3907
 1348TIP3    H125459   3.342   0.287  13.073 -0.2244 -0.2181 -1.6221
 1348TIP3    H225460   3.486   0.280  13.121 -0.1915  1.6439 -1.4105
 1349TIP3   OH225461   4.247   4.948   6.024 -0.6151 -0.5629  0.1099
 1349TIP3    H125462   4.169   4.990   6.060 -0.8982 -1.9666  1.1747
 1349TIP3    H225463   4.258   4.988   5.937 -2.8181 -0.7409 -0.2745
 1350TIP3   OH225464   6.498   4.304  16.022 -0.2361 -0.1572 -0.4841
 1350TIP3    H125465   6.456   4.299  16.108 -0.7153  2.0531 -0.5576
 1350TIP3    H225466   6.567   4.237  16.025 -1.3160 -1.2533  0.9929
 1351TIP3   OH225467   4.611   5.873  11.776  0.1819  0.3824 -0.3542
 1351TIP3    H125468   4.663   5.795  11.757 -1.1796 -0.6028 -0.0746
 1351TIP3    H225469   4.546   5.876  11.706 -0.4673  0.6548  0.2626
 1352TIP3   OH225470   0.424   5.329   3.012 -0.4737 -0.1357 -0.1254
 1352TIP3    H125471   0.374   5.380   2.947 -0.9266  0.2113  0.4904
 1352TIP3    H225472   0.464   5.395   3.069 -0.6957 -0.4579  0.4039
 1353TIP3   OH225473   1.404   2.044  16.336  0.1421 -0.0110  0.3121
 1353TIP3    H125474   1.423   2.136  16.316  0.0494 -0.4714 -2.0520
 1353TIP3    H225475   1.327   2.047  16.394  0.0695  1.3820  0.1473
 1354TIP3   OH225476   1.228   2.683   0.528 -0.2494 -0.1215 -0.7879
 1354TIP3    H125477   1.229   2.588   0.541 -0.3226 -0.0673 -0.3734
 1354TIP3    H225478   1.318   2.710   0.550 -0.4306 -0.0024 -0.1836
 1355TIP3   OH225479   0.490   3.215   4.137  0.1333  0.2002 -0.2496
 1355TIP3    H125480   0.400   3.185   4.123 -0.1797  1.3796 -0.8593
 1355TIP3    H225481   0.487   3.309   4.119  1.3331  0.3910  0.4678
 1356TIP3   OH225482   2.620   1.070   2.861 -0.2156 -0.1358  0.5451
 1356TIP3    H125483   2.656   1.145   2.814 -0.7153  1.1688  2.1594
 1356TIP3    H225484   2.661   1.075   2.948 -0.0032 -1.9268  0.5511
 1357TIP3   OH225485   1.814   5.779   5.239  0.2540 -0.4229 -0.5404
 1357TIP3    H125486   1.742   5.743   5.187  1.6139 -0.0611 -2.7617
 1357TIP3    H225487   1.786   5.868   5.262  0.3650  0.0787 -2.2594
 1358TIP3   OH225488   0.831   4.201  17.028 -1.0251 -0.3466 -0.0609
 1358TIP3    H125489   0.764   4.209  17.097 -1.3976  1.2161 -0.5949
 1358TIP3    H225490   0.781   4.180  16.949 -0.8685  0.6677 -0.4299
 1359TIP3   OH225491   4.604   2.116   2.565 -0.5450  0.0431  0.0185
 1359TIP3    H125492   4.638   2.032   2.536  0.5713  0.9393 -1.2755
 1359TIP3    H225493   4.531   2.135   2.505  0.6107  1.0345 -1.0913
 1360TIP3   OH225494   6.117   0.347  16.114 -0.0000 -0.3026 -0.2986
 1360TIP3    H125495   6.098   0.312  16.026  0.7405  1.2930 -1.1097
 1360TIP3    H225496   6.212   0.340  16.122 -0.0622 -0.3885  0.3674
 1361TIP3   OH225497   0.668   3.538   0.218  0.5384 -0.5452 -0.1989
 1361TIP3    H125498   0.681   3.561   0.309 -1.5449 -2.5007  0.6400
 1361TIP3    H225499   0.755   3.512   0.187  1.0350 -1.1309  1.6172
 1362TIP3   OH225500   5.823   4.807   3.206  0.2749 -0.0881 -0.3288
 1362TIP3    H125501   5.729   4.811   3.225  0.6498 -0.7583  1.7490
 1362TIP3    H225502   5.862   4.874   3.261  1.4189 -2.2518  1.5834
 1363TIP3   OH225503   1.064   2.910   4.064 -0.3289  0.0304  0.2877
 1363TIP3    H125504   1.110   2.986   4.097  1.0318 -0.9433  0.6799
 1363TIP3    H225505   1.098   2.898   3.975 -0.6769 -0.0053  0.1579
 1364TIP3   OH225506   5.425   5.112  12.858  0.7915 -0.6544 -0.6783
 1364TIP3    H125507   5.418   5.016  12.861  1.6238 -0.6964  0.0023
 1364TIP3    H225508   5.518   5.129  12.845  0.6431  0.0682 -0.8288
 1365TIP3   OH225509   1.034   1.761   4.445 -0.1776  0.3569  0.0812
 1365TIP3    H125510   1.031   1.669   4.420  0.4486  0.7816 -1.6672
 1365TIP3    H225511   0.981   1.767   4.524 -1.5111 -1.2413 -0.6729
 1366TIP3   OH225512   5.409   1.719  15.089 -0.0215 -0.1653 -0.4493
 1366TIP3    H125513   5.462   1.717  15.009  0.9528  0.6444  0.1593
 1366TIP3    H225514   5.454   1.660  15.149  0.2533  0.6178  0.1116
 1367TIP3   OH225515   3.722   4.706   5.038 -0.1671 -0.1734 -0.4041
 1367TIP3    H125516   3.729   4.650   4.960  2.2809 -1.8635  0.9891
 1367TIP3    H225517   3.730   4.795   5.004 -1.6428 -0.7434 -2.3562
 1368TIP3   OH225518   4.283   6.786  13.390  0.2986 -0.6506  0.2117
 1368TIP3    H125519   4.376   6.794  13.412 -0.0631 -1.6644  2.2404
 1368TIP3    H225520   4.255   6.705  13.432 -1.9381  0.5967  1.2305
 1369TIP3   OH225521   5.574   1.622   0.424  0.1311 -0.3984 -0.3474
 1369TIP3    H125522   5.519   1.544   0.417  0.4504 -0.5316 -1.4141
 1369TIP3    H225523   5.602   1.640   0.335  2.1712 -0.5739  0.2302
 1370TIP3   OH225524   6.744   2.013   3.242  0.3110 -0.5746 -1.1409
 1370TIP3    H125525   6.797   1.962   3.181  0.5488  0.8443 -2.1610
 1370TIP3    H225526   6.727   2.095   3.195 -1.6218 -0.4620 -0.2825
 1371TIP3   OH225527   2.633   4.247  16.540 -0.4799 -0.5886 -0.6501
 1371TIP3    H125528   2.623   4.257  16.445  1.1953  1.5541 -0.6394
 1371TIP3    H225529   2.634   4.152  16.554 -3.6392 -0.9730 -2.4109
 1372TIP3   OH225530   1.846   4.984  12.698 -0.0438 -0.7125  0.4658
 1372TIP3    H125531   1.838   4.919  12.627  1.0245 -0.1525 -0.1796
 1372TIP3    H225532   1.830   5.068  12.655  1.1628 -0.3189  0.7763
 1373TIP3   OH225533   6.196   4.406   4.144 -0.1273  0.1926  0.2677
 1373TIP3    H125534   6.151   4.476   4.190  1.6057  1.6249 -0.1612
 1373TIP3    H225535   6.238   4.449   4.070  0.3536 -1.4350 -0.4383
 1374TIP3   OH225536   6.182   1.751   6.071 -0.9965  0.1800 -0.4470
 1374TIP3    H125537   6.103   1.698   6.066 -1.2770  0.7835 -2.8817
 1374TIP3    H225538   6.152   1.841   6.060 -0.1817  0.5962  0.6175
 1375TIP3   OH225539   3.303   3.523  11.754 -0.1047  0.4509 -0.6004
 1375TIP3    H125540   3.287   3.564  11.669 -1.3150  1.7585  0.2324
 1375TIP3    H225541   3.382   3.471  11.741  0.6908  1.9739 -2.0582
 1376TIP3   OH225542   6.102   0.756   0.139 -0.3617  0.1967  0.2754
 1376TIP3    H125543   6.161   0.817   0.183  0.4354 -1.4358  1.5046
 1376TIP3    H225544   6.127   0.670   0.171 -0.5705 -0.9523 -2.4698
 1377TIP3   OH225545   0.084   4.988   5.428 -0.3346  0.0717  0.2432
 1377TIP3    H125546   0.102   4.927   5.499  2.9097  0.3601 -0.2350
 1377TIP3    H225547   0.049   5.066   5.472 -1.6898 -1.0243  1.1464
 1378TIP3   OH225548   5.951   1.626  15.656  0.7528 -0.3716 -1.0797
 1378TIP3    H125549   5.931   1.633  15.750 -1.0978 -1.0821 -1.3810
 1378TIP3    H225550   6.026   1.684  15.643  1.4379 -0.7442  0.9557
 1379TIP3   OH225551   5.383   2.532  12.208  0.5615  0.2758 -0.4551
 1379TIP3    H125552   5.426   2.611  12.240  1.4370 -0.2807 -0.2368
 1379TIP3    H225553   5.423   2.515  12.123  0.0940  0.2911 -0.6791
 1380TIP3   OH225554   2.256   6.582   2.946  0.0926 -0.0516  0.2484
 1380TIP3    H125555   2.259   6.510   2.884  0.7415 -0.2796  0.5378
 1380TIP3    H225556   2.326   6.563   3.008  0.7141  1.1713 -0.0576
 1381TIP3   OH225557   6.702   4.007  16.611  0.4897  0.4864 -0.5219
 1381TIP3    H125558   6.782   3.992  16.561  0.4157  1.4006 -0.9448
 1381TIP3    H225559   6.680   3.922  16.648  0.2182 -0.3535 -2.5404
 1382TIP3   OH225560   0.718   2.364  11.238  0.5122  0.3118 -0.1463
 1382TIP3    H125561   0.642   2.342  11.292 -0.1409  2.0755 -0.3264
 1382TIP3    H225562   0.794   2.350  11.295 -0.0116 -0.2339  0.4204
 1383TIP3   OH225563   3.121   3.256  16.378 -0.1111  0.2404  0.2679
 1383TIP3    H125564   3.048   3.200  16.350 -0.1735  0.9614 -1.0114
 1383TIP3    H225565   3.083   3.313  16.445 -0.2624 -0.6457  0.9485
 1384TIP3   OH225566   3.638   6.783   0.135 -0.3236  0.4500  0.2991
 1384TIP3    H125567   3.661   6.748   0.221 -0.5155  1.1274  0.6311
 1384TIP3    H225568   3.545   6.762   0.124 -0.3531  0.5597  0.3461
 1385TIP3   OH225569   5.012   0.625   1.747  0.1989  0.3678 -0.0832
 1385TIP3    H125570   5.039   0.533   1.737  0.0686  0.3985 -0.7363
 1385TIP3    H225571   4.922   0.620   1.779  0.1744  0.2661 -0.1672
 1386TIP3   OH225572   3.910   2.968   5.796  0.0841  0.4461 -0.2654
 1386TIP3    H125573   3.846   3.004   5.858  0.3618 -1.2268  1.0488
 1386TIP3    H225574   3.857   2.937   5.723 -0.4298  0.8157 -0.0567
 1387TIP3   OH225575   4.713   0.147   2.973  0.2017  0.5779 -0.2467
 1387TIP3    H125576   4.792   0.126   3.022  0.9119  1.6552 -0.9227
 1387TIP3    H225577   4.672   0.218   3.023  0.3306  0.8987 -0.6004
 1388TIP3   OH225578   4.455   4.837  11.670 -0.4060 -0.1452  0.1422
 1388TIP3    H125579   4.423   4.889  11.595 -0.7309  0.7518  0.8916
 1388TIP3    H225580   4.380   4.783  11.695 -0.2253 -0.6188 -0.3159
 1389TIP3   OH225581   6.253   6.430  15.848 -0.4250 -0.3724  0.2957
 1389TIP3    H125582   6.318   6.391  15.788  0.5418  0.1369  0.9902
 1389TIP3    H225583   6.205   6.355  15.883  0.4578 -0.8540  0.5169
 1390TIP3   OH225584   6.099   5.652  16.512  0.3680 -0.1999 -0.1352
 1390TIP3    H125585   6.116   5.641  16.418  0.0562 -1.2175 -0.0797
 1390TIP3    H225586   6.185   5.644  16.553  0.5002  0.2193 -0.3288
 1391TIP3   OH225587   4.129   4.237   4.447 -0.0453 -0.2170 -0.2001
 1391TIP3    H125588   4.196   4.295   4.485 -1.3619  1.5416 -0.4880
 1391TIP3    H225589   4.174   4.154   4.434  2.0606  0.8880 -0.2428
 1392TIP3   OH225590   0.143   5.015  16.044  0.3743 -0.0733 -0.4896
 1392TIP3    H125591   0.143   5.107  16.019  0.7810 -0.2375 -1.1129
 1392TIP3    H225592   0.213   4.976  15.992 -0.4324 -0.9281 -0.9595
 1393TIP3   OH225593   0.016   1.658   3.730  0.4271 -0.1877 -0.0197
 1393TIP3    H125594   0.049   1.662   3.820  1.3507  1.6190 -0.4104
 1393TIP3    H225595   0.095   1.657   3.676 -0.1141 -1.7280 -0.8142
 1394TIP3   OH225596   5.865   1.685   1.986  0.1170  0.4173 -0.0482
 1394TIP3    H125597   5.883   1.597   2.018  0.7179  0.8710  0.8962
 1394TIP3    H225598   5.907   1.689   1.901  0.5424 -0.0398  0.1412
 1395TIP3   OH225599   1.646   5.269   4.434 -0.7386  0.1376 -0.0589
 1395TIP3    H125600   1.716   5.332   4.455 -1.9564  2.0239 -1.5291
 1395TIP3    H225601   1.639   5.215   4.513  0.3816  1.8035  1.2286
 1396TIP3   OH225602   2.598   2.461   4.412  0.0765  0.0021  0.3238
 1396TIP3    H125603   2.572   2.518   4.339  1.0167 -1.1283 -0.9064
 1396TIP3    H225604   2.529   2.473   4.477 -1.4811  0.0229 -1.3009
 1397TIP3   OH225605   6.503   3.729   0.121  0.2787  0.3589 -0.4360
 1397TIP3    H125606   6.576   3.685   0.165  0.8296  0.3717 -1.3331
 1397TIP3    H225607   6.491   3.681   0.040 -0.0325  0.9946 -0.7701
 1398TIP3   OH225608   3.599   3.093   4.843  0.4934 -0.0397 -0.7099
 1398TIP3    H125609   3.601   3.149   4.765  0.4936  2.8783  1.2926
 1398TIP3    H225610   3.655   3.138   4.906 -0.2402 -1.8537  1.2970
 1399TIP3   OH225611   5.649   1.860  14.330  0.7620  0.0016 -0.1122
 1399TIP3    H125612   5.692   1.816  14.403 -0.2184  2.7806  2.1977
 1399TIP3    H225613   5.719   1.911  14.289  0.6446  0.9917  0.8987
 1400TIP3   OH225614   0.561   2.430  16.623 -0.9101 -0.3317 -0.1743
 1400TIP3    H125615   0.573   2.344  16.663  1.2759  0.8506  1.7867
 1400TIP3    H225616   0.498   2.475  16.680  0.6272  0.6107  0.8078
 1401TIP3   OH225617   2.198   6.202  12.181  0.2433  0.0641  0.2934
 1401TIP3    H125618   2.220   6.292  12.154  1.2383 -0.4826 -0.7842
 1401TIP3    H225619   2.119   6.182  12.131 -0.0923  0.4152  0.6819
 1402TIP3   OH225620   1.609   4.400   5.189 -0.7613 -0.1773 -0.2025
 1402TIP3    H125621   1.602   4.480   5.241  0.2145 -0.5838  0.6008
 1402TIP3    H225622   1.593   4.329   5.252  0.3104 -0.6784 -0.4710
 1403TIP3   OH225623   2.524   3.309   1.022 -0.1493  0.2486 -0.1642
 1403TIP3    H125624   2.489   3.283   1.107 -0.6978  0.1902 -0.4027
 1403TIP3    H225625   2.476   3.389   1.000  0.0978  0.3459 -0.3471
 1404TIP3   OH225626   3.307   6.626  13.885 -0.5738 -0.4246 -0.1302
 1404TIP3    H125627   3.400   6.647  13.897  0.1835 -2.8178 -1.5740
 1404TIP3    H225628   3.263   6.711  13.890  1.4252  0.5494  2.7059
 1405TIP3   OH225629   4.366   4.770   5.709  0.0799  0.1066 -0.2546
 1405TIP3    H125630   4.364   4.756   5.804  1.0362  0.9039 -0.1100
 1405TIP3    H225631   4.279   4.743   5.679  0.3101 -1.7308  0.6155
 1406TIP3   OH225632   3.263   3.104  10.683  0.7034 -0.1063 -0.1402
 1406TIP3    H125633   3.339   3.090  10.627 -0.6567  0.5340 -2.2369
 1406TIP3    H225634   3.211   3.024  10.674  0.7143 -0.2010  0.6076
 1407TIP3   OH225635   4.720   1.189   4.358  0.1661  0.0175 -0.5549
 1407TIP3    H125636   4.647   1.222   4.411 -1.0578 -0.0910 -2.1317
 1407TIP3    H225637   4.738   1.261   4.297  1.8974  0.3404  0.3102
 1408TIP3   OH225638   0.709   1.636  17.011 -0.2145 -0.5720  0.1072
 1408TIP3    H125639   0.643   1.703  17.029  0.0765  0.2813 -1.8681
 1408TIP3    H225640   0.659   1.564  16.971 -0.1585 -0.4460 -0.1963
 1409TIP3   OH225641   3.171   2.904  14.985  0.1550  0.3919  0.2901
 1409TIP3    H125642   3.249   2.855  14.959 -0.6310 -0.5861 -0.2748
 1409TIP3    H225643   3.193   2.995  14.967  0.6239 -0.0146 -1.3099
 1410TIP3   OH225644   4.245   5.923  12.872 -0.1150  0.4061 -0.6458
 1410TIP3    H125645   4.273   6.011  12.848 -1.3717  0.3610 -2.4009
 1410TIP3    H225646   4.153   5.934  12.898 -0.0291 -0.2574 -0.0418
 1411TIP3   OH225647   4.568   4.145   0.479  0.3495  0.0142 -0.0995
 1411TIP3    H125648   4.637   4.099   0.431  0.8808 -2.8958  3.1856
 1411TIP3    H225649   4.491   4.088   0.470 -0.0446  0.3874  0.8458
 1412TIP3   OH225650   5.962   4.305   0.869 -0.0716  0.6557 -0.1480
 1412TIP3    H125651   5.986   4.297   0.962  3.0760 -2.6969 -1.1177
 1412TIP3    H225652   5.908   4.228   0.852 -0.2731  1.0303 -1.2189
 1413TIP3   OH225653   2.569   1.302   2.234 -0.4523 -0.2948  0.3027
 1413TIP3    H125654   2.561   1.207   2.243 -0.2380 -0.4928 -1.4250
 1413TIP3    H225655   2.582   1.334   2.323  0.6930 -2.0136  0.7716
 1414TIP3   OH225656   3.410   0.627  15.523 -0.5352  0.7013 -0.1306
 1414TIP3    H125657   3.505   0.626  15.514 -0.5246 -0.1578  0.0586
 1414TIP3    H225658   3.381   0.543  15.487 -1.3287  1.4595 -1.2979
 1415TIP3   OH225659   6.448   1.959   3.295  0.6245 -0.4496  0.1878
 1415TIP3    H125660   6.537   1.957   3.258  0.2889 -0.8106 -0.5910
 1415TIP3    H225661   6.445   1.885   3.355  1.1788  0.1526  0.9734
 1416TIP3   OH225662   3.719   1.980  14.549 -0.3512 -0.4346 -0.0411
 1416TIP3    H125663   3.791   2.042  14.535 -0.1267 -0.2707  1.7143
 1416TIP3    H225664   3.645   2.034  14.575 -0.3464 -0.8306  0.8146
 1417TIP3   OH225665   5.581   0.064   3.399 -0.1736  0.2103  0.4143
 1417TIP3    H125666   5.616  -0.025   3.390  2.3551  1.0995  1.2277
 1417TIP3    H225667   5.537   0.063   3.484  0.0329 -0.1857  0.5196
 1418TIP3   OH225668   0.514   3.860   1.763  0.2582 -0.4897  0.7266
 1418TIP3    H125669   0.545   3.911   1.688  1.6666 -0.9306  0.9840
 1418TIP3    H225670   0.557   3.900   1.839 -1.1498 -0.0590  1.3037
 1419TIP3   OH225671   4.581   2.382  11.612  0.0975  0.1964 -0.0572
 1419TIP3    H125672   4.646   2.424  11.555  0.3539  0.0129  0.1041
 1419TIP3    H225673   4.561   2.299  11.569  0.3101  0.0458  0.1305
 1420TIP3   OH225674   2.929   0.190   0.218 -0.7488  0.1559 -0.2213
 1420TIP3    H125675   2.903   0.279   0.243 -1.1360  0.2002 -0.7992
 1420TIP3    H225676   2.866   0.134   0.262 -0.5488  0.1619  0.0825
 1421TIP3   OH225677   4.727   5.233  10.822  0.4734 -0.5707 -0.2574
 1421TIP3    H125678   4.814   5.235  10.860  0.6519 -0.7916 -0.6539
 1421TIP3    H225679   4.668   5.253  10.895  0.8952  0.1406 -0.1049
 1422TIP3   OH225680   4.816   0.754  16.917  0.0109  0.6074 -0.2073
 1422TIP3    H125681   4.754   0.726  16.849 -0.3037  1.1924 -0.1635
 1422TIP3    H225682   4.762   0.765  16.995  0.0793  1.6065 -0.2971
 1423TIP3   OH225683   5.684   6.405   3.055  0.5795 -0.1701 -0.7936
 1423TIP3    H125684   5.655   6.429   3.143  1.2247 -1.4401 -0.2211
 1423TIP3    H225685   5.640   6.468   2.997 -0.7926 -0.0865  0.3227
 1424TIP3   OH225686   1.151   3.700   0.612  0.2157 -0.0803  0.3154
 1424TIP3    H125687   1.119   3.675   0.525  1.4922 -0.7556  0.0334
 1424TIP3    H225688   1.193   3.785   0.598 -0.2787  0.1837  0.4286
 1425TIP3   OH225689   1.672   0.661  14.773  0.7757 -0.1279  0.4508
 1425TIP3    H125690   1.643   0.672  14.864  2.8625  1.2013  0.9904
 1425TIP3    H225691   1.617   0.591  14.739 -0.9799  0.2883  2.3228
 1426TIP3   OH225692   1.576   1.048   4.508  0.6107  0.3145  0.1230
 1426TIP3    H125693   1.569   1.012   4.597 -0.3145 -0.9546 -0.4505
 1426TIP3    H225694   1.664   1.023   4.479 -0.1176 -1.7951 -0.3730
 1427TIP3   OH225695   4.510   0.813   2.058 -0.0809  0.2250 -0.3658
 1427TIP3    H125696   4.565   0.889   2.042  0.8829 -0.7845 -1.9992
 1427TIP3    H225697   4.553   0.767   2.131 -0.9524  1.4899  0.9688
 1428TIP3   OH225698   4.214   0.071  17.146 -0.1350 -0.1096 -0.1772
 1428TIP3    H125699   4.288   0.013  17.127 -0.7913 -0.9938 -0.0107
 1428TIP3    H225700   4.179   0.095  17.059 -0.3691 -0.6043 -0.2174
 1429TIP3   OH225701   0.960   2.860   0.414  0.4167 -0.5090  0.0636
 1429TIP3    H125702   1.020   2.798   0.373 -1.3402 -2.4219  0.2769
 1429TIP3    H225703   0.901   2.805   0.466 -1.0947  1.3531  0.3695
 1430TIP3   OH225704   1.423   0.009  13.241 -0.0368 -0.1116 -0.3116
 1430TIP3    H125705   1.379   0.046  13.164 -0.6752  1.5754  0.8254
 1430TIP3    H225706   1.511  -0.012  13.210 -0.6846 -0.6804 -1.8358
 1431TIP3   OH225707   3.692   6.547  12.589  0.1281  0.2562  0.2523
 1431TIP3    H125708   3.725   6.498  12.514 -1.7837 -0.5320 -0.0906
 1431TIP3    H225709   3.689   6.483  12.660  0.0086  0.4946  0.4639
 1432TIP3   OH225710   5.140   1.826  14.637 -0.2837 -0.0155  0.5861
 1432TIP3    H125711   5.228   1.822  14.600 -0.6232  0.3199 -0.2755
 1432TIP3    H225712   5.147   1.890  14.708 -0.2151  1.3072 -0.5862
 1433TIP3   OH225713   3.963   3.887   5.283 -0.0818  0.2183  0.2884
 1433TIP3    H125714   3.944   3.870   5.191 -0.5794 -0.5767  0.5302
 1433TIP3    H225715   4.042   3.836   5.302  0.8268  1.4780 -0.0495
 1434TIP3   OH225716   2.339   2.356  12.900 -0.2886 -0.2107  0.2032
 1434TIP3    H125717   2.421   2.325  12.863  0.3847  2.8805 -1.0827
 1434TIP3    H225718   2.365   2.411  12.974 -1.2066  0.1651  0.2548
 1435TIP3   OH225719   6.279   0.810   5.096  0.1589 -0.1723 -0.3494
 1435TIP3    H125720   6.280   0.799   5.191 -0.8529 -2.6132 -0.6028
 1435TIP3    H225721   6.186   0.824   5.074  0.1422 -1.4785 -1.1626
 1436TIP3   OH225722   4.104   1.558  16.540  1.0431 -0.2244 -0.4427
 1436TIP3    H125723   4.153   1.483  16.504 -1.0386 -1.4586 -0.7645
 1436TIP3    H225724   4.059   1.595  16.465 -0.0404 -0.2846  0.1644
 1437TIP3   OH225725   1.209   4.590   2.979 -0.0255  0.4238  0.5584
 1437TIP3    H125726   1.147   4.569   3.048  0.3488 -0.4031  0.6455
 1437TIP3    H225727   1.247   4.506   2.953 -0.4562  0.6653 -0.9404
 1438TIP3   OH225728   1.748   1.772   2.055  0.3776 -0.5226  0.2121
 1438TIP3    H125729   1.673   1.766   2.114  1.0049  1.8468  1.3167
 1438TIP3    H225730   1.819   1.728   2.102  1.2938  2.7380  2.0099
 1439TIP3   OH225731   5.576   2.164  12.078 -0.6646  0.2537 -0.0756
 1439TIP3    H125732   5.511   2.137  12.013  0.4521 -0.9710 -0.6977
 1439TIP3    H225733   5.611   2.081  12.112  1.1111  0.9128 -0.2878
 1440TIP3   OH225734   3.610   3.720  11.327  0.1646  0.0229  0.2592
 1440TIP3    H125735   3.613   3.806  11.370  0.5212 -0.6079  1.5166
 1440TIP3    H225736   3.517   3.706  11.311  0.2011  1.1596 -1.0175
 1441TIP3   OH225737   1.482   1.022   2.136 -0.2625 -0.8933 -0.1931
 1441TIP3    H125738   1.414   0.991   2.076 -1.9612  0.0015  1.2101
 1441TIP3    H225739   1.555   0.962   2.122 -1.4606 -2.0920 -1.5238
 1442TIP3   OH225740   1.742   0.840   4.709  0.0521 -0.2160  0.0625
 1442TIP3    H125741   1.725   0.747   4.717 -0.1111 -0.2430 -0.5721
 1442TIP3    H225742   1.805   0.847   4.638 -0.5939  0.2281 -0.4691
 1443TIP3   OH225743   0.927   0.810   0.829  0.0378  0.1817  0.2720
 1443TIP3    H125744   0.883   0.759   0.761 -0.1147  0.3703  0.2284
 1443TIP3    H225745   0.997   0.752   0.861 -0.1227 -0.0452  0.2127
 1444TIP3   OH225746   3.462   6.736   0.359 -0.2719  0.1609  0.1948
 1444TIP3    H125747   3.430   6.646   0.369  0.8492 -0.2942 -0.3153
 1444TIP3    H225748   3.386   6.784   0.325 -0.9398 -0.5420  0.6695
 1445TIP3   OH225749   5.732   3.103  14.458 -0.7083  0.1638 -0.1262
 1445TIP3    H125750   5.764   3.190  14.435 -1.6009  0.2960 -0.8952
 1445TIP3    H225751   5.702   3.066  14.375 -2.4432  0.0054  0.5596
 1446TIP3   OH225752   0.831   4.796  15.010 -0.0318  0.6971 -0.6993
 1446TIP3    H125753   0.753   4.826  14.964 -0.9424 -1.1070 -0.3424
 1446TIP3    H225754   0.808   4.802  15.103  0.0422 -0.3964 -0.6096
 1447TIP3   OH225755   1.249   1.427   6.689 -0.2583 -0.1558 -0.2557
 1447TIP3    H125756   1.173   1.389   6.645 -0.5350 -1.7425  1.5131
 1447TIP3    H225757   1.316   1.359   6.685  0.1905  0.2360  0.4457
 1448TIP3   OH225758   5.519   2.944   3.874 -1.0092 -0.1311 -0.1252
 1448TIP3    H125759   5.443   2.989   3.911 -1.3614 -1.3646  0.6761
 1448TIP3    H225760   5.552   2.889   3.946  1.1772  1.0594 -0.1708
 1449TIP3   OH225761   2.307   5.499  16.751 -0.4416  0.5132  0.1422
 1449TIP3    H125762   2.276   5.410  16.734  0.3994  0.4817 -1.3444
 1449TIP3    H225763   2.332   5.533  16.665  0.3740  1.7665  0.8443
 1450TIP3   OH225764   2.239   4.803  16.724  0.3876 -0.0216 -0.7321
 1450TIP3    H125765   2.293   4.813  16.646  0.3799 -1.6065 -0.9480
 1450TIP3    H225766   2.160   4.758  16.694  0.1853 -0.2387  0.1011
 1451TIP3   OH225767   4.976   0.616  12.047  0.2319 -0.2119 -0.2584
 1451TIP3    H125768   4.951   0.524  12.055  0.3824 -0.2778 -0.5855
 1451TIP3    H225769   4.949   0.655  12.131 -0.4037 -0.4211 -0.3648
 1452TIP3   OH225770   4.962   5.720   5.668 -0.0523 -1.0292  0.5415
 1452TIP3    H125771   4.919   5.669   5.599 -0.8423 -2.5156  2.1082
 1452TIP3    H225772   4.900   5.790   5.688  0.3855 -0.3139 -0.5801
 1453TIP3   OH225773   5.008   3.685   0.631 -0.3483  0.4797  0.1976
 1453TIP3    H125774   4.970   3.739   0.700 -2.1214 -0.6599  0.1551
 1453TIP3    H225775   5.029   3.602   0.673  0.6833  0.5568 -0.1395
 1454TIP3   OH225776   4.299   3.770   4.108  0.1844 -0.3433 -0.0381
 1454TIP3    H125777   4.234   3.716   4.153 -1.1494 -0.6200 -2.1787
 1454TIP3    H225778   4.367   3.708   4.081 -0.1103 -0.5611 -0.2987
 1455TIP3   OH225779   4.448   3.385  16.201  0.2230  0.2680 -1.0592
 1455TIP3    H125780   4.368   3.432  16.225  0.6861  0.4856  0.0873
 1455TIP3    H225781   4.421   3.293  16.197 -0.4869  0.5180 -2.4524
 1456TIP3   OH225782   0.299   2.096   4.619  0.1618 -0.4642  0.3646
 1456TIP3    H125783   0.206   2.086   4.601  0.1170 -0.0125  0.3211
 1456TIP3    H225784   0.303   2.163   4.688  0.5484  1.0857 -1.1007
 1457TIP3   OH225785   3.560   4.756   2.964 -0.0582 -0.2427 -0.1323
 1457TIP3    H125786   3.488   4.749   3.027 -1.2587  0.2847 -1.4041
 1457TIP3    H225787   3.541   4.836   2.914  2.2644  0.7770  0.5378
 1458TIP3   OH225788   4.285   6.520   4.256  0.5029  0.1120 -0.3662
 1458TIP3    H125789   4.357   6.563   4.210  1.3147  0.3820  1.1284
 1458TIP3    H225790   4.214   6.585   4.256  0.7165  0.3424 -0.6851
 1459TIP3   OH225791   3.749   1.740  12.112  0.6695 -0.6324 -0.0778
 1459TIP3    H125792   3.669   1.737  12.059  0.0806 -2.1162  0.8848
 1459TIP3    H225793   3.719   1.762  12.200  1.2719 -1.7113  0.3994
 1460TIP3   OH225794   2.028   6.622  16.628  0.0883 -0.3835  0.6922
 1460TIP3    H125795   2.021   6.588  16.717  0.6694  0.8296  1.2193
 1460TIP3    H225796   1.943   6.604  16.588 -0.8052  0.6769  2.0834
 1461TIP3   OH225797   1.466   6.301   0.883  0.3850  0.2410  0.4589
 1461TIP3    H125798   1.475   6.209   0.859  1.2012  1.1937 -3.3797
 1461TIP3    H225799   1.379   6.326   0.851  0.4055  0.9421  0.9382
 1462TIP3   OH225800   0.777   3.946  11.577  0.2032  0.0606  0.3086
 1462TIP3    H125801   0.787   3.859  11.616  0.9461  0.5923  1.3230
 1462TIP3    H225802   0.807   3.934  11.486  1.7320 -0.4177  0.8492
 1463TIP3   OH225803   6.221   6.379  17.174  0.1825 -0.1288 -0.2785
 1463TIP3    H125804   6.144   6.322  17.169 -0.1348  0.3238 -0.6043
 1463TIP3    H225805   6.258   6.361  17.261  0.4525 -1.2971 -0.6276
 1464TIP3   OH225806   2.416   2.056   1.975  0.7267  0.1802 -0.3372
 1464TIP3    H125807   2.412   2.083   1.883 -0.3822 -1.5171 -0.7996
 1464TIP3    H225808   2.405   1.961   1.973  1.9165 -0.0281  1.4705
 1465TIP3   OH225809   6.291   4.218  14.319 -0.0068 -0.1597 -0.3207
 1465TIP3    H125810   6.218   4.262  14.363  0.7925  2.1249 -1.1747
 1465TIP3    H225811   6.255   4.193  14.234 -0.7460 -2.0792  0.5362
 1466TIP3   OH225812   4.176   5.649   3.991 -0.8029  0.2868 -0.1020
 1466TIP3    H125813   4.235   5.710   4.036 -0.4117 -1.9642  2.5637
 1466TIP3    H225814   4.090   5.671   4.025 -0.8440  0.2367 -0.1761
 1467TIP3   OH225815   2.126   2.313  13.629  0.3401  0.8783  0.0753
 1467TIP3    H125816   2.130   2.338  13.537  0.1902 -0.8643 -0.4257
 1467TIP3    H225817   2.033   2.312  13.650  0.2839 -0.1363 -0.1770
 1468TIP3   OH225818   4.786   0.348   3.892  0.2329  0.7944  0.1048
 1468TIP3    H125819   4.844   0.382   3.960 -0.7487 -0.0685  1.3876
 1468TIP3    H225820   4.724   0.420   3.877  0.4284  0.9716  0.1311
 1469TIP3   OH225821   4.124   4.282  11.916  1.0900  0.0701  0.5774
 1469TIP3    H125822   4.116   4.269  11.821  2.1750 -2.7238  0.8016
 1469TIP3    H225823   4.079   4.364  11.933 -0.1764  0.0166 -2.1958
 1470TIP3   OH225824   0.781   2.152   2.196  0.4170  0.2748  0.0179
 1470TIP3    H125825   0.867   2.124   2.166  1.2784  2.0322  0.7418
 1470TIP3    H225826   0.773   2.242   2.165 -0.3751  0.7526  1.5165
 1471TIP3   OH225827   2.546   1.138   0.673  0.1726 -0.2516 -0.2921
 1471TIP3    H125828   2.476   1.079   0.699 -0.7299  0.9515  0.0499
 1471TIP3    H225829   2.617   1.121   0.734 -0.9773  0.7163  1.3622
 1472TIP3   OH225830   6.409   2.650   3.693 -0.4466  0.7701  0.2036
 1472TIP3    H125831   6.318   2.675   3.674 -0.3492  0.1777 -1.1138
 1472TIP3    H225832   6.426   2.576   3.634  0.2651 -0.3789  1.8035
 1473TIP3   OH225833   3.126   1.539  13.685  0.0903  0.5310 -0.1114
 1473TIP3    H125834   3.097   1.617  13.637  1.7624  1.2927  0.0926
 1473TIP3    H225835   3.053   1.519  13.744 -0.8128  1.2772 -0.9616
 1474TIP3   OH225836   3.077   6.252  13.130 -1.3105  0.3984 -0.2369
 1474TIP3    H125837   3.105   6.232  13.219 -0.7414 -0.2664 -0.5629
 1474TIP3    H225838   3.015   6.324  13.140 -1.8023 -0.1633  0.7531
 1475TIP3   OH225839   3.614   2.934   0.566 -0.6218  0.1631  0.1367
 1475TIP3    H125840   3.666   2.855   0.572 -0.5492  0.2913  1.3654
 1475TIP3    H225841   3.580   2.934   0.477  0.1367 -0.7622 -0.1581
 1476TIP3   OH225842   3.445   6.251   3.190 -0.2222 -0.0670  0.6112
 1476TIP3    H125843   3.455   6.262   3.095 -0.4091 -1.2108  0.4521
 1476TIP3    H225844   3.394   6.327   3.217 -1.5402 -0.5542 -0.4534
 1477TIP3   OH225845   6.786   3.918   4.651 -0.4795  0.2760  0.1513
 1477TIP3    H125846   6.785   4.014   4.647  0.0656  0.3080  0.7043
 1477TIP3    H225847   6.696   3.892   4.631 -1.1797  0.9939  2.2719
 1478TIP3   OH225848   4.729   0.821   1.122 -0.0672  0.3134 -0.0908
 1478TIP3    H125849   4.700   0.890   1.181  0.0157  0.1978  0.0859
 1478TIP3    H225850   4.751   0.748   1.180 -1.8955 -0.4925 -0.4022
 1479TIP3   OH225851   3.377   0.640   3.435 -0.2486  0.5449  0.1077
 1479TIP3    H125852   3.293   0.681   3.454 -0.1286  0.5562  0.6137
 1479TIP3    H225853   3.419   0.629   3.521  0.2421  0.4902 -0.1365
 1480TIP3   OH225854   2.746   1.559  13.218 -0.4616 -0.2356 -0.4444
 1480TIP3    H125855   2.708   1.642  13.190 -0.8903 -1.0208 -2.3136
 1480TIP3    H225856   2.830   1.556  13.174  0.4256  0.0849  1.2026
 1481TIP3   OH225857   2.326   1.786   1.958 -0.0564  0.2762  0.0673
 1481TIP3    H125858   2.243   1.739   1.969 -0.3607  0.8527  0.2709
 1481TIP3    H225859   2.386   1.741   2.017  0.5200 -1.8569 -2.0495
 1482TIP3   OH225860   3.657   2.368   2.250  0.3596  0.0095  0.3218
 1482TIP3    H125861   3.597   2.319   2.194  1.4857 -0.9253 -0.1060
 1482TIP3    H225862   3.622   2.457   2.251 -0.1578 -0.1559 -1.1881
 1483TIP3   OH225863   6.192   4.096   0.771  0.0114 -0.4820 -0.3356
 1483TIP3    H125864   6.270   4.051   0.739 -0.3561 -0.7889 -0.8032
 1483TIP3    H225865   6.204   4.100   0.866  1.3502  0.8850 -0.5342
 1484TIP3   OH225866   2.823   1.324  14.248 -0.0956 -0.2078  0.0626
 1484TIP3    H125867   2.864   1.332  14.334  0.1899  0.1256 -0.1024
 1484TIP3    H225868   2.754   1.390  14.248  0.8610  0.8103 -0.5066
 1485TIP3   OH225869   0.582   4.522   1.411 -0.4246 -0.2908 -0.3312
 1485TIP3    H125870   0.673   4.533   1.439  0.1715 -1.1332 -1.8644
 1485TIP3    H225871   0.575   4.572   1.330 -1.1275 -0.7950 -0.5922
 1486TIP3   OH225872   6.166   3.745   1.885  0.4556  0.0998 -0.3893
 1486TIP3    H125873   6.159   3.732   1.790 -2.4836 -1.4680 -0.0237
 1486TIP3    H225874   6.152   3.658   1.922  3.0777  0.4010  1.4998
 1487TIP3   OH225875   6.641   2.115  14.060  0.2248 -0.1585  0.0920
 1487TIP3    H125876   6.560   2.146  14.019 -0.4399 -0.4870  1.1200
 1487TIP3    H225877   6.706   2.183  14.039 -0.2835  0.0425 -0.8456
 1488TIP3   OH225878   0.443   3.542  16.672  0.0823  0.1940 -0.3639
 1488TIP3    H125879   0.505   3.514  16.740 -0.2228  0.3359 -0.0253
 1488TIP3    H225880   0.494   3.541  16.591  0.1530 -1.0155 -0.3036
 1489TIP3   OH225881   4.551   4.751  13.689 -0.3728  0.2507 -0.1993
 1489TIP3    H125882   4.600   4.670  13.675  0.8536  0.3418  3.0944
 1489TIP3    H225883   4.460   4.722  13.697  0.0675 -0.8281  1.0218
 1490TIP3   OH225884   5.292   4.348   3.996  0.3110  0.1732  0.6109
 1490TIP3    H125885   5.287   4.424   3.938 -1.4314  1.9765  3.0137
 1490TIP3    H225886   5.246   4.279   3.948 -0.7047  1.4906 -0.3723
 1491TIP3   OH225887   4.718   1.257  13.333  0.4871  0.1660  0.1923
 1491TIP3    H125888   4.749   1.180  13.380 -0.1071  0.2263  0.6835
 1491TIP3    H225889   4.721   1.232  13.241  1.1470 -0.1349  0.2916
 1492TIP3   OH225890   2.978   3.584   3.391 -0.3265  0.2131 -0.3754
 1492TIP3    H125891   2.894   3.623   3.369 -0.6206 -0.0972  0.1739
 1492TIP3    H225892   2.981   3.586   3.486  0.0661 -0.2363 -0.3761
 1493TIP3   OH225893   0.314   4.996   4.715 -0.1516  0.0877  0.1567
 1493TIP3    H125894   0.364   4.949   4.782 -0.5042 -0.0698  0.3103
 1493TIP3    H225895   0.369   5.072   4.693  0.4128 -0.3853 -0.0800
 1494TIP3   OH225896   2.415   0.146   3.431 -0.0844 -0.0229 -0.2477
 1494TIP3    H125897   2.434   0.173   3.341 -0.2104 -1.3924 -0.6868
 1494TIP3    H225898   2.349   0.078   3.423  0.9802 -1.2033  0.8013
 1495TIP3   OH225899   0.238   2.544   2.943  0.1016  0.2446 -0.1003
 1495TIP3    H125900   0.269   2.460   2.978 -1.2777 -1.1765 -2.1821
 1495TIP3    H225901   0.318   2.595   2.929  1.1066 -1.4342 -0.5927
 1496TIP3   OH225902   5.647   5.946  15.388 -0.5874 -0.0853 -0.0684
 1496TIP3    H125903   5.736   5.915  15.369 -1.1605 -1.4474 -0.5655
 1496TIP3    H225904   5.655   5.990  15.473  0.1737 -1.9087  0.8195
 1497TIP3   OH225905   2.443   1.461  15.955  0.1180 -0.4961 -0.0887
 1497TIP3    H125906   2.462   1.459  15.862  1.3530 -1.0736  0.1670
 1497TIP3    H225907   2.529   1.465  15.997 -0.3543 -1.8728  1.0568
 1498TIP3   OH225908   5.165   5.141  13.392  0.2282 -0.1788 -0.2477
 1498TIP3    H125909   5.138   5.232  13.386 -1.4554 -0.6058  0.4101
 1498TIP3    H225910   5.183   5.114  13.302  2.5106  1.2956 -0.2699
 1499TIP3   OH225911   5.115   2.728  14.203 -0.7993  0.2729 -0.6508
 1499TIP3    H125912   5.100   2.711  14.110 -1.2250  0.2735 -0.5853
 1499TIP3    H225913   5.041   2.685  14.247  0.1466 -0.9593 -0.2123
 1500TIP3   OH225914   6.416   2.812   2.680  0.1093 -0.3145  0.2829
 1500TIP3    H125915   6.339   2.858   2.647  0.4207  0.4025  0.5441
 1500TIP3    H225916   6.414   2.726   2.636 -0.8912 -0.3411  0.3716
 1501TIP3   OH225917   5.099   2.573  11.923  0.0630 -0.5276  1.0013
 1501TIP3    H125918   5.007   2.596  11.913  0.0618 -0.7613  0.4569
 1501TIP3    H225919   5.113   2.567  12.018 -0.3059  0.2102  1.1008
 1502TIP3   OH225920   3.603   5.643   4.970 -0.5578 -0.2951  0.1436
 1502TIP3    H125921   3.531   5.664   5.029 -0.3971  0.0535  0.2162
 1502TIP3    H225922   3.668   5.601   5.027 -0.0262  0.8453  0.3937
 1503TIP3   OH225923   2.915   1.011   2.358 -0.2621  0.2614 -0.1157
 1503TIP3    H125924   2.850   1.011   2.429 -0.8968  0.7012 -0.6858
 1503TIP3    H225925   2.993   0.972   2.397 -0.7854 -0.0346  0.6621
 1504TIP3   OH225926   0.397   3.434   3.095  0.0366  0.2187 -0.6961
 1504TIP3    H125927   0.475   3.422   3.041  0.6770 -0.8346  0.4354
 1504TIP3    H225928   0.417   3.508   3.152 -0.0884  0.4329 -0.9304
 1505TIP3   OH225929   0.358   1.531  11.513 -0.4825  0.0211  0.1855
 1505TIP3    H125930   0.365   1.506  11.421 -1.4773 -0.4430  0.2283
 1505TIP3    H225931   0.273   1.573  11.521  0.4458  1.8634  0.4971
 1506TIP3   OH225932   1.607   1.887  15.143  0.6598  0.4885 -0.4843
 1506TIP3    H125933   1.701   1.901  15.130  0.9219  0.0587  0.8070
 1506TIP3    H225934   1.576   1.968  15.182  1.0762 -0.3857  1.7561
 1507TIP3   OH225935   0.154   3.116  12.553 -0.2151  0.6512  0.2756
 1507TIP3    H125936   0.122   3.030  12.527  0.6728  0.4019 -0.0063
 1507TIP3    H225937   0.165   3.110  12.648 -1.1475  0.7957  0.4034
 1508TIP3   OH225938   2.546   4.919   2.899  0.1046 -0.3180 -0.7647
 1508TIP3    H125939   2.638   4.893   2.896 -0.0503 -0.7433 -2.5046
 1508TIP3    H225940   2.541   4.984   2.969  1.4543 -1.2945  0.2534
 1509TIP3   OH225941   2.905   0.634  10.766 -0.7163  0.6581 -0.5081
 1509TIP3    H125942   2.920   0.728  10.777 -0.1031  0.6593 -1.3009
 1509TIP3    H225943   2.816   0.620  10.797 -0.1782  1.1901  1.3526
 1510TIP3   OH225944   2.644   5.825  13.983  0.1711 -0.3392  0.7333
 1510TIP3    H125945   2.734   5.799  14.001  0.2563 -0.6856 -0.1705
 1510TIP3    H225946   2.612   5.759  13.921 -0.0444  0.9686 -0.5701
 1511TIP3   OH225947   4.702   5.253  16.536  0.1419 -0.6283  0.3831
 1511TIP3    H125948   4.722   5.324  16.475 -0.2189  0.3565  1.3959
 1511TIP3    H225949   4.782   5.243  16.588  0.7681 -2.0685 -0.8199
 1512TIP3   OH225950   4.468   3.029  17.031 -0.2827  0.8652 -0.5443
 1512TIP3    H125951   4.381   3.069  17.026 -1.0116 -0.1293  2.8606
 1512TIP3    H225952   4.473   2.974  16.954 -2.7776  0.7830 -0.7145
 1513TIP3   OH225953   0.065   4.076  15.546  0.4358  0.4893  0.8063
 1513TIP3    H125954  -0.014   4.030  15.574  0.0330 -0.6327 -2.0275
 1513TIP3    H225955   0.136   4.017  15.570  0.0847 -0.5226 -0.5553
 1514TIP3   OH225956   1.760   2.544   3.395 -0.1545 -0.6330  0.4080
 1514TIP3    H125957   1.830   2.602   3.366 -1.0206  0.0103 -0.4687
 1514TIP3    H225958   1.680   2.587   3.364 -0.8728 -1.7982  0.6193
 1515TIP3   OH225959   4.993   3.767  17.179 -0.1369  0.3126 -0.2125
 1515TIP3    H125960   5.048   3.724  17.244  2.3912  2.4978 -0.8059
 1515TIP3    H225961   5.050   3.780  17.103 -2.2625  0.2028 -1.8696
 1516TIP3   OH225962   4.933   5.459  11.258 -0.0848 -0.1893 -0.3788
 1516TIP3    H125963   4.980   5.500  11.186 -0.4172 -0.8313 -0.9621
 1516TIP3    H225964   4.853   5.426  11.219 -0.8401  0.5343  0.5311
 1517TIP3   OH225965   0.653   1.828   6.304 -0.4951 -0.0913 -0.3327
 1517TIP3    H125966   0.617   1.915   6.322 -2.5026 -1.0016  0.1758
 1517TIP3    H225967   0.633   1.777   6.383  0.3217 -1.1268 -0.7803
 1518TIP3   OH225968   1.669   2.980   0.054 -0.1796 -0.2586  0.4955
 1518TIP3    H125969   1.651   3.034   0.130  0.4355  1.0795 -0.2833
 1518TIP3    H225970   1.764   2.971   0.052 -0.1027  0.5988 -0.6809
 1519TIP3   OH225971   3.760   1.766  16.592 -0.1394 -0.6112 -0.0426
 1519TIP3    H125972   3.744   1.791  16.683  1.2465 -0.2414  0.1042
 1519TIP3    H225973   3.700   1.821  16.542  0.5883  0.7041  0.5099
 1520TIP3   OH225974   3.941   5.517   5.500  0.1993 -0.7503  0.4459
 1520TIP3    H125975   3.850   5.510   5.469  0.5744 -0.7558 -0.6729
 1520TIP3    H225976   3.933   5.532   5.594 -1.0074  0.5105  0.1640
 1521TIP3   OH225977   5.975   5.933   2.994 -0.1051  0.1723 -0.0580
 1521TIP3    H125978   5.890   5.943   3.036 -0.6650 -1.2318 -0.8419
 1521TIP3    H225979   5.999   5.841   3.008  1.8272  0.8244  1.1722
 1522TIP3   OH225980   6.002   2.552  15.575 -0.0528  0.7262  0.5353
 1522TIP3    H125981   6.024   2.494  15.647  1.9559  1.5067  0.5896
 1522TIP3    H225982   6.013   2.640  15.611 -2.0632  1.1594  0.1551
 1523TIP3   OH225983   6.767   5.893   0.187 -0.1564  0.2913 -0.0349
 1523TIP3    H125984   6.833   5.895   0.118 -1.1693 -0.2239 -1.0459
 1523TIP3    H225985   6.704   5.826   0.158 -2.2826  2.2801 -0.2248
 1524TIP3   OH225986   1.714   4.975  14.992 -0.0854 -0.3135  0.2178
 1524TIP3    H125987   1.765   5.030  15.051  0.4274 -0.4466 -0.1041
 1524TIP3    H225988   1.627   5.016  14.991  0.0516 -0.0045  0.6444
 1525TIP3   OH225989   6.467   4.827   0.273  0.6262  0.5889 -0.6682
 1525TIP3    H125990   6.532   4.895   0.256 -0.2627  1.7765  0.5557
 1525TIP3    H225991   6.495   4.787   0.355  0.0777  0.7966 -0.3757
 1526TIP3   OH225992   0.838   1.945   4.271 -0.6402  0.3894 -0.2909
 1526TIP3    H125993   0.798   1.862   4.295 -0.4839  0.7397  1.2224
 1526TIP3    H225994   0.764   2.004   4.255 -0.7921  1.3312  3.5386
 1527TIP3   OH225995   4.063   5.607   3.243 -0.0967 -0.0158  0.1508
 1527TIP3    H125996   3.998   5.645   3.183  3.1092  2.1886 -2.1126
 1527TIP3    H225997   4.063   5.665   3.319 -3.0717 -1.9437  1.7347
 1528TIP3   OH225998   0.820   2.400  10.835  0.1632 -0.2237  0.7908
 1528TIP3    H125999   0.811   2.313  10.794 -0.6643  0.0914  0.2950
 1528TIP3    H226000   0.734   2.417  10.873  0.3976  0.2868  1.0922
 1529TIP3   OH226001   2.237   5.561   3.254 -0.1526  0.3179  0.1093
 1529TIP3    H126002   2.169   5.610   3.299 -0.7750 -0.3093 -0.1339
 1529TIP3    H226003   2.312   5.562   3.313 -1.0969 -0.8798  1.3648
 1530TIP3   OH226004   3.086   2.196   5.033 -0.4474  0.0640 -0.2540
 1530TIP3    H126005   3.087   2.102   5.016  0.3114  0.2314 -1.1927
 1530TIP3    H226006   3.074   2.204   5.127  0.7327 -1.0098 -0.0056
 1531TIP3   OH226007   2.201   5.323   4.895 -0.1747  0.5691 -0.2172
 1531TIP3    H126008   2.181   5.260   4.964  0.9051 -0.6328 -0.9577
 1531TIP3    H226009   2.175   5.408   4.931  1.9199  0.1923  2.3188
 1532TIP3   OH226010   2.285   3.578   6.427  0.6153  0.6133  0.0008
 1532TIP3    H126011   2.379   3.563   6.439  0.9220  1.3473 -1.3048
 1532TIP3    H226012   2.269   3.664   6.467  0.5358  0.5579  0.0873
 1533TIP3   OH226013   5.066   5.682   0.624  0.1547  0.0731  0.6913
 1533TIP3    H126014   4.972   5.683   0.645  0.1191 -0.7900  0.6022
 1533TIP3    H226015   5.073   5.733   0.544 -0.3332 -0.3526  0.3712
 1534TIP3   OH226016   6.303   2.142  15.039 -0.3023 -0.4733 -0.6150
 1534TIP3    H126017   6.352   2.139  14.957  0.6226 -0.1161 -0.0806
 1534TIP3    H226018   6.346   2.077  15.095  0.3895  0.7629  0.3106
 1535TIP3   OH226019   2.608   0.809  14.828 -0.2333 -0.1370  0.8782
 1535TIP3    H126020   2.690   0.795  14.781  0.0546 -0.5573  1.5045
 1535TIP3    H226021   2.632   0.808  14.920 -0.6970  1.4215  1.0200
 1536TIP3   OH226022   2.672   3.177  12.031 -0.2931  0.3078 -0.6734
 1536TIP3    H126023   2.708   3.205  12.115 -0.2031 -2.6564  0.3494
 1536TIP3    H226024   2.728   3.217  11.965  0.9855  0.8765  0.7510
 1537TIP3   OH226025   4.743   1.131  13.808  0.3129 -0.6134  0.1596
 1537TIP3    H126026   4.777   1.059  13.754  1.3699  0.3727 -0.5315
 1537TIP3    H226027   4.768   1.210  13.760  0.0470  0.2426  1.4127
 1538TIP3   OH226028   1.017   3.939  13.378  0.2727 -0.3974  0.0224
 1538TIP3    H126029   1.053   3.899  13.299  0.4595 -1.3888  0.6026
 1538TIP3    H226030   0.936   3.981  13.348  1.5856  1.3580 -1.1728
 1539TIP3   OH226031   1.062   2.307   2.004 -0.6910  0.0565 -0.6754
 1539TIP3    H126032   1.074   2.265   2.089  2.0566 -0.8814 -1.4662
 1539TIP3    H226033   1.068   2.236   1.941 -1.0018  0.9631 -1.7420
 1540TIP3   OH226034   5.180   5.238  15.282 -0.3387 -0.2172  0.0527
 1540TIP3    H126035   5.152   5.163  15.230  1.0365 -0.6196 -0.1238
 1540TIP3    H226036   5.205   5.304  15.217 -0.2626 -0.0876  0.2139
 1541TIP3   OH226037   3.331   4.578   0.119 -0.0289 -0.4788 -0.0762
 1541TIP3    H126038   3.313   4.484   0.115 -1.1492 -0.2494 -0.4754
 1541TIP3    H226039   3.245   4.619   0.127  0.3901  0.5604 -0.7274
 1542TIP3   OH226040   2.595   4.084  13.631 -0.1742  0.1755  0.5929
 1542TIP3    H126041   2.510   4.071  13.588 -0.4502 -0.8681  1.4293
 1542TIP3    H226042   2.650   4.014  13.598  0.3697  0.8594  0.0465
 1543TIP3   OH226043   6.756   3.845   4.333 -0.4810  0.4846 -0.2615
 1543TIP3    H126044   6.801   3.892   4.262 -0.4169  1.8800  0.6683
 1543TIP3    H226045   6.674   3.893   4.344  0.8235  2.1738  2.5980
 1544TIP3   OH226046   3.763   4.437   5.639  0.0595  0.8551 -0.0344
 1544TIP3    H126047   3.815   4.495   5.695 -0.4514  1.0260  0.2610
 1544TIP3    H226048   3.707   4.388   5.699  2.8619 -2.4411  0.0759
 1545TIP3   OH226049   4.511   4.176  14.871  0.0435  0.6665  0.1660
 1545TIP3    H126050   4.498   4.259  14.824 -1.4698  0.8798  0.9373
 1545TIP3    H226051   4.427   4.131  14.864  0.6406 -0.5092  0.3592
 1546TIP3   OH226052   4.071   0.071  15.442 -0.3389  0.0495  0.4509
 1546TIP3    H126053   4.164   0.079  15.466 -0.7743  2.5418  1.5081
 1546TIP3    H226054   4.070   0.082  15.346  0.4132  0.4645  0.4858
 1547TIP3   OH226055   0.814   2.023   5.772 -0.1514  0.2552 -1.0529
 1547TIP3    H126056   0.883   1.972   5.816 -0.6864 -0.4169 -0.9927
 1547TIP3    H226057   0.788   2.088   5.837 -0.7008 -0.5200 -0.4939
 1548TIP3   OH226058   1.293   4.409  13.848 -0.2714  0.0652 -0.3549
 1548TIP3    H126059   1.231   4.349  13.805 -1.8210  1.1211  0.3678
 1548TIP3    H226060   1.289   4.385  13.941  2.4134 -1.6265 -0.6296
 1549TIP3   OH226061   5.353   6.725   5.943 -0.1182 -0.0254 -0.8026
 1549TIP3    H126062   5.290   6.664   5.905 -1.8615  0.9424  0.4809
 1549TIP3    H226063   5.366   6.693   6.032  2.5219 -1.1915 -1.5537
 1550TIP3   OH226064   6.393   5.783   2.118 -0.7408  0.1031 -0.2548
 1550TIP3    H126065   6.348   5.777   2.034 -3.2199 -1.7028  1.1492
 1550TIP3    H226066   6.366   5.868   2.153  2.7947  2.3059 -2.5898
 1551TIP3   OH226067   5.217   4.073   5.959 -0.1749  0.2866 -0.4120
 1551TIP3    H126068   5.194   3.998   6.014  2.8097 -0.6720 -0.3454
 1551TIP3    H226069   5.203   4.042   5.870  0.8055 -0.3041 -0.3755
 1552TIP3   OH226070   2.622   5.206   0.318 -0.4445 -0.1767 -0.2900
 1552TIP3    H126071   2.618   5.172   0.229  0.5542 -0.7279 -0.1330
 1552TIP3    H226072   2.637   5.300   0.307 -1.6694 -0.0164 -0.7075
 1553TIP3   OH226073   2.272   5.922   0.138 -0.5200 -0.2586  0.2215
 1553TIP3    H126074   2.229   5.873   0.068  0.4053 -1.7850  0.6966
 1553TIP3    H226075   2.284   5.858   0.208 -0.6727  1.0426  1.4441
 1554TIP3   OH226076   6.099   6.715   1.001  0.5832 -0.9407 -0.3905
 1554TIP3    H126077   6.089   6.802   1.040  0.2921 -1.2620  0.2398
 1554TIP3    H226078   6.193   6.708   0.982  0.2348  0.6339 -3.0392
 1555TIP3   OH226079   0.162   4.053  12.419  0.0163  0.0326 -0.3426
 1555TIP3    H126080   0.190   4.118  12.484  0.8962  1.0615 -1.7372
 1555TIP3    H226081   0.224   3.981  12.430  1.3778  1.0153 -1.3196
 1556TIP3   OH226082   1.812   3.253  11.903  0.4268 -0.5208  0.1395
 1556TIP3    H126083   1.797   3.313  11.830  3.3175  2.4160  1.8263
 1556TIP3    H226084   1.905   3.230  11.897  0.6849 -0.3352  2.7812
 1557TIP3   OH226085   2.168   3.842   3.017 -0.0132 -0.0301 -0.1698
 1557TIP3    H126086   2.258   3.875   3.009  0.3186 -1.2832 -1.8292
 1557TIP3    H226087   2.163   3.770   2.954 -1.9104 -0.5801  0.5773
 1558TIP3   OH226088   3.474   1.014  16.766  0.7054 -0.3927  0.2499
 1558TIP3    H126089   3.384   1.003  16.798  0.1891  0.5923 -0.8001
 1558TIP3    H226090   3.468   1.089  16.707  2.0021 -1.0423 -0.7113
 1559TIP3   OH226091   2.720   0.927  16.334  0.7519  0.4033  0.4069
 1559TIP3    H126092   2.690   0.887  16.252 -3.0667  1.0021  1.4049
 1559TIP3    H226093   2.701   1.020  16.323 -0.8052  0.3413  2.3242
 1560TIP3   OH226094   4.831   2.101   0.929  0.1311  0.4935 -0.1009
 1560TIP3    H126095   4.821   2.136   0.841  0.3582  2.6488  0.7092
 1560TIP3    H226096   4.910   2.142   0.963  1.0547 -1.6965  0.4763
 1561TIP3   OH226097   4.082   0.633  10.755  0.1137 -0.0447 -0.1848
 1561TIP3    H126098   4.148   0.578  10.712  1.8491  1.0049  1.0592
 1561TIP3    H226099   4.080   0.601  10.845 -0.7859  0.1951 -0.1183
 1562TIP3   OH226100   2.704   1.059   1.531 -0.0759 -0.0806 -0.4766
 1562TIP3    H126101   2.725   1.153   1.526 -0.8113  0.2098  1.4823
 1562TIP3    H226102   2.789   1.017   1.548  0.2299  0.2383 -1.1898
 1563TIP3   OH226103   4.133   0.506   6.581 -0.2482 -0.2013  1.0475
 1563TIP3    H126104   4.186   0.457   6.644  1.9786  2.3521  1.2858
 1563TIP3    H226105   4.077   0.562   6.634 -0.8110 -0.5081  0.7775
 1564TIP3   OH226106   3.255   2.025  13.807 -0.2404  0.0142 -0.3627
 1564TIP3    H126107   3.181   2.035  13.747 -0.1484  1.8070 -0.2055
 1564TIP3    H226108   3.226   2.065  13.889  1.3776  2.0983 -0.7408
 1565TIP3   OH226109   3.804   4.411  10.726  0.2218  0.1036  1.3381
 1565TIP3    H126110   3.868   4.466  10.681 -1.4102  0.8472 -0.1228
 1565TIP3    H226111   3.736   4.472  10.755 -0.8342 -0.9301  1.0713
 1566TIP3   OH226112   5.089   4.221  11.490  0.0027 -0.2474  0.8185
 1566TIP3    H126113   5.073   4.304  11.445 -3.0392 -0.4084  1.4969
 1566TIP3    H226114   5.099   4.157  11.420  1.2589  0.4795  0.3164
 1567TIP3   OH226115   3.347   0.763  14.873 -0.3800  0.1180 -0.0297
 1567TIP3    H126116   3.402   0.799  14.943 -0.6012 -0.2045  0.3107
 1567TIP3    H226117   3.336   0.836  14.812 -1.0210  0.7059  0.7707
 1568TIP3   OH226118   4.674   4.334  13.149  0.1960 -0.7381 -0.2956
 1568TIP3    H126119   4.759   4.376  13.140 -0.2745  0.1712 -0.6201
 1568TIP3    H226120   4.684   4.249  13.106  0.3152  0.2449 -2.2531
 1569TIP3   OH226121   0.681   6.625  15.874  0.5611 -0.0506  0.0902
 1569TIP3    H126122   0.745   6.695  15.855 -0.4741  0.0542 -3.3026
 1569TIP3    H226123   0.698   6.558  15.808 -2.5217 -0.2125 -0.6263
 1570TIP3   OH226124   1.786   6.743  14.798  0.4338  0.2820 -0.2522
 1570TIP3    H126125   1.842   6.780  14.866 -1.8521  1.6901  0.9659
 1570TIP3    H226126   1.722   6.690  14.846 -0.5232  0.4010 -1.3619
 1571TIP3   OH226127   5.870   5.562  16.964  0.1079 -0.2694 -0.6051
 1571TIP3    H126128   5.902   5.651  16.976 -0.9071  0.1186 -0.7985
 1571TIP3    H226129   5.892   5.541  16.873 -0.4575  0.1128 -0.8337
 1572TIP3   OH226130   1.208   4.130  14.282  0.3277  0.1212 -0.3593
 1572TIP3    H126131   1.195   4.094  14.369  1.7111  1.4177  0.4069
 1572TIP3    H226132   1.137   4.194  14.271  0.4586  0.3360  0.0382
 1573TIP3   OH226133   1.226   3.151  13.561  0.1400 -0.2054 -0.1906
 1573TIP3    H126134   1.275   3.198  13.493 -0.8056  0.0588 -0.6949
 1573TIP3    H226135   1.287   3.146  13.635  0.1283  2.1641  0.0122
 1574TIP3   OH226136   1.707   6.284  13.158 -0.4085  0.3189 -0.1603
 1574TIP3    H126137   1.683   6.226  13.231  0.3415  0.5450  0.2651
 1574TIP3    H226138   1.652   6.254  13.085  0.3527 -1.3099 -0.1069
 1575TIP3   OH226139   2.397   5.292  13.362  0.1716 -0.2431  0.5870
 1575TIP3    H126140   2.451   5.298  13.441  0.4939  2.0643  0.2519
 1575TIP3    H226141   2.320   5.346  13.381  0.0783  0.0386 -0.5160
 1576TIP3   OH226142   1.867   6.652   3.694  0.2849 -0.4165  0.3340
 1576TIP3    H126143   1.945   6.668   3.641  0.4636 -1.4972  0.2744
 1576TIP3    H226144   1.893   6.677   3.783  0.4259  0.0309  0.1713
 1577TIP3   OH226145   0.789   0.058   4.257  0.3394  0.1330 -0.1653
 1577TIP3    H126146   0.705   0.034   4.294 -0.7365  3.4026 -0.3045
 1577TIP3    H226147   0.834   0.105   4.328  0.4112  1.8186 -1.2884
 1578TIP3   OH226148   6.717   0.196   4.157 -0.1951  0.0180  0.1243
 1578TIP3    H126149   6.798   0.187   4.107 -0.9188  0.2229 -1.0944
 1578TIP3    H226150   6.724   0.283   4.198 -0.3227  0.5397 -0.9421
 1579TIP3   OH226151   6.048   0.331  12.893 -0.0601 -1.0078 -0.0181
 1579TIP3    H126152   6.025   0.396  12.827 -1.6021 -0.7239  0.7624
 1579TIP3    H226153   6.008   0.250  12.861 -1.4919 -0.6965  0.9390
 1580TIP3   OH226154   0.041   4.633   0.933  0.2819 -0.4413 -0.4094
 1580TIP3    H126155   0.076   4.557   0.886 -2.3305 -1.7925 -0.2672
 1580TIP3    H226156  -0.034   4.661   0.880  1.2844  2.1225 -0.5168
 1581TIP3   OH226157   0.865   6.087   2.558  0.1056  0.2567 -0.2373
 1581TIP3    H126158   0.874   6.136   2.476  0.0475 -1.7171 -1.4493
 1581TIP3    H226159   0.778   6.047   2.552  0.5175 -0.7301  0.3232
 1582TIP3   OH226160   6.466   3.896  15.455  0.3768  0.5832  0.4297
 1582TIP3    H126161   6.458   3.970  15.394  1.3986  0.0874 -0.3189
 1582TIP3    H226162   6.447   3.934  15.541  2.4104  2.0673  0.2741
 1583TIP3   OH226163   6.215   1.442   6.315 -0.0705  0.2807 -0.1284
 1583TIP3    H126164   6.262   1.513   6.359 -0.4146  0.9754 -0.8640
 1583TIP3    H226165   6.212   1.372   6.379  3.0833 -0.2433 -0.4785
 1584TIP3   OH226166   5.377   4.720  14.727 -0.2575  0.2219  0.6790
 1584TIP3    H126167   5.395   4.627  14.740  0.3225  0.1008 -0.9031
 1584TIP3    H226168   5.393   4.735  14.634  0.7653  2.1456  1.1307
 1585TIP3   OH226169   6.776   4.195   4.583 -0.2675  0.2158 -0.0389
 1585TIP3    H126170   6.707   4.197   4.516  0.5301  1.3545 -0.8601
 1585TIP3    H226171   6.774   4.283   4.621 -0.2152 -0.2002  0.9349
 1586TIP3   OH226172   1.381   0.182  14.102 -0.5830  0.1672 -0.8576
 1586TIP3    H126173   1.290   0.208  14.090 -0.5477 -0.5479 -2.9229
 1586TIP3    H226174   1.391   0.168  14.196 -2.2394  1.5449 -0.4715
 1587TIP3   OH226175   0.634   2.287   4.662 -0.4202 -0.3482  0.4381
 1587TIP3    H126176   0.700   2.217   4.660 -0.3461 -0.2647 -0.1040
 1587TIP3    H226177   0.626   2.315   4.571 -0.6214  0.1964  0.6234
 1588TIP3   OH226178   0.359   2.187   1.160  0.3281  0.5005  0.5340
 1588TIP3    H126179   0.288   2.137   1.119 -0.1213  0.3864  1.4516
 1588TIP3    H226180   0.424   2.122   1.186 -0.3702  0.3543  1.9553
 1589TIP3   OH226181   0.181   1.237   4.388 -0.0688 -0.4473  0.1417
 1589TIP3    H126182   0.137   1.162   4.428  2.2117 -1.6827  0.4444
 1589TIP3    H226183   0.165   1.309   4.449 -0.1560 -1.3120  1.1608
 1590TIP3   OH226184   4.497   1.092  15.741 -0.0330  0.1097  0.0955
 1590TIP3    H126185   4.485   1.043  15.660 -0.9024  1.2128 -0.4485
 1590TIP3    H226186   4.548   1.169  15.717 -1.3567  1.0880  0.3321
 1591TIP3   OH226187   2.413   4.909   3.452  0.4640 -0.0923  0.4084
 1591TIP3    H126188   2.450   4.992   3.421  1.3972  0.4855  2.9508
 1591TIP3    H226189   2.326   4.932   3.482  0.0814 -0.3879 -0.4515
 1592TIP3   OH226190   4.730   5.858  15.849  0.2349  0.2561 -0.3369
 1592TIP3    H126191   4.636   5.873  15.848  0.3060  0.8232  0.4836
 1592TIP3    H226192   4.765   5.932  15.900  1.1532  0.2541 -0.9617
 1593TIP3   OH226193   0.900   4.658   2.461  0.6621 -0.7629  0.4609
 1593TIP3    H126194   0.861   4.667   2.374  1.2334  1.0710  0.3748
 1593TIP3    H226195   0.825   4.646   2.520  0.2744 -1.9975 -0.2666
 1594TIP3   OH226196   0.472   0.761   2.187  0.6558 -0.9647  0.1577
 1594TIP3    H126197   0.559   0.800   2.177 -0.8701  2.9091  1.0232
 1594TIP3    H226198   0.457   0.761   2.282 -1.3969  1.0653 -0.1371
 1595TIP3   OH226199   1.755   0.999  16.149 -1.0544 -0.1796  0.3298
 1595TIP3    H126200   1.695   1.031  16.081 -0.0702  2.0929  0.4863
 1595TIP3    H226201   1.697   0.976  16.222 -1.8474  0.8238  0.0407
 1596TIP3   OH226202   2.591   2.622  12.448  0.2213 -0.8304  0.1283
 1596TIP3    H126203   2.641   2.581  12.378 -0.7442 -0.1615 -0.9770
 1596TIP3    H226204   2.607   2.715  12.438  2.6476 -0.8935  2.8191
 1597TIP3   OH226205   3.687   6.699   2.063  0.0656  0.4342  0.5288
 1597TIP3    H126206   3.672   6.689   1.969 -0.7279 -0.9600  0.7897
 1597TIP3    H226207   3.774   6.738   2.069  0.5616 -0.4310 -0.7541
 1598TIP3   OH226208   5.967   3.651  11.601 -0.0589 -0.1854  0.0403
 1598TIP3    H126209   5.915   3.612  11.672 -0.3006 -0.0522 -0.0620
 1598TIP3    H226210   5.903   3.668  11.532 -0.1360  1.3230  0.4606
 1599TIP3   OH226211   3.689   0.565  16.949  0.0020 -0.1201 -0.3169
 1599TIP3    H126212   3.651   0.649  16.973  1.2105  0.7774 -1.4331
 1599TIP3    H226213   3.766   0.557  17.004  1.2283  0.6525 -1.8685
 1600TIP3   OH226214   2.389   0.457   4.902 -0.2157  0.0232  0.1188
 1600TIP3    H126215   2.397   0.367   4.871 -0.8154 -0.3837  1.1319
 1600TIP3    H226216   2.323   0.497   4.844  0.3816 -0.0413 -0.6219
 1601TIP3   OH226217   0.306   4.396  15.788 -0.2103 -0.6331  0.4568
 1601TIP3    H126218   0.275   4.381  15.699 -1.0831  2.3236  0.1825
 1601TIP3    H226219   0.388   4.445  15.777 -0.0742 -0.6774  1.2570
 1602TIP3   OH226220   2.892   0.617  15.065 -0.9029  0.1534 -0.4421
 1602TIP3    H126221   2.896   0.576  14.978  1.8879  0.3128 -0.4368
 1602TIP3    H226222   2.839   0.557  15.118  1.1403 -2.2545 -1.0559
 1603TIP3   OH226223   3.797   0.330   6.302  0.0600 -0.0558 -0.4081
 1603TIP3    H126224   3.836   0.387   6.235 -2.0222  1.0754 -0.6882
 1603TIP3    H226225   3.727   0.284   6.255  0.2199 -1.1225  0.3955
 1604TIP3   OH226226   1.897   6.635   0.996  0.3937  0.5254  0.7364
 1604TIP3    H126227   1.847   6.633   1.078 -0.4320  0.1060  0.2295
 1604TIP3    H226228   1.978   6.589   1.017  0.0053  0.0492  1.2120
 1605TIP3   OH226229   1.297   2.997   1.635  0.4651  0.3216  0.2986
 1605TIP3    H126230   1.312   3.089   1.618  1.5975  0.2936  1.1020
 1605TIP3    H226231   1.228   2.996   1.702  0.6867  0.5865  0.5290
 1606TIP3   OH226232   4.810   2.665   2.294 -0.7592 -0.1790  0.1207
 1606TIP3    H126233   4.839   2.578   2.264  2.3311  0.9207 -0.2976
 1606TIP3    H226234   4.852   2.675   2.380 -2.2138  0.3708  0.7769
 1607TIP3   OH226235   4.246   3.167  15.014  0.5834 -0.1323  0.2551
 1607TIP3    H126236   4.318   3.223  14.983 -0.0288  0.8944  0.6923
 1607TIP3    H226237   4.246   3.178  15.109 -2.2453  2.4466  0.0079
 1608TIP3   OH226238   6.406   3.335   0.066 -0.2023  0.3578 -0.1099
 1608TIP3    H126239   6.484   3.364   0.019  0.7059  0.3546  1.3273
 1608TIP3    H226240   6.434   3.334   0.158 -1.1657 -1.9849  0.1859
 1609TIP3   OH226241   3.411   0.484   3.900  0.1505  0.3488 -0.1284
 1609TIP3    H126242   3.373   0.397   3.892 -1.1580  0.9535 -0.7426
 1609TIP3    H226243   3.446   0.487   3.989  1.1287 -1.1477 -0.4431
 1610TIP3   OH226244   2.202   3.820   5.344  0.3450  0.4042 -0.2742
 1610TIP3    H126245   2.167   3.908   5.355  0.9413  0.7557 -1.0788
 1610TIP3    H226246   2.226   3.793   5.432  0.3076  1.1220 -0.0361
 1611TIP3   OH226247   1.624   6.243   1.783 -0.7184 -0.0281  0.4782
 1611TIP3    H126248   1.592   6.270   1.869  1.9591  1.7145  0.9997
 1611TIP3    H226249   1.626   6.147   1.787 -0.6953  0.0406  2.3539
 1612TIP3   OH226250   0.462   6.266   2.883  0.0270  0.9411  0.0190
 1612TIP3    H126251   0.538   6.264   2.826 -0.8316  0.3038 -1.1316
 1612TIP3    H226252   0.479   6.338   2.944  1.2314  1.2322 -0.6492
 1613TIP3   OH226253   4.679   1.588   4.870  0.2955 -0.1103  0.7368
 1613TIP3    H126254   4.652   1.557   4.783  0.3950 -0.4626  0.8292
 1613TIP3    H226255   4.771   1.611   4.859 -0.3441  2.2693  0.1072
 1614TIP3   OH226256   3.864   2.367  14.175  0.1949  0.0043 -0.7535
 1614TIP3    H126257   3.895   2.406  14.093 -1.0926  0.4646 -1.0310
 1614TIP3    H226258   3.878   2.273  14.163  0.2776  0.0943 -1.3790
 1615TIP3   OH226259   0.081   4.257   5.251  0.0048  0.5442  0.2572
 1615TIP3    H126260   0.158   4.240   5.306 -0.0299  0.1899  0.1983
 1615TIP3    H226261   0.010   4.271   5.312 -0.2225 -0.7374  0.3012
 1616TIP3   OH226262   4.453   4.088  13.822 -0.1337 -0.1263 -0.0484
 1616TIP3    H126263   4.516   4.040  13.769 -1.8601 -1.7558 -0.7054
 1616TIP3    H226264   4.403   4.141  13.759 -2.5338 -2.4608 -0.2047
 1617TIP3   OH226265   3.708   1.489   4.480  0.1061  0.0047 -0.5374
 1617TIP3    H126266   3.737   1.405   4.444 -1.8586 -0.9273 -0.0257
 1617TIP3    H226267   3.672   1.467   4.566 -0.0760  1.4295 -0.2402
 1618TIP3   OH226268   1.093   2.268  16.344  0.2609 -0.2113 -0.0997
 1618TIP3    H126269   1.188   2.264  16.351  0.3784 -0.1331 -1.3887
 1618TIP3    H226270   1.078   2.306  16.257 -0.9404  0.0528  0.2226
 1619TIP3   OH226271   5.420   5.146  16.025 -0.2917 -0.3878 -0.9760
 1619TIP3    H126272   5.459   5.069  15.985 -1.4345 -1.5386  0.0665
 1619TIP3    H226273   5.327   5.124  16.034 -0.2991  0.3203  1.1192
 1620TIP3   OH226274   5.969   4.011  12.114  0.3715 -0.0254  0.8740
 1620TIP3    H126275   5.995   4.087  12.063  0.9799 -1.7846 -1.5081
 1620TIP3    H226276   6.048   3.986  12.162  0.8336 -0.5959 -0.1905
 1621TIP3   OH226277   0.548   1.017   3.931 -0.0293  0.1850 -0.1080
 1621TIP3    H126278   0.639   1.002   3.903  0.5674 -2.1078  2.7660
 1621TIP3    H226279   0.532   0.947   3.994 -3.4153  1.3317  0.3432
 1622TIP3   OH226280   4.218   6.224   4.192 -0.1247  0.0686  0.6669
 1622TIP3    H126281   4.259   6.310   4.191  0.1095 -0.0468 -1.4360
 1622TIP3    H226282   4.131   6.238   4.155 -0.5967 -0.3584  1.5992
 1623TIP3   OH226283   5.079   5.274  16.408  0.0437  0.3430  0.4445
 1623TIP3    H126284   4.999   5.251  16.363  0.4056 -1.5359  0.7334
 1623TIP3    H226285   5.061   5.255  16.500  0.4694  0.9001  0.6475
 1624TIP3   OH226286   0.791   3.319  14.012  0.0118  0.2256  0.3907
 1624TIP3    H126287   0.837   3.355  13.937 -0.9592  1.2990  0.2964
 1624TIP3    H226288   0.799   3.224  14.001 -3.4695  0.2169 -3.2616
 1625TIP3   OH226289   0.224   1.676   4.354 -0.3051 -0.5521 -0.4520
 1625TIP3    H126290   0.224   1.608   4.422 -1.0383 -1.6666 -1.5398
 1625TIP3    H226291   0.182   1.751   4.395 -1.4606 -1.4730  0.0959
 1626TIP3   OH226292   2.956   0.351   1.644  0.8451  0.4266  0.0990
 1626TIP3    H126293   2.875   0.335   1.595  0.7006 -3.0531  1.2834
 1626TIP3    H226294   3.023   0.365   1.577  0.0682 -1.0870 -1.0315
 1627TIP3   OH226295   4.783   3.644   5.832 -0.1209 -0.7952 -0.1014
 1627TIP3    H126296   4.746   3.604   5.753  0.9616 -1.4665 -0.2846
 1627TIP3    H226297   4.708   3.684   5.877 -0.8589 -1.0622 -1.0816
 1628TIP3   OH226298   3.504   4.404  16.830 -0.5169  0.2206 -0.0112
 1628TIP3    H126299   3.481   4.455  16.907 -2.6195  1.7132 -1.5925
 1628TIP3    H226300   3.564   4.337  16.863  0.2540  2.1016  2.5365
 1629TIP3   OH226301   4.295   5.850  15.495 -0.1989  0.4829 -0.3803
 1629TIP3    H126302   4.302   5.934  15.539  0.6810  1.0272 -1.5057
 1629TIP3    H226303   4.271   5.873  15.405  0.2176 -0.4458 -0.7325
 1630TIP3   OH226304   3.105   0.882   2.527  0.0665 -0.0469 -0.8540
 1630TIP3    H126305   3.195   0.900   2.555  0.0920  0.5599 -1.3175
 1630TIP3    H226306   3.053   0.893   2.606  0.0462  2.3795 -1.1777
 1631TIP3   OH226307   5.524   2.824   6.324  0.2276  0.2258 -0.6159
 1631TIP3    H126308   5.441   2.799   6.284  0.2191  1.7768 -1.6265
 1631TIP3    H226309   5.503   2.840   6.416 -0.0062 -2.1386 -0.2318
 1632TIP3   OH226310   0.056   0.350  16.424  0.4464  0.1123 -0.0293
 1632TIP3    H126311  -0.026   0.380  16.464  0.1132 -1.5678  0.5677
 1632TIP3    H226312   0.046   0.373  16.331 -1.6423 -1.9926 -0.3807
 1633TIP3   OH226313   1.842   2.265   1.449  0.0418  0.2796 -0.1127
 1633TIP3    H126314   1.840   2.171   1.462  1.4465  0.2460 -0.1073
 1633TIP3    H226315   1.784   2.280   1.374 -1.0765 -0.4577  0.6086
 1634TIP3   OH226316   4.471   1.265   5.336 -0.1575 -0.2072 -0.1939
 1634TIP3    H126317   4.377   1.262   5.321 -0.4854 -0.5105  1.7006
 1634TIP3    H226318   4.489   1.187   5.389  0.7972  0.8881  1.1598
 1635TIP3   OH226319   3.717   4.527  16.393 -0.1473 -0.0810 -0.4573
 1635TIP3    H126320   3.716   4.587  16.468  0.3721 -1.1999  0.4466
 1635TIP3    H226321   3.637   4.549  16.345 -0.6673  0.3995  0.6111
 1636TIP3   OH226322   3.444   0.408   0.956 -0.1927  0.0285 -0.3726
 1636TIP3    H126323   3.479   0.464   0.888  1.0847 -2.4522 -1.8332
 1636TIP3    H226324   3.418   0.328   0.911 -0.7805 -1.0754  1.8271
 1637TIP3   OH226325   4.181   3.894  11.636  0.0923  0.1208 -0.7947
 1637TIP3    H126326   4.136   3.953  11.697 -0.6845  0.6881 -1.8877
 1637TIP3    H226327   4.232   3.835  11.692 -1.1759  0.1597  0.4388
 1638TIP3   OH226328   0.417   1.044  15.868 -0.0837 -0.0692 -0.1517
 1638TIP3    H126329   0.355   1.010  15.933 -0.5902 -2.1560 -1.6485
 1638TIP3    H226330   0.490   1.077  15.919 -0.9899 -0.5856  1.5268
 1639TIP3   OH226331   4.457   5.595  14.955 -0.0512  0.4354  0.1836
 1639TIP3    H126332   4.495   5.524  14.903  2.1981  1.1453  0.8464
 1639TIP3    H226333   4.362   5.583  14.945  0.3161 -1.0482 -1.8898
 1640TIP3   OH226334   4.262   5.486  15.628  0.6138  0.7804  0.6895
 1640TIP3    H126335   4.327   5.546  15.665  0.0975  0.2416  2.5385
 1640TIP3    H226336   4.210   5.459  15.704  3.2966 -5.1585  0.6641
 1641TIP3   OH226337   5.544   3.742  11.500  0.5312 -0.8637 -0.2114
 1641TIP3    H126338   5.518   3.828  11.466  3.0535 -0.8381 -2.1892
 1641TIP3    H226339   5.481   3.681  11.462 -1.4819  0.0780  1.4599
 1642TIP3   OH226340   2.122   6.324   1.567 -0.0159 -0.2107 -0.2079
 1642TIP3    H126341   2.186   6.255   1.550  2.8549  2.2368  0.0924
 1642TIP3    H226342   2.127   6.338   1.662  0.1103  1.0047 -0.3864
 1643TIP3   OH226343   1.451   1.126  16.792  0.0260 -0.2498 -0.1276
 1643TIP3    H126344   1.510   1.052  16.774 -0.3060 -0.6595  0.4572
 1643TIP3    H226345   1.363   1.089  16.781 -0.1655 -0.2496  1.3021
 1644TIP3   OH226346   4.179   3.455  15.213 -0.1468  0.0085 -0.2719
 1644TIP3    H126347   4.174   3.433  15.306  0.4346 -1.5816 -0.5798
 1644TIP3    H226348   4.271   3.479  15.199 -0.6095  1.8900 -0.1036
 1645TIP3   OH226349   6.085   1.480  16.547  0.1229 -0.5177 -0.5051
 1645TIP3    H126350   6.167   1.448  16.583  1.1910  2.0213 -0.5799
 1645TIP3    H226351   6.076   1.436  16.462  1.4160 -0.7742 -0.5094
 1646TIP3   OH226352   4.712   2.555   3.338 -0.5957  0.0914  0.0573
 1646TIP3    H126353   4.772   2.558   3.413 -0.9783  1.6147  0.3337
 1646TIP3    H226354   4.680   2.645   3.331 -1.9426 -0.4552 -0.8247
 1647TIP3   OH226355   2.903   3.856  13.099  0.1976 -0.5122 -0.4590
 1647TIP3    H126356   2.908   3.885  13.190  2.2427 -1.1942 -0.3295
 1647TIP3    H226357   2.809   3.844  13.083 -0.3563  1.7577  0.8623
 1648TIP3   OH226358   1.456   5.640   5.129  0.7141 -0.4287  0.0003
 1648TIP3    H126359   1.487   5.627   5.218  1.7097 -1.4075 -0.4884
 1648TIP3    H226360   1.451   5.552   5.091  0.1082 -0.0442 -0.8530
 1649TIP3   OH226361   5.674   0.107  11.000 -0.4695  0.5008  0.8253
 1649TIP3    H126362   5.680   0.060  10.917  0.8985  1.1348  0.5647
 1649TIP3    H226363   5.603   0.170  10.987 -1.8686 -1.0046  0.9513
 1650TIP3   OH226364   4.939   0.476  15.293  0.5894 -0.5737  0.0545
 1650TIP3    H126365   4.989   0.437  15.222  1.8076 -2.2020  1.7467
 1650TIP3    H226366   4.869   0.414  15.310  0.3408 -0.2245  0.3221
 1651TIP3   OH226367   2.313   6.077  16.549  0.0348  0.1005 -0.3839
 1651TIP3    H126368   2.350   6.121  16.625  0.4487 -3.7059  1.7210
 1651TIP3    H226369   2.342   6.130  16.475  1.2399  2.8288  1.9232
 1652TIP3   OH226370   0.264   2.478  16.671 -0.1224 -0.3246 -0.4043
 1652TIP3    H126371   0.256   2.427  16.590 -2.3637 -1.0318  0.2098
 1652TIP3    H226372   0.217   2.559  16.652 -1.2152 -0.7586  0.3526
 1653TIP3   OH226373   5.904   2.766  15.047 -0.0870  0.2235 -0.1608
 1653TIP3    H126374   5.842   2.838  15.044  0.3311  0.5857 -0.0087
 1653TIP3    H226375   5.990   2.806  15.034  0.1003 -0.3000 -0.5829
 1654TIP3   OH226376   3.988   2.506  10.724  0.1587  0.4158 -0.6255
 1654TIP3    H126377   3.897   2.533  10.735  0.2847  0.7032 -0.2900
 1654TIP3    H226378   4.038   2.588  10.725  0.4575  0.2325 -0.4372
 1655TIP3   OH226379   4.309   4.377  13.730  0.3101 -0.5019  0.0649
 1655TIP3    H126380   4.378   4.355  13.793  0.0648  1.5119  1.0740
 1655TIP3    H226381   4.345   4.351  13.645  1.1830 -2.0378  0.8760
 1656TIP3   OH226382   6.572   3.812   1.420  0.0254 -0.4141  0.2349
 1656TIP3    H126383   6.479   3.794   1.436 -0.3153  0.9094 -0.2434
 1656TIP3    H226384   6.573   3.874   1.347  1.3044 -0.7923 -0.0815
 1657TIP3   OH226385   6.084   1.885   5.055 -0.6180 -0.1257 -0.5260
 1657TIP3    H126386   6.042   1.834   4.985 -0.9732  1.3273 -1.4051
 1657TIP3    H226387   6.149   1.938   5.009 -0.5618  0.5314  0.3148
 1658TIP3   OH226388   1.269   4.567  10.220 -0.5005  0.6989  0.1527
 1658TIP3    H126389   1.346   4.618  10.246  1.8069 -2.0856 -1.0106
 1658TIP3    H226390   1.270   4.490  10.277 -1.4244 -0.2210 -1.0528
 1659TIP3   OH226391   4.997   5.774  11.960 -0.6281  0.0615 -0.5451
 1659TIP3    H126392   5.040   5.835  11.900  2.8714 -0.0228  1.7578
 1659TIP3    H226393   4.957   5.708  11.902  2.8931 -0.2066 -2.8264
 1660TIP3   OH226394   1.840   5.239   0.332  0.0841 -0.1535 -0.5763
 1660TIP3    H126395   1.897   5.300   0.380 -0.5750  1.9643 -2.3985
 1660TIP3    H226396   1.804   5.183   0.401  2.3417  0.1294  0.9105
 1661TIP3   OH226397   3.525   0.943  13.433 -0.4601 -0.7548  0.1414
 1661TIP3    H126398   3.446   0.948  13.487  0.6590 -1.7762  1.9124
 1661TIP3    H226399   3.527   0.853  13.401 -0.2304 -0.6205 -0.2213
 1662TIP3   OH226400   5.532   6.635  17.192 -0.5882 -0.0107 -0.1042
 1662TIP3    H126401   5.456   6.591  17.155  0.4124 -0.7043 -1.3654
 1662TIP3    H226402   5.505   6.727  17.201 -0.7850  0.2129 -2.7276
 1663TIP3   OH226403   3.303   4.290   4.083 -0.2014  0.2281  0.4265
 1663TIP3    H126404   3.263   4.329   4.160 -0.4237  0.3311  0.2603
 1663TIP3    H226405   3.354   4.361   4.043 -0.0811  0.1728  0.4801
 1664TIP3   OH226406   3.749   2.037  15.164 -0.6003 -0.0778  0.5978
 1664TIP3    H126407   3.760   2.108  15.227 -2.3173 -0.3513  1.2334
 1664TIP3    H226408   3.721   1.962  15.217  0.1331 -0.9461 -0.2084
 1665TIP3   OH226409   0.873   1.747  16.126  0.0525  0.0321 -0.3898
 1665TIP3    H126410   0.864   1.728  16.032 -1.2302 -0.9948 -0.0757
 1665TIP3    H226411   0.785   1.768  16.155  0.5500  0.9806  0.4643
 1666TIP3   OH226412   0.345   5.885  11.787 -0.3132 -0.5512  0.0069
 1666TIP3    H126413   0.272   5.871  11.847  0.7750 -0.9304  1.2554
 1666TIP3    H226414   0.323   5.966  11.741 -0.2095  0.8429  2.3286
 1667TIP3   OH226415   2.902   6.507  15.794 -0.1233 -0.5710 -0.0085
 1667TIP3    H126416   2.901   6.583  15.736 -0.3385 -0.5053  0.0801
 1667TIP3    H226417   2.988   6.467  15.780  0.3683  0.2320  0.6565
 1668TIP3   OH226418   0.635   2.821   6.490 -0.0566  0.1932 -0.1436
 1668TIP3    H126419   0.589   2.741   6.463  0.4597 -0.0730 -0.2654
 1668TIP3    H226420   0.728   2.795   6.489  0.4221  1.7709 -3.5995
 1669TIP3   OH226421   2.449   2.582  14.605 -0.3251 -0.5491 -0.1127
 1669TIP3    H126422   2.426   2.497  14.641  1.0119 -1.2360 -0.8778
 1669TIP3    H226423   2.452   2.569  14.510  0.0059  0.3157 -0.2283
 1670TIP3   OH226424   4.673   5.614  16.558 -0.4952  0.1978 -0.8010
 1670TIP3    H126425   4.674   5.539  16.498 -0.5265 -0.5980  0.1670
 1670TIP3    H226426   4.731   5.587  16.630 -1.1149  0.7944 -0.0740
 1671TIP3   OH226427   1.985   3.392  16.290  0.3352 -0.0915 -0.1301
 1671TIP3    H126428   2.019   3.332  16.355  1.6399  2.5098  1.6910
 1671TIP3    H226429   1.906   3.429  16.329 -0.1388 -0.1853 -0.9774
 1672TIP3   OH226430   1.681   4.127   0.010  0.3496  0.4533  0.0145
 1672TIP3    H126431   1.660   4.220   0.004 -0.8803  0.2662  1.2979
 1672TIP3    H226432   1.760   4.117  -0.043  0.4376  2.2074 -0.2063
 1673TIP3   OH226433   5.129   1.995  13.509  0.4018 -0.8166  0.1031
 1673TIP3    H126434   5.040   1.987  13.543  0.2272  0.9439  0.0743
 1673TIP3    H226435   5.160   2.078  13.543  1.1440 -0.2229 -1.9671
 1674TIP3   OH226436   5.801   3.275  16.324 -0.2237 -0.0398  0.1581
 1674TIP3    H126437   5.725   3.225  16.356  0.3332 -1.2300 -0.3605
 1674TIP3    H226438   5.769   3.318  16.245  0.1566 -2.0404 -1.1151
 1675TIP3   OH226439   6.545   6.308  13.832  0.3826  0.6104 -0.2006
 1675TIP3    H126440   6.506   6.261  13.906  1.8008 -0.1701  0.0830
 1675TIP3    H226441   6.540   6.400  13.857  0.6401  0.3706  0.7797
 1676TIP3   OH226442   1.100   0.041  14.167 -0.2861  0.7168  0.0708
 1676TIP3    H126443   1.087   0.115  14.108  0.3498  0.8555  0.0973
 1676TIP3    H226444   1.101  -0.036  14.111 -0.4860  0.7760 -0.0120
 1677TIP3   OH226445   4.646   1.893  12.445  0.3049 -0.1767 -0.5017
 1677TIP3    H126446   4.559   1.884  12.486 -0.1720 -2.5711 -1.9052
 1677TIP3    H226447   4.654   1.986  12.424 -1.6883  0.1675  0.1772
 1678TIP3   OH226448   3.258   3.677  15.907 -0.1451 -0.6052  0.3009
 1678TIP3    H126449   3.244   3.746  15.972 -0.8712 -0.0537 -0.4263
 1678TIP3    H226450   3.172   3.638  15.894  0.4032 -2.2075  1.2980
 1679TIP3   OH226451   4.285   4.004  11.178  0.3163 -1.0232  0.1924
 1679TIP3    H126452   4.296   4.015  11.084 -0.8647  1.5402  0.3085
 1679TIP3    H226453   4.218   3.936  11.187  0.7229 -1.5568 -0.8066
 1680TIP3   OH226454   2.778   0.693   4.690  0.3572  0.1869 -0.2504
 1680TIP3    H126455   2.749   0.622   4.747  2.4549 -0.6021 -0.1147
 1680TIP3    H226456   2.701   0.749   4.680 -0.8286 -1.1637  1.0665
 1681TIP3   OH226457   2.002   2.536  16.806 -0.1879 -0.1225  0.5154
 1681TIP3    H126458   2.097   2.541  16.794 -0.3025 -0.6590 -0.7277
 1681TIP3    H226459   1.972   2.486  16.730 -1.6380  1.4834  0.0058
 1682TIP3   OH226460   5.093   1.687  12.355 -0.3925 -0.4493 -0.3416
 1682TIP3    H126461   5.161   1.652  12.414  0.8475  2.1625 -0.1538
 1682TIP3    H226462   5.011   1.669  12.401  0.2636 -2.1925  0.2033
 1683TIP3   OH226463   0.284   5.746   3.819  0.1710 -0.0028 -0.3629
 1683TIP3    H126464   0.269   5.838   3.796 -0.8229 -0.3443 -1.0861
 1683TIP3    H226465   0.378   5.734   3.806  0.0913  0.5645 -1.5289
 1684TIP3   OH226466   6.515   3.674   3.050 -0.2929  0.4113 -0.0188
 1684TIP3    H126467   6.453   3.620   3.101 -0.2290  0.6152  0.2777
 1684TIP3    H226468   6.526   3.626   2.968  2.5476 -1.9559  1.6252
 1685TIP3   OH226469   6.122   6.056   3.446  0.3525 -0.4473  0.7421
 1685TIP3    H126470   6.124   6.148   3.471  3.9824 -0.0188 -0.8499
 1685TIP3    H226471   6.066   6.054   3.368 -0.1099  0.3331  1.0450
 1686TIP3   OH226472   4.038   4.035  11.832 -0.0541 -0.2656 -0.2134
 1686TIP3    H126473   3.959   4.050  11.883 -0.4169 -0.7521 -0.6247
 1686TIP3    H226474   4.098   4.104  11.859  0.1650 -1.1650  1.7054
 1687TIP3   OH226475   3.295   5.390  16.392 -0.2673 -0.1077 -0.0670
 1687TIP3    H126476   3.262   5.378  16.481 -1.9973 -0.2629 -0.7081
 1687TIP3    H226477   3.307   5.484  16.383 -2.0331  0.1080 -0.3312
 1688TIP3   OH226478   0.820   2.363  15.054 -0.1321  0.0957 -0.0390
 1688TIP3    H126479   0.832   2.295  14.987 -1.7071 -0.4544  0.2096
 1688TIP3    H226480   0.792   2.314  15.132 -0.1903  0.9275  0.4609
 1689TIP3   OH226481   2.286   5.361   3.561 -0.3192  0.1503  0.8654
 1689TIP3    H126482   2.330   5.395   3.483  0.5889 -0.0188  1.2971
 1689TIP3    H226483   2.346   5.378   3.633 -0.6790 -0.6545  1.3764
 1690TIP3   OH226484   4.225   4.301   6.277 -0.1497  0.3281  0.4072
 1690TIP3    H126485   4.305   4.250   6.287 -0.3736 -0.2551 -0.7692
 1690TIP3    H226486   4.241   4.381   6.327  0.8335 -0.1579  0.8760
 1691TIP3   OH226487   3.125   2.623   4.243 -0.2356 -0.1976  0.7173
 1691TIP3    H126488   3.194   2.570   4.282  1.8439  1.3264 -0.7931
 1691TIP3    H226489   3.092   2.676   4.316  0.7866 -0.3018  1.2636
 1692TIP3   OH226490   5.264   5.345   3.748 -0.2901 -0.2266  0.0170
 1692TIP3    H126491   5.340   5.395   3.720 -0.0196 -1.1846 -1.0206
 1692TIP3    H226492   5.281   5.324   3.840 -1.0308  2.6774  0.8508
 1693TIP3   OH226493   6.782   4.014  11.872  0.2465  0.0210  0.1614
 1693TIP3    H126494   6.772   3.927  11.911  0.8432 -0.3612 -0.5170
 1693TIP3    H226495   6.856   4.005  11.812 -0.4592  0.6875 -0.8162
 1694TIP3   OH226496   6.139   2.701  10.739 -0.8349  0.5747  0.0117
 1694TIP3    H126497   6.222   2.713  10.693 -0.5287 -0.7149  0.2122
 1694TIP3    H226498   6.146   2.614  10.779 -2.3177  0.4156 -0.0503
 1695TIP3   OH226499   3.806   1.365   4.875  0.0438  0.5073  0.3937
 1695TIP3    H126500   3.820   1.293   4.814 -1.2327  1.0140 -0.5045
 1695TIP3    H226501   3.810   1.325   4.961  0.3622 -0.4673 -0.0714
 1696TIP3   OH226502   1.118   4.469  15.660  0.4262 -0.2037  0.1397
 1696TIP3    H126503   1.048   4.472  15.726  2.0691 -1.2748  2.0196
 1696TIP3    H226504   1.107   4.550  15.610 -0.6005  0.8985  2.0483
 1697TIP3   OH226505   2.407   2.495   0.433  0.1968  0.0300 -0.4408
 1697TIP3    H126506   2.502   2.504   0.426  0.0639  0.3575 -1.7790
 1697TIP3    H226507   2.380   2.452   0.352 -0.6113 -1.5420  0.6345
 1698TIP3   OH226508   5.919   2.381  11.646  0.0391 -0.4625 -0.0012
 1698TIP3    H126509   5.990   2.440  11.670 -0.3833 -0.5899  1.6467
 1698TIP3    H226510   5.866   2.431  11.584 -0.2028  0.8165  1.2174
 1699TIP3   OH226511   0.451   5.003   5.469  0.6442 -0.0531  0.6692
 1699TIP3    H126512   0.430   5.092   5.439  1.2478 -0.1854 -0.1603
 1699TIP3    H226513   0.375   4.978   5.521  0.3427  0.8450  0.6806
 1700TIP3   OH226514   6.355   5.544   0.094 -0.6616  0.1387  0.4123
 1700TIP3    H126515   6.445   5.514   0.090 -1.4457 -2.4274  0.9695
 1700TIP3    H226516   6.345   5.601   0.017  1.2923  0.1125  0.1223
 1701TIP3   OH226517   6.076   3.508  12.875 -0.6407 -0.4829 -0.4643
 1701TIP3    H126518   5.986   3.477  12.880 -1.4634  1.4424 -2.6215
 1701TIP3    H226519   6.069   3.599  12.847  1.9950 -0.4390 -1.1036
 1702TIP3   OH226520   0.383   4.022  10.717  0.1474  0.0150  0.1588
 1702TIP3    H126521   0.319   3.962  10.678 -0.1045 -0.0007  0.5891
 1702TIP3    H226522   0.467   3.979  10.704  0.2566  0.7723 -1.8222
 1703TIP3   OH226523   6.312   2.606   4.682  0.8133  0.4288  0.0883
 1703TIP3    H126524   6.277   2.693   4.700  1.3814  0.9163 -1.0883
 1703TIP3    H226525   6.405   2.614   4.700  0.6216 -0.3893  1.5200
 1704TIP3   OH226526   0.154   1.013   3.091  0.0544 -0.2926 -0.0312
 1704TIP3    H126527   0.073   0.969   3.117  0.2103 -0.0884  0.8316
 1704TIP3    H226528   0.224   0.960   3.129  0.2796  0.1272  0.1467
 1705TIP3   OH226529   1.769   2.721   3.726 -0.1143  0.2347  0.1678
 1705TIP3    H126530   1.863   2.708   3.736 -0.0901 -1.2190 -1.5752
 1705TIP3    H226531   1.731   2.635   3.743 -1.1551  0.8833  1.1565
 1706TIP3   OH226532   3.444   4.966   5.244 -0.2078 -0.5433  0.1859
 1706TIP3    H126533   3.404   4.953   5.330 -0.0016 -0.3253  0.3152
 1706TIP3    H226534   3.499   4.889   5.232 -0.5767 -0.7898  0.0568
 1707TIP3   OH226535   5.539   0.030  11.555 -0.0884 -0.9305  0.6359
 1707TIP3    H126536   5.560  -0.063  11.550  0.8348 -0.7256  0.5870
 1707TIP3    H226537   5.612   0.073  11.511 -0.8394 -0.2192  0.0595
 1708TIP3   OH226538   4.026   1.067  14.681  0.4859  0.2339  0.8020
 1708TIP3    H126539   3.935   1.078  14.652  0.1054 -2.3570  0.8547
 1708TIP3    H226540   4.021   1.062  14.776  0.5608 -0.7664  0.7612
 1709TIP3   OH226541   0.020   4.313   5.592 -0.1152 -0.0452 -0.3093
 1709TIP3    H126542  -0.064   4.278   5.564  0.6919 -0.2408 -2.6344
 1709TIP3    H226543   0.074   4.236   5.609 -0.6326  0.0702  2.0343
 1710TIP3   OH226544   6.604   6.200   5.489  0.2383 -0.4010  0.3159
 1710TIP3    H126545   6.685   6.217   5.537 -0.8390 -1.1370  2.4570
 1710TIP3    H226546   6.585   6.108   5.506  0.4136 -1.0221 -2.5041
 1711TIP3   OH226547   4.648   1.893   5.348  0.1918  0.5907 -0.6701
 1711TIP3    H126548   4.607   1.931   5.425 -0.5382 -0.3610 -0.5848
 1711TIP3    H226549   4.671   1.968   5.293 -0.8024  1.1764 -0.2870
 1712TIP3   OH226550   4.154   5.426  17.098 -0.3023 -0.4187  0.3840
 1712TIP3    H126551   4.180   5.469  17.017 -1.1250 -0.6246  0.0023
 1712TIP3    H226552   4.087   5.484  17.135 -1.1217 -1.1604  0.0756
 1713TIP3   OH226553   1.631   4.492   6.536 -0.3646 -1.1128 -0.4603
 1713TIP3    H126554   1.584   4.556   6.483 -0.3151 -0.5329  0.1912
 1713TIP3    H226555   1.651   4.420   6.476  0.8267  0.1021 -1.5480
 1714TIP3   OH226556   2.341   6.643   1.565 -0.1951 -0.0003  0.4756
 1714TIP3    H126557   2.407   6.573   1.567 -0.3437 -0.1035  2.3626
 1714TIP3    H226558   2.383   6.717   1.608 -1.2797 -0.0320  1.5940
 1715TIP3   OH226559   3.640   5.598  12.807  0.1161  0.3142  0.3427
 1715TIP3    H126560   3.701   5.670  12.820 -1.2823  1.3788  1.2514
 1715TIP3    H226561   3.592   5.592  12.890  0.7060 -2.1693  0.5512
 1716TIP3   OH226562   2.505   5.819  16.737 -0.1690 -0.1120 -0.2664
 1716TIP3    H126563   2.571   5.767  16.693 -0.6303 -0.6008 -0.3821
 1716TIP3    H226564   2.469   5.876  16.669  2.3196  2.4327  0.4147
 1717TIP3   OH226565   1.869   6.305   2.254  0.1194  0.8185  0.5294
 1717TIP3    H126566   1.863   6.255   2.173  1.0046  1.8377 -0.1755
 1717TIP3    H226567   1.928   6.253   2.309  1.2830  1.2360 -0.3148
 1718TIP3   OH226568   3.213   5.179   2.094  0.3971  0.1218  0.1863
 1718TIP3    H126569   3.198   5.273   2.087 -0.0963 -0.0808 -1.7689
 1718TIP3    H226570   3.232   5.151   2.004  2.2140 -1.3786  0.9926
 1719TIP3   OH226571   5.188   0.536   3.813  0.7077  0.4113 -0.7055
 1719TIP3    H126572   5.264   0.589   3.790  1.1596  0.0809  0.0161
 1719TIP3    H226573   5.153   0.506   3.729  1.1444  0.8800 -1.0550
 1720TIP3   OH226574   6.501   4.150   3.999 -0.0048  0.1188  0.7063
 1720TIP3    H126575   6.557   4.094   3.946  0.8383  0.5648  1.1132
 1720TIP3    H226576   6.439   4.188   3.936  2.2154  2.1617 -0.3297
 1721TIP3   OH226577   4.466   1.042  11.413 -0.2339  0.3481 -0.4956
 1721TIP3    H126578   4.448   0.951  11.389 -1.2015  0.4350 -0.1109
 1721TIP3    H226579   4.497   1.037  11.504 -2.0496  0.5735  0.1522
 1722TIP3   OH226580   4.979   3.300   5.329  0.1861 -0.1837 -1.0073
 1722TIP3    H126581   5.035   3.286   5.405 -0.5840  0.1844 -0.3683
 1722TIP3    H226582   5.018   3.376   5.285  1.3059 -1.0876 -1.6317
 1723TIP3   OH226583   5.920   3.447  16.824  0.0687  0.0509  0.2248
 1723TIP3    H126584   5.976   3.444  16.902 -0.5289 -1.8191  0.6001
 1723TIP3    H226585   5.871   3.365  16.827 -0.1639  0.0941 -1.9908
 1724TIP3   OH226586   5.250   0.054  16.348 -0.0905 -0.0500  0.3054
 1724TIP3    H126587   5.192   0.122  16.384  1.6456  1.0466  1.0909
 1724TIP3    H226588   5.338   0.089  16.359  0.7620 -1.8152 -0.6383
 1725TIP3   OH226589   6.345   4.672  14.021 -0.1178  0.0162 -0.1334
 1725TIP3    H126590   6.399   4.750  14.008 -1.2098  0.6073 -1.1506
 1725TIP3    H226591   6.383   4.630  14.098  1.1476  0.9777 -0.2173
 1726TIP3   OH226592   1.832   4.894  14.741  0.1352 -0.4139  0.1232
 1726TIP3    H126593   1.793   4.934  14.818  1.1761  0.7418  0.0630
 1726TIP3    H226594   1.886   4.823  14.775  1.8975  1.1220  0.6252
 1727TIP3   OH226595   2.862   0.780  14.405 -0.2758  0.3855  0.3221
 1727TIP3    H126596   2.884   0.871  14.384 -1.6637  0.6365 -0.0967
 1727TIP3    H226597   2.924   0.728  14.354 -0.0423  1.0837 -0.1162
 1728TIP3   OH226598   5.677   1.618   3.786  0.1441  0.1648  0.6468
 1728TIP3    H126599   5.656   1.708   3.762 -1.6134  0.1735  2.0388
 1728TIP3    H226600   5.767   1.604   3.756 -0.0946  1.8850 -0.9156
 1729TIP3   OH226601   5.154   3.922   2.488 -0.6591  0.3534  0.1345
 1729TIP3    H126602   5.089   3.914   2.557 -0.4132 -1.2767  0.1945
 1729TIP3    H226603   5.131   3.854   2.425 -0.0473  0.9094 -0.7120
 1730TIP3   OH226604   0.150   0.306   0.827 -0.4194 -0.3856 -0.3505
 1730TIP3    H126605   0.133   0.298   0.921  0.4342  0.0916 -0.1473
 1730TIP3    H226606   0.162   0.399   0.812  0.7490 -0.5751 -0.6917
 1731TIP3   OH226607   4.316   0.162   2.345  0.5534  0.0855 -0.1185
 1731TIP3    H126608   4.388   0.125   2.295  0.2470 -0.8356  0.1128
 1731TIP3    H226609   4.326   0.124   2.433 -0.9580 -1.0736 -0.4259
 1732TIP3   OH226610   4.275   3.938  14.429 -0.0349 -0.0369 -0.0047
 1732TIP3    H126611   4.248   3.979  14.347 -0.1843 -0.0037  0.0627
 1732TIP3    H226612   4.272   4.008  14.493  1.2927  0.2339 -0.2253
 1733TIP3   OH226613   1.970   2.571  11.663  0.1179 -0.3247 -0.0432
 1733TIP3    H126614   2.016   2.498  11.704  0.5512  0.1252  0.2855
 1733TIP3    H226615   1.912   2.604  11.732  1.4768  0.9825  0.5190
 1734TIP3   OH226616   6.163   4.737  14.543  0.3256 -0.1169  0.5236
 1734TIP3    H126617   6.143   4.743  14.637 -0.4838 -0.2756  0.3626
 1734TIP3    H226618   6.255   4.711  14.540  0.8270  1.4962  1.2713
 1735TIP3   OH226619   2.389   0.380  12.444 -0.4107  0.2551 -0.4370
 1735TIP3    H126620   2.333   0.334  12.381  0.1643  3.3242 -3.3665
 1735TIP3    H226621   2.343   0.462  12.462  0.4302  0.3131  1.6031
 1736TIP3   OH226622   5.876   4.089   2.777 -0.4992  0.0983  0.1212
 1736TIP3    H126623   5.863   4.143   2.699  0.0443 -0.0766 -0.0904
 1736TIP3    H226624   5.813   4.018   2.767 -0.4407  0.0831 -0.1519
 1737TIP3   OH226625   6.534   1.429   5.086  0.2924 -0.4111 -0.0391
 1737TIP3    H126626   6.613   1.383   5.116  1.3685  1.9257  0.8868
 1737TIP3    H226627   6.565   1.515   5.060 -1.6848 -0.1433 -1.6073
 1738TIP3   OH226628   1.531   5.119  13.825 -0.3475 -0.0678  0.1688
 1738TIP3    H126629   1.540   5.197  13.769 -1.1365  1.2738  1.8608
 1738TIP3    H226630   1.620   5.098  13.851 -0.2486  1.1725  0.8776
 1739TIP3   OH226631   5.948   5.453   0.699 -0.5967 -0.6945  0.0307
 1739TIP3    H126632   6.036   5.471   0.666 -0.3354  1.5329  1.7748
 1739TIP3    H226633   5.897   5.431   0.621  1.3585 -1.4471 -1.0776
 1740TIP3   OH226634   1.652   0.054  12.110  0.3756  0.5207  0.0958
 1740TIP3    H126635   1.736   0.038  12.067  0.1588 -0.8198  0.1736
 1740TIP3    H226636   1.620  -0.032  12.135  0.1401  1.2280  2.2889
 1741TIP3   OH226637   6.177   1.321  10.979  0.5725  0.4275  0.1457
 1741TIP3    H126638   6.221   1.298  10.898 -1.0403 -0.1302 -0.5943
 1741TIP3    H226639   6.198   1.250  11.039  0.4833  0.0375 -0.2816
 1742TIP3   OH226640   6.480   4.745   5.713  0.2930  0.2193  0.2472
 1742TIP3    H126641   6.411   4.786   5.660 -0.3725 -1.6213 -0.3403
 1742TIP3    H226642   6.440   4.664   5.745  2.0333 -0.6218  0.3021
 1743TIP3   OH226643   1.276   4.478  14.965  0.3200 -0.1776 -0.4068
 1743TIP3    H126644   1.326   4.475  15.046  0.9309  0.9979 -0.7193
 1743TIP3    H226645   1.213   4.407  14.972  0.1656  0.1042  1.2270
 1744TIP3   OH226646   1.054   2.600  15.719  0.2288 -0.0235  0.0986
 1744TIP3    H126647   1.117   2.538  15.682  0.4423 -0.4044  1.0983
 1744TIP3    H226648   0.969   2.570  15.687  0.4381 -0.1918 -0.3008
 1745TIP3   OH226649   4.106   4.487  15.197  0.1304  0.0355 -0.0434
 1745TIP3    H126650   4.160   4.474  15.120  0.0472  0.3386 -0.1549
 1745TIP3    H226651   4.043   4.555  15.171 -0.6914 -0.7362 -0.1151
 1746TIP3   OH226652   4.598   0.880   0.058  0.7900 -0.5765  0.4057
 1746TIP3    H126653   4.568   0.926   0.136 -1.1189 -0.0914 -0.5872
 1746TIP3    H226654   4.676   0.928   0.029  0.9043 -0.1553  1.4172
 1747TIP3   OH226655   0.722   0.289  14.964 -0.3419  0.3706 -0.0061
 1747TIP3    H126656   0.682   0.289  14.877 -0.9771 -2.3482  0.2678
 1747TIP3    H226657   0.652   0.319  15.023 -1.5397 -2.6741  0.2255
 1748TIP3   OH226658   2.758   5.429   2.638  0.3816 -0.3624  0.5074
 1748TIP3    H126659   2.822   5.451   2.570 -0.1013 -1.7986 -0.4576
 1748TIP3    H226660   2.689   5.494   2.628  1.1649  0.5212  0.8171
 1749TIP3   OH226661   4.641   3.817   1.472 -0.3150  0.1762  0.1533
 1749TIP3    H126662   4.679   3.865   1.545 -0.7911  0.4545  0.2217
 1749TIP3    H226663   4.715   3.771   1.432 -0.1316 -0.3360  1.0780
 1750TIP3   OH226664   3.047   2.292   0.760 -0.0120 -0.1052  0.3972
 1750TIP3    H126665   2.972   2.273   0.816 -0.8779  0.6692 -0.4658
 1750TIP3    H226666   3.115   2.323   0.820 -0.6596 -0.0345  1.1098
 1751TIP3   OH226667   1.643   6.134  14.035  0.2301 -0.5884 -0.0423
 1751TIP3    H126668   1.667   6.200  14.099 -1.6002 -1.6677  1.8523
 1751TIP3    H226669   1.565   6.169  13.992  0.5606 -0.5383 -0.6055
 1752TIP3   OH226670   3.971   6.214   3.226 -0.3655 -0.4920 -0.5113
 1752TIP3    H126671   3.920   6.286   3.189 -0.7890 -0.6841 -0.2968
 1752TIP3    H226672   3.946   6.211   3.318  1.4067  0.6165  0.0329
 1753TIP3   OH226673   1.889   2.584  16.451 -0.3639  0.0130 -0.0831
 1753TIP3    H126674   1.951   2.657  16.452  0.8937 -1.0396  0.1186
 1753TIP3    H226675   1.803   2.625  16.440  0.3575  1.4952 -0.2448
 1754TIP3   OH226676   5.591   1.998   2.211  0.0416 -0.2779 -0.0430
 1754TIP3    H126677   5.594   2.088   2.244  1.9424 -0.0064 -0.8909
 1754TIP3    H226678   5.580   2.007   2.117  0.4133 -0.9266 -0.1497
 1755TIP3   OH226679   4.223   0.562  13.654  0.7863 -0.5042  0.5373
 1755TIP3    H126680   4.151   0.558  13.592  0.5940  3.2193  0.4224
 1755TIP3    H226681   4.208   0.489  13.714 -1.8705 -1.0318 -0.7262
 1756TIP3   OH226682   5.349   1.155   4.603  0.1358 -0.2347 -0.2818
 1756TIP3    H126683   5.280   1.195   4.656  0.1167  0.4772 -0.8429
 1756TIP3    H226684   5.371   1.074   4.650 -0.5477 -0.0879  0.3014
 1757TIP3   OH226685   5.527   1.336  13.017 -0.3716  0.4541  0.5164
 1757TIP3    H126686   5.581   1.277  12.964  0.0712  0.2061  1.2411
 1757TIP3    H226687   5.578   1.417  13.023 -0.4139  0.4769  0.5722
 1758TIP3   OH226688   0.581   0.654  12.037  0.1845 -0.2134  0.5740
 1758TIP3    H126689   0.495   0.628  12.003 -0.2039  1.5828  0.1233
 1758TIP3    H226690   0.577   0.633  12.130 -1.0976  0.7390  0.7435
 1759TIP3   OH226691   4.038   5.914  14.699  0.6368  0.2425  0.6646
 1759TIP3    H126692   4.048   5.836  14.644 -1.7926  1.0055 -0.9824
 1759TIP3    H226693   4.032   5.986  14.636  0.3744  1.4619  2.0608
 1760TIP3   OH226694   1.422   4.173  16.104 -0.0560  0.1199  0.7592
 1760TIP3    H126695   1.505   4.200  16.063 -0.1361  2.6839  2.1704
 1760TIP3    H226696   1.399   4.246  16.161 -3.6905 -0.2126 -0.1434
 1761TIP3   OH226697   6.447   1.942  16.714 -0.4972 -0.2378 -0.4988
 1761TIP3    H126698   6.391   2.019  16.700 -0.0994  0.2459  0.5500
 1761TIP3    H226699   6.475   1.918  16.626 -1.7864 -0.0600 -0.9760
 1762TIP3   OH226700   4.718   4.015  11.512 -0.1647  0.1454  0.4289
 1762TIP3    H126701   4.625   4.007  11.536 -0.8569  0.1438 -2.1315
 1762TIP3    H226702   4.729   4.108  11.493 -0.0392 -0.1187 -0.8018
 1763TIP3   OH226703   5.484   4.556   0.573  0.2167  0.7620  0.5844
 1763TIP3    H126704   5.425   4.569   0.648 -0.6072 -0.6054  0.1799
 1763TIP3    H226705   5.427   4.560   0.496  0.6267 -0.6881  0.1972
 1764TIP3   OH226706   0.844   5.934  14.660  0.6724  0.3651  0.3467
 1764TIP3    H126707   0.802   5.982  14.588 -0.3353  2.2383  2.1419
 1764TIP3    H226708   0.772   5.887  14.702  1.1407 -0.1391  0.5947
 1765TIP3   OH226709   3.469   4.996  13.518  0.3398 -0.2819 -0.2630
 1765TIP3    H126710   3.379   5.028  13.521 -0.0098 -1.3556  1.2369
 1765TIP3    H226711   3.503   5.011  13.607  1.3076 -0.8257 -0.5378
 1766TIP3   OH226712   4.335   6.632  12.252  0.1619  0.1367 -0.7119
 1766TIP3    H126713   4.363   6.577  12.325 -0.2244 -0.8639 -1.3141
 1766TIP3    H226714   4.252   6.670  12.281 -0.0869 -0.4111 -0.7005
 1767TIP3   OH226715   2.388   5.605   4.616 -0.4552  0.4220  0.5653
 1767TIP3    H126716   2.315   5.639   4.565  0.1892 -0.5659 -1.0670
 1767TIP3    H226717   2.357   5.605   4.706 -2.0858  0.9889  0.0230
 1768TIP3   OH226718   2.103   1.055   2.616 -0.3692 -0.5081  0.2274
 1768TIP3    H126719   2.031   1.102   2.659  0.5185  2.6807 -1.6020
 1768TIP3    H226720   2.059   0.997   2.554 -1.4254  2.5744 -2.0327
 1769TIP3   OH226721   4.456   3.868  15.309 -0.1194  0.0444 -0.1562
 1769TIP3    H126722   4.492   3.942  15.261 -0.5140  0.5340  0.2928
 1769TIP3    H226723   4.444   3.799  15.243  2.2888 -0.3771 -0.1888
 1770TIP3   OH226724   5.920   4.902  14.055  0.0802  1.0027 -0.2726
 1770TIP3    H126725   5.826   4.898  14.071  0.1186  0.6334 -0.1382
 1770TIP3    H226726   5.960   4.886  14.140  0.3272 -3.7634 -1.1600
 1771TIP3   OH226727   2.815   2.641  15.390 -0.3444 -0.2580  0.1705
 1771TIP3    H126728   2.878   2.650  15.318  0.8042 -0.5421  1.1162
 1771TIP3    H226729   2.760   2.718  15.384  1.1234  0.8187  0.2991
 1772TIP3   OH226730   6.147   6.732   1.417 -0.3995  0.3320  0.1884
 1772TIP3    H126731   6.052   6.737   1.426 -0.2766  0.1442  1.7898
 1772TIP3    H226732   6.163   6.655   1.363 -1.1585  0.4191 -0.1561
 1773TIP3   OH226733   1.638   2.865   5.096  0.2234  0.4672  0.5256
 1773TIP3    H126734   1.593   2.844   5.013  1.3684  0.8273 -0.1881
 1773TIP3    H226735   1.666   2.780   5.129  0.6340  0.4147  0.0462
 1774TIP3   OH226736   5.135   1.493  14.761  0.3414  0.4766 -0.5292
 1774TIP3    H126737   5.166   1.519  14.847  0.4287 -2.3206  0.3317
 1774TIP3    H226738   5.203   1.435  14.727 -1.6830 -1.9851 -0.5716
 1775TIP3   OH226739   3.758   3.745  16.826  0.1508 -0.0917 -0.2373
 1775TIP3    H126740   3.696   3.814  16.850  0.6019  0.3308 -0.2884
 1775TIP3    H226741   3.728   3.716  16.740 -0.1920 -0.1392 -0.1052
 1776TIP3   OH226742   5.775   6.645   4.108  0.2269 -0.2253  0.1883
 1776TIP3    H126743   5.838   6.611   4.044  1.1971 -0.0424  1.0260
 1776TIP3    H226744   5.701   6.673   4.056  0.3957 -1.4269 -0.7355
 1777TIP3   OH226745   2.335   5.178  13.758  0.1299 -0.0221  0.2567
 1777TIP3    H126746   2.336   5.273  13.768  1.5857  0.0818 -0.6942
 1777TIP3    H226747   2.359   5.145  13.845  1.8482  0.5501  0.0150
 1778TIP3   OH226748   3.782   3.845  16.312 -0.5889  0.7022  0.3284
 1778TIP3    H126749   3.711   3.853  16.376 -0.9072  0.2706  0.0380
 1778TIP3    H226750   3.855   3.894  16.350 -0.0073 -1.4346  2.1124
 1779TIP3   OH226751   0.831   6.401  11.512  0.3332 -0.2631  0.2578
 1779TIP3    H126752   0.790   6.379  11.428 -1.0473 -1.9470  1.3456
 1779TIP3    H226753   0.870   6.319  11.542 -0.4036 -0.0239  1.9244
 1780TIP3   OH226754   0.011   4.481  13.605 -0.2526 -0.0228  0.0249
 1780TIP3    H126755  -0.004   4.435  13.687 -1.0244 -0.8598 -0.5829
 1780TIP3    H226756  -0.063   4.457  13.549 -0.4443  1.6032 -0.4601
 1781TIP3   OH226757   1.601   4.324  12.194  0.4743 -0.4785  0.3126
 1781TIP3    H126758   1.668   4.340  12.261  0.2213  1.3846  0.1399
 1781TIP3    H226759   1.645   4.343  12.112  0.7735 -2.7330 -0.0726
 1782TIP3   OH226760   3.546   5.061   5.003 -0.5698 -0.1791  0.3861
 1782TIP3    H126761   3.501   5.062   5.087 -0.6553 -0.0602  0.3395
 1782TIP3    H226762   3.513   4.982   4.959 -0.1096 -0.5377  0.6871
 1783TIP3   OH226763   3.616   4.264  14.874 -0.2898  0.6761 -0.1350
 1783TIP3    H126764   3.570   4.308  14.804 -1.9254  1.1079  1.1911
 1783TIP3    H226765   3.628   4.331  14.942  0.2050 -0.0413  0.5018
 1784TIP3   OH226766   4.243   5.990  14.040 -0.0444  0.1266 -0.4185
 1784TIP3    H126767   4.330   5.960  14.066 -1.0985 -2.3262  0.3880
 1784TIP3    H226768   4.243   5.984  13.944  0.8893  0.8070 -0.4718
 1785TIP3   OH226769   3.986   3.425  13.827 -0.2382 -0.2954  0.2343
 1785TIP3    H126770   4.075   3.423  13.792 -0.9227  0.8911 -1.6457
 1785TIP3    H226771   3.933   3.461  13.756 -1.9690  0.4642  1.8681
 1786TIP3   OH226772   2.495   3.981  17.181 -0.0448  0.3498  0.4645
 1786TIP3    H126773   2.556   3.931  17.127  0.0432  0.0499  0.8475
 1786TIP3    H226774   2.420   3.996  17.123  0.6835  1.3319 -0.2374
 1787TIP3   OH226775   5.948   3.252  11.341  0.1657  0.5005  0.0449
 1787TIP3    H126776   5.896   3.308  11.398 -2.8989 -0.6157 -1.5749
 1787TIP3    H226777   5.891   3.179  11.320  2.5378 -0.9829 -1.4993
 1788TIP3   OH226778   2.614   5.524   5.784  0.0921 -0.6558 -0.2176
 1788TIP3    H126779   2.645   5.590   5.846 -0.6047  0.6391 -1.2230
 1788TIP3    H226780   2.545   5.478   5.831  2.1908 -2.3105  1.3571
 1789TIP3   OH226781   3.898   2.420   4.295  0.3050  0.6260  0.8291
 1789TIP3    H126782   3.945   2.457   4.220 -0.7586 -0.8344 -0.6031
 1789TIP3    H226783   3.960   2.356   4.333  0.4058  0.5050  0.4634
 1790TIP3   OH226784   2.179   0.919  10.306  0.1253  0.3348  0.5205
 1790TIP3    H126785   2.188   0.842  10.362 -0.2397 -0.1892 -0.1344
 1790TIP3    H226786   2.114   0.974  10.349  0.6164  0.4267  1.1497
 1791TIP3   OH226787   3.308   5.579   1.434  0.6829  0.1502 -0.2735
 1791TIP3    H126788   3.382   5.602   1.491 -0.2399 -1.1478  1.4677
 1791TIP3    H226789   3.245   5.650   1.447  0.2421 -0.4274  0.7339
 1792TIP3   OH226790   2.491   3.942  13.875 -0.9230  0.3784  0.1607
 1792TIP3    H126791   2.511   4.025  13.832 -2.2666  0.3976 -0.4332
 1792TIP3    H226792   2.400   3.951  13.904 -0.6154 -0.3305  1.3764
 1793TIP3   OH226793   6.151   2.855   4.802 -0.2383  0.0058 -0.0583
 1793TIP3    H126794   6.133   2.948   4.789 -0.1093  0.0484  0.0591
 1793TIP3    H226795   6.203   2.853   4.883  0.3453 -0.1062 -0.4319
 1794TIP3   OH226796   4.221   5.524  13.708  0.4168  0.2427 -0.6428
 1794TIP3    H126797   4.161   5.535  13.634  0.0078  1.4851 -0.1515
 1794TIP3    H226798   4.238   5.430  13.712 -0.4859  0.0283 -1.5900
 1795TIP3   OH226799   1.102   0.026   5.290  0.2508 -0.2863  0.6834
 1795TIP3    H126800   1.158  -0.042   5.326  1.1096  0.7889  1.4166
 1795TIP3    H226801   1.066   0.072   5.366  0.2428  0.5218  0.2046
 1796TIP3   OH226802   1.517   0.890   0.440 -0.2813  0.4298 -0.0823
 1796TIP3    H126803   1.425   0.892   0.413 -0.9831  0.6927  2.2753
 1796TIP3    H226804   1.547   0.980   0.432 -1.2759  1.0338  2.5732
 1797TIP3   OH226805   3.080   5.821  16.343  0.1557  0.3049 -0.0863
 1797TIP3    H126806   2.991   5.822  16.306 -0.2468 -0.3714  0.8279
 1797TIP3    H226807   3.079   5.889  16.410  0.8139  1.3706 -1.1432
 1798TIP3   OH226808   4.437   6.324  14.398  0.0378  0.2874  0.2832
 1798TIP3    H126809   4.384   6.314  14.318 -2.2520  1.3455  1.6215
 1798TIP3    H226810   4.510   6.263  14.386 -2.2271 -2.2725 -1.0149
 1799TIP3   OH226811   4.109   2.705  14.890 -0.1923 -0.1510  0.0805
 1799TIP3    H126812   4.057   2.657  14.954  0.1817 -1.1169 -0.3266
 1799TIP3    H226813   4.116   2.794  14.925 -2.4126  0.0975 -0.0250
 1800TIP3   OH226814   4.558   5.162   6.672  0.2296  0.4856 -0.0177
 1800TIP3    H126815   4.612   5.083   6.668  0.9200  0.8895  1.2004
 1800TIP3    H226816   4.468   5.129   6.682  0.3545 -0.1602 -0.9327
 1801TIP3   OH226817   4.087   1.547  15.521 -0.2976  0.3740 -1.0260
 1801TIP3    H126818   4.015   1.501  15.478 -1.6807  2.3934 -0.9311
 1801TIP3    H226819   4.158   1.482  15.524 -2.0910 -1.6608 -1.0977
 1802TIP3   OH226820   3.612   2.445  12.699 -0.2182 -0.2240 -0.6473
 1802TIP3    H126821   3.662   2.507  12.751  0.4857  0.2837 -1.9041
 1802TIP3    H226822   3.569   2.389  12.763 -1.1526  1.7777  0.5214
 1803TIP3   OH226823   0.780   5.682  14.986  0.7569 -0.1883 -0.3641
 1803TIP3    H126824   0.804   5.619  15.054  1.4734  0.0866 -0.3506
 1803TIP3    H226825   0.849   5.748  14.989 -1.1996  1.8423  1.1869
 1804TIP3   OH226826   1.291   5.609   5.618 -0.2018 -0.2200 -0.3811
 1804TIP3    H126827   1.291   5.693   5.663 -0.9737 -0.3062 -0.2197
 1804TIP3    H226828   1.383   5.583   5.615 -0.0299  0.3331  0.1262
 1805TIP3   OH226829   2.098   6.178   2.395 -0.3792  0.0067  0.2544
 1805TIP3    H126830   2.059   6.106   2.346  1.3516 -1.4742  0.9598
 1805TIP3    H226831   2.166   6.136   2.448 -0.5443  1.9116  2.0383
 1806TIP3   OH226832   2.395   4.275  14.273 -0.1116  0.2191  0.1359
 1806TIP3    H126833   2.312   4.318  14.253 -0.1776 -0.0490 -0.1810
 1806TIP3    H226834   2.380   4.230  14.356 -0.1193  0.5987  0.3419
 1807TIP3   OH226835   6.152   4.349  11.782 -0.2882  0.0691  0.4646
 1807TIP3    H126836   6.200   4.321  11.704  0.0887 -0.6974  0.9641
 1807TIP3    H226837   6.064   4.368  11.751 -0.1980 -0.4505 -0.1064
 1808TIP3   OH226838   2.147   6.190   0.994 -0.1702 -0.1689 -0.0072
 1808TIP3    H126839   2.164   6.283   1.010  1.1229 -0.3222 -0.4465
 1808TIP3    H226840   2.159   6.148   1.079 -2.3782  0.2835  0.5449
 1809TIP3   OH226841   5.331   2.676   4.521 -0.7367 -0.2061  0.4450
 1809TIP3    H126842   5.420   2.661   4.491 -1.3692 -1.8897 -0.6422
 1809TIP3    H226843   5.297   2.744   4.463 -0.3666 -0.0161  0.4534
 1810TIP3   OH226844   4.197   6.297   0.373  0.7933 -0.1555 -0.1564
 1810TIP3    H126845   4.175   6.217   0.325 -0.5142  1.2508 -1.9643
 1810TIP3    H226846   4.112   6.337   0.391  1.4571  0.9261  0.6029
 1811TIP3   OH226847   0.363   1.804   5.321 -0.4674 -0.7666 -0.6770
 1811TIP3    H126848   0.295   1.744   5.353  0.7366 -2.1855 -0.7050
 1811TIP3    H226849   0.315   1.873   5.275 -1.8094 -2.4921 -1.9224
 1812TIP3   OH226850   3.597   0.651  11.338  0.6102 -0.5031  0.0319
 1812TIP3    H126851   3.676   0.636  11.390 -0.0622 -1.8127  0.6934
 1812TIP3    H226852   3.602   0.586  11.268  0.6635  0.1484 -0.5760
 1813TIP3   OH226853   5.832   3.692   4.071 -0.2065  0.1632 -0.5798
 1813TIP3    H126854   5.905   3.641   4.037 -0.0683 -1.0481  1.4680
 1813TIP3    H226855   5.873   3.763   4.120 -0.4122  0.4108 -0.7636
 1814TIP3   OH226856   1.281   3.768  14.297  0.4713  0.0648  0.1372
 1814TIP3    H126857   1.212   3.751  14.234  1.7034 -1.2980 -0.8925
 1814TIP3    H226858   1.244   3.833  14.357 -2.1971 -1.6889  0.4585
 1815TIP3   OH226859   6.147   1.888  13.516  0.0971 -0.0886  0.0868
 1815TIP3    H126860   6.105   1.969  13.488 -0.9131 -0.5630  0.1575
 1815TIP3    H226861   6.238   1.896  13.488 -0.2578  0.5919 -0.9064
 1816TIP3   OH226862   4.989   1.111   4.401 -0.2488  0.3611 -0.0158
 1816TIP3    H126863   4.896   1.112   4.378 -0.1789 -3.1179 -0.6548
 1816TIP3    H226864   4.993   1.061   4.483  0.8835  2.0995  1.0202
 1817TIP3   OH226865   4.978   0.094   2.047 -0.8125 -0.5798  0.7162
 1817TIP3    H126866   4.945   0.111   1.959 -1.5532 -1.0952  0.8867
 1817TIP3    H226867   5.058   0.044   2.034  1.1642  2.5678  0.2106
 1818TIP3   OH226868   4.200   4.069   5.275 -0.0729  0.2274  0.4425
 1818TIP3    H126869   4.138   4.012   5.229 -0.6968 -0.0877  1.6785
 1818TIP3    H226870   4.162   4.157   5.265 -1.1798 -0.0695  1.9375
 1819TIP3   OH226871   5.944   2.484  14.656  0.6343 -0.2104 -0.5628
 1819TIP3    H126872   5.856   2.456  14.684  0.6371 -0.2295 -0.5733
 1819TIP3    H226873   6.002   2.449  14.723  0.5357  0.6769 -0.0133
 1820TIP3   OH226874   6.673   0.722  12.734  0.4125 -0.3848 -1.0130
 1820TIP3    H126875   6.650   0.753  12.647  0.1492  0.0765 -0.7836
 1820TIP3    H226876   6.768   0.729  12.738  0.4426 -0.6106 -1.3382
 1821TIP3   OH226877   0.420   3.707  11.702  0.2578 -0.3962  0.2114
 1821TIP3    H126878   0.409   3.629  11.647 -1.5383  0.6840 -1.0143
 1821TIP3    H226879   0.461   3.772  11.644  3.5285 -0.9633  1.7591
 1822TIP3   OH226880   4.868   4.662   3.136  0.1652 -0.1166  0.1192
 1822TIP3    H126881   4.895   4.642   3.046 -1.0100  0.1888 -0.3016
 1822TIP3    H226882   4.782   4.623   3.145 -0.4470  1.2908  0.5708
 1823TIP3   OH226883   2.832   5.115   3.160  0.1246  0.6190 -0.0937
 1823TIP3    H126884   2.821   5.099   3.066  0.1741 -0.9077  0.1541
 1823TIP3    H226885   2.921   5.150   3.169  1.1906 -1.9397 -0.3057
 1824TIP3   OH226886   0.983   0.104  16.265  0.1435  0.2437 -0.4116
 1824TIP3    H126887   0.977   0.175  16.328 -0.2259 -0.5412  0.4580
 1824TIP3    H226888   1.056   0.128  16.207  1.1542  0.4725  0.9453
 1825TIP3   OH226889   1.213   0.955   0.905 -0.0522 -0.0739  0.2743
 1825TIP3    H126890   1.211   0.922   0.995  0.7854 -0.5844  0.1163
 1825TIP3    H226891   1.262   0.888   0.856 -0.9465 -0.0603 -0.6659
 1826TIP3   OH226892   5.377   3.686   2.038  0.4906 -0.0190 -0.3558
 1826TIP3    H126893   5.345   3.752   1.977 -1.0381 -1.9419 -1.6764
 1826TIP3    H226894   5.457   3.652   1.996  0.3562 -0.1783 -0.4825
 1827TIP3   OH226895   3.892   4.660  11.118 -0.3342  0.4903  0.3812
 1827TIP3    H126896   3.827   4.658  11.048  0.5883  0.3011 -0.4799
 1827TIP3    H226897   3.968   4.616  11.081  0.8854  2.2285  0.7559
 1828TIP3   OH226898   1.637   5.311   1.684 -0.8857 -0.3006 -0.1878
 1828TIP3    H126899   1.584   5.374   1.634  0.8651  2.5728  1.4449
 1828TIP3    H226900   1.581   5.285   1.757 -1.6404 -0.7084 -0.8989
 1829TIP3   OH226901   6.746   6.405  11.562 -0.0192 -0.5782 -0.1231
 1829TIP3    H126902   6.755   6.423  11.468  0.6127  0.1678  0.0756
 1829TIP3    H226903   6.709   6.316  11.566  1.5358 -1.2944 -1.0675
 1830TIP3   OH226904   4.911   4.281   0.541  0.4509  0.0171  0.1626
 1830TIP3    H126905   4.867   4.204   0.505  0.6548  0.2074 -0.5078
 1830TIP3    H226906   4.985   4.245   0.589  0.8947 -0.1802 -0.6535
 1831TIP3   OH226907   3.358   3.947  14.436 -0.0999  0.6296  0.2554
 1831TIP3    H126908   3.369   3.853  14.445 -0.7231  0.6813  1.8905
 1831TIP3    H226909   3.394   3.983  14.517 -0.2626  1.7568 -0.1563
 1832TIP3   OH226910   3.125   3.068  15.918 -0.6191  0.0118  0.2186
 1832TIP3    H126911   3.171   3.056  15.835 -1.2125 -0.7681 -0.0138
 1832TIP3    H226912   3.190   3.049  15.985 -1.1052 -3.0928 -0.1279
 1833TIP3   OH226913   1.794   2.030  12.395 -0.1962 -0.0881 -0.5559
 1833TIP3    H126914   1.744   2.049  12.474 -1.5072 -0.6136 -1.2528
 1833TIP3    H226915   1.830   1.942  12.410 -1.9350 -0.9496 -1.2744
 1834TIP3   OH226916   6.400   3.739   4.655  0.0254 -0.2137  0.5034
 1834TIP3    H126917   6.328   3.774   4.707 -0.3944 -1.5801  0.8683
 1834TIP3    H226918   6.467   3.716   4.720  1.3855  2.3367  0.0677
 1835TIP3   OH226919   4.192   5.838   5.343  0.3163  0.3107 -0.1613
 1835TIP3    H126920   4.280   5.846   5.308 -0.1409 -0.5923 -1.5456
 1835TIP3    H226921   4.153   5.925   5.330  0.6090  0.3731 -0.6171
 1836TIP3   OH226922   3.387   4.921   2.823 -0.2711  0.4738 -0.6314
 1836TIP3    H126923   3.364   4.956   2.737  0.6381  2.0039 -0.2838
 1836TIP3    H226924   3.303   4.909   2.867 -0.5968  3.6810 -0.2512
 1837TIP3   OH226925   3.172   5.844  14.370 -0.6714 -0.2908  0.3748
 1837TIP3    H126926   3.163   5.849  14.465  3.8483 -0.8071  0.9297
 1837TIP3    H226927   3.249   5.897  14.350  1.2337 -3.8389 -2.3927
 1838TIP3   OH226928   2.322   3.597   3.817  0.1419 -0.9756  0.2117
 1838TIP3    H126929   2.307   3.603   3.912 -1.2912  1.5560 -0.1526
 1838TIP3    H226930   2.247   3.547   3.784 -0.6014  0.2091  0.1043
 1839TIP3   OH226931   4.286   2.109  16.247 -0.3509  0.0962 -0.3020
 1839TIP3    H126932   4.280   2.138  16.338 -0.1989  0.2653 -0.3452
 1839TIP3    H226933   4.282   2.014  16.251  1.9299 -0.0154  0.0742
 1840TIP3   OH226934   0.388   5.937  13.764 -0.3334  0.2973  0.1460
 1840TIP3    H126935   0.374   5.894  13.849 -0.9370 -0.2444 -0.2181
 1840TIP3    H226936   0.338   5.883  13.702 -0.2553  0.9398 -0.4805
 1841TIP3   OH226937   5.029   3.614  16.219  0.1293 -0.2806 -0.3957
 1841TIP3    H126938   5.101   3.580  16.271 -0.4022 -0.2564  0.3585
 1841TIP3    H226939   5.067   3.631  16.132  0.3792 -2.8512 -0.8030
 1842TIP3   OH226940   0.081   5.871  13.319  0.2127  0.3855 -0.8804
 1842TIP3    H126941   0.082   5.776  13.314 -2.1048  0.3169 -0.9159
 1842TIP3    H226942   0.077   5.900  13.228  0.6494  0.5005 -0.8608
 1843TIP3   OH226943   2.704   6.401   0.731  0.1576 -0.4908  1.0862
 1843TIP3    H126944   2.755   6.365   0.659 -0.4552  1.1457 -0.1882
 1843TIP3    H226945   2.613   6.396   0.701 -0.2001 -0.6766  2.1444
 1844TIP3   OH226946   2.901   1.364   2.486 -0.3630 -0.0979 -0.2310
 1844TIP3    H126947   2.970   1.349   2.421 -1.1792  1.0019 -1.3602
 1844TIP3    H226948   2.946   1.355   2.571  0.5434 -2.3130 -0.8956
 1845TIP3   OH226949   0.503   5.440  14.866  0.2599 -0.5807  0.1549
 1845TIP3    H126950   0.446   5.374  14.825 -0.5865 -0.2552  0.7871
 1845TIP3    H226951   0.451   5.520  14.863  1.0939 -0.0586 -0.1697
 1846TIP3   OH226952   0.527   6.521   2.977  0.2199 -0.2925 -0.2391
 1846TIP3    H126953   0.461   6.590   2.973  1.3797  0.7770 -1.3304
 1846TIP3    H226954   0.580   6.542   3.054 -1.4262 -1.8405  1.3587
 1847TIP3   OH226955   1.108   5.198  11.725  0.3288  0.1586  0.2066
 1847TIP3    H126956   1.070   5.221  11.640  0.4391 -0.7039 -0.0813
 1847TIP3    H226957   1.034   5.165  11.776  0.3512  0.2228  0.2802
 1848TIP3   OH226958   0.570   6.193   4.674  0.3689  0.0884  0.0419
 1848TIP3    H126959   0.547   6.231   4.759  1.4826  1.0046 -0.0494
 1848TIP3    H226960   0.635   6.253   4.638  0.5366 -0.7526 -1.0886
 1849TIP3   OH226961   5.509   0.883  14.344 -0.1546  0.2681  0.0768
 1849TIP3    H126962   5.479   0.869  14.254  0.7059 -1.4766  0.0365
 1849TIP3    H226963   5.601   0.854  14.344 -0.0155  0.6512  1.4098
 1850TIP3   OH226964   6.266   5.247   3.121 -0.5414  0.7579 -0.4814
 1850TIP3    H126965   6.206   5.196   3.176 -0.8216  1.2606 -0.3180
 1850TIP3    H226966   6.334   5.278   3.182  0.2132 -0.3132 -0.7760
 1851TIP3   OH226967   3.056   5.065  12.822  0.4852 -0.5389 -0.0950
 1851TIP3    H126968   3.017   4.987  12.783  0.8329 -0.8746  0.2243
 1851TIP3    H226969   3.097   5.034  12.902  1.2335 -0.1571 -0.3251
 1852TIP3   OH226970   3.126   5.750   1.797  0.7477  0.3851 -0.2860
 1852TIP3    H126971   3.152   5.659   1.812  2.9760  0.8809 -0.9047
 1852TIP3    H226972   3.095   5.751   1.706  0.8802  0.2906 -0.3324
 1853TIP3   OH226973   2.019   2.064  13.432  0.2487  0.6018 -0.3757
 1853TIP3    H126974   2.067   2.138  13.395 -0.3324  0.4119 -1.5479
 1853TIP3    H226975   2.085   1.997  13.446  0.6616  1.0914  0.0196
 1854TIP3   OH226976   1.326   2.223   0.140  0.4622  0.8869  0.1340
 1854TIP3    H126977   1.256   2.287   0.130  0.2921  0.5416 -1.0803
 1854TIP3    H226978   1.374   2.228   0.057  0.0534 -0.9969 -0.2336
 1855TIP3   OH226979   2.741   4.098  13.354 -0.8436 -0.5048 -0.9234
 1855TIP3    H126980   2.793   4.088  13.434  0.7003 -0.6673 -1.9141
 1855TIP3    H226981   2.670   4.158  13.379 -0.4154 -0.5892  0.5744
 1856TIP3   OH226982   0.284   0.543   4.554  0.5570  0.0077  0.0610
 1856TIP3    H126983   0.314   0.537   4.645 -0.8609 -2.6773  0.4085
 1856TIP3    H226984   0.347   0.600   4.511  2.4682 -0.4228  2.2357
 1857TIP3   OH226985   5.085   3.215   2.438  0.1921 -0.0551  0.3901
 1857TIP3    H126986   5.010   3.235   2.494  0.1864  0.9841  0.0293
 1857TIP3    H226987   5.047   3.180   2.357  0.2489 -2.7259  1.4696
 1858TIP3   OH226988   4.152   0.089   4.147  0.2082 -0.3036 -0.3989
 1858TIP3    H126989   4.170   0.113   4.056 -0.5043 -0.9520 -0.7236
 1858TIP3    H226990   4.195   0.156   4.199  0.2219  0.3422 -1.2283
 1859TIP3   OH226991   2.572   5.810   2.191  0.3514  0.3583 -0.0160
 1859TIP3    H126992   2.653   5.758   2.196  0.3164  0.4693  2.6123
 1859TIP3    H226993   2.502   5.746   2.205  0.1266  0.6243  0.0689
 1860TIP3   OH226994   2.614   3.168   5.532  0.0256 -0.1515 -0.2065
 1860TIP3    H126995   2.519   3.156   5.536 -0.3920  2.8155  0.6015
 1860TIP3    H226996   2.626   3.229   5.459  1.1853  0.2762  0.3340
 1861TIP3   OH226997   1.200   0.568  12.242 -0.5792 -0.4450  0.2007
 1861TIP3    H126998   1.144   0.522  12.306 -0.0014  0.4673  1.3876
 1861TIP3    H226999   1.146   0.641  12.212 -0.0926  0.3680  1.2591
 1862TIP3   OH227000   2.308   5.013  15.879  0.1359  0.1297 -0.1173
 1862TIP3    H127001   2.306   5.097  15.925 -0.0613  1.0587 -1.7986
 1862TIP3    H227002   2.381   4.966  15.919  1.6334  1.9712 -0.6351
 1863TIP3   OH227003   4.602   3.464  12.842  0.4577 -0.1595 -0.4037
 1863TIP3    H127004   4.640   3.413  12.771  0.4397 -1.0992  0.2449
 1863TIP3    H227005   4.629   3.417  12.922 -0.2959  0.3485  0.1557
 1864TIP3   OH227006   0.482   5.469  14.186 -0.3912 -0.5108  0.2367
 1864TIP3    H127007   0.450   5.538  14.245 -1.5981 -0.5360 -0.3733
 1864TIP3    H227008   0.480   5.390  14.239 -1.2465 -0.4900  0.2533
 1865TIP3   OH227009   5.512   6.359   5.088 -0.2988 -0.4766  0.2229
 1865TIP3    H127010   5.584   6.347   5.150  0.2354  2.1141  0.1367
 1865TIP3    H227011   5.451   6.416   5.133 -0.9007 -0.2758 -0.8450
 1866TIP3   OH227012   1.948   6.694   5.704 -0.4648  0.5973 -0.3131
 1866TIP3    H127013   2.022   6.635   5.717 -1.0218  0.1259  0.8341
 1866TIP3    H227014   1.968   6.740   5.623 -0.4040 -1.7561 -1.6705
 1867TIP3   OH227015   5.911   2.309  11.317 -0.1746  0.5417 -0.8414
 1867TIP3    H127016   5.978   2.356  11.268 -1.7857  2.1553 -1.5685
 1867TIP3    H227017   5.831   2.359  11.301 -1.6696 -1.6873 -0.5066
 1868TIP3   OH227018   5.961   0.188   0.405 -0.1474  0.4500  0.0366
 1868TIP3    H127019   6.043   0.237   0.403  0.0559  0.0627 -1.0849
 1868TIP3    H227020   5.981   0.104   0.364 -0.8618 -0.0238  0.6288
 1869TIP3   OH227021   3.084   5.410   3.596  0.2339 -0.2732 -0.4015
 1869TIP3    H127022   3.036   5.331   3.573 -0.8264  0.4469 -0.7067
 1869TIP3    H227023   3.176   5.385   3.591 -0.1082 -1.7448  0.4422
 1870TIP3   OH227024   2.884   3.567   2.877 -0.1074  0.1051  0.6525
 1870TIP3    H127025   2.861   3.523   2.795 -0.7751  1.8937 -0.1385
 1870TIP3    H227026   2.979   3.578   2.872  0.1403 -1.6509  1.0817
 1871TIP3   OH227027   2.791   4.527  12.797  0.5568 -0.6107 -0.4266
 1871TIP3    H127028   2.819   4.450  12.747 -0.0981 -0.8973 -0.3573
 1871TIP3    H227029   2.842   4.522  12.878  1.1809 -0.4754 -0.8104
 1872TIP3   OH227030   5.898   1.565   1.182  0.2733  0.2318  0.1491
 1872TIP3    H127031   5.837   1.527   1.118 -0.6163 -0.2196  1.2419
 1872TIP3    H227032   5.864   1.536   1.267 -0.2458  3.1874  1.0037
 1873TIP3   OH227033   4.966   2.857  12.570 -0.1564 -0.3027  0.1691
 1873TIP3    H127034   5.018   2.936  12.584  1.3601 -1.2899  0.2463
 1873TIP3    H227035   4.903   2.881  12.502 -0.8626  1.4829  1.4141
 1874TIP3   OH227036   1.969   4.217  14.136  0.2678  0.0211  0.1873
 1874TIP3    H127037   2.037   4.214  14.069 -0.6363 -0.8182 -0.7178
 1874TIP3    H227038   1.948   4.125  14.153  1.3650  0.1845  2.5464
 1875TIP3   OH227039   4.790   3.489   6.468  0.2729 -0.4863 -0.0878
 1875TIP3    H127040   4.749   3.573   6.492 -0.0079 -0.4221 -0.7679
 1875TIP3    H227041   4.883   3.509   6.465  0.0970  0.1943 -1.7193
 1876TIP3   OH227042   6.303   3.821   1.520  0.5872 -0.1232 -0.1938
 1876TIP3    H127043   6.234   3.864   1.469  0.7690 -0.5202 -0.7786
 1876TIP3    H227044   6.315   3.736   1.477 -0.1718 -1.0020  1.2937
 1877TIP3   OH227045   5.569   6.701   3.069 -0.2589 -0.8927 -0.1059
 1877TIP3    H127046   5.576   6.630   3.133 -0.4073 -0.9837 -0.1896
 1877TIP3    H227047   5.550   6.657   2.986 -1.7117 -0.6801  0.0939
 1878TIP3   OH227048   0.501   5.211   4.257 -0.0411 -0.0941  0.4956
 1878TIP3    H127049   0.574   5.218   4.318  1.3109 -0.0981 -1.0952
 1878TIP3    H227050   0.480   5.301   4.234 -0.4114 -0.1016  0.8037
 1879TIP3   OH227051   4.428   2.360   5.506 -0.2980 -0.3456 -0.4043
 1879TIP3    H127052   4.379   2.348   5.588  2.0950 -0.9225  0.9985
 1879TIP3    H227053   4.452   2.453   5.506 -0.1971 -0.3712 -0.3742
 1880TIP3   OH227054   4.501   5.867  12.730  0.4112  0.3999 -0.2776
 1880TIP3    H127055   4.435   5.909  12.785  1.4106 -0.5177  1.6526
 1880TIP3    H227056   4.584   5.886  12.772  1.1236 -1.1300 -0.9255
 1881TIP3   OH227057   3.146   5.906  12.243  0.0339 -0.3070 -0.1295
 1881TIP3    H127058   3.174   5.970  12.308 -2.9014 -0.1667  1.0610
 1881TIP3    H227059   3.121   5.959  12.167 -1.2295 -0.1345  0.4110
 1882TIP3   OH227060   2.590   5.690   3.227  0.2107  0.2053 -0.7191
 1882TIP3    H127061   2.561   5.668   3.316 -3.6525  1.8146 -1.4405
 1882TIP3    H227062   2.560   5.616   3.174 -1.8077  1.4430 -1.3421
 1883TIP3   OH227063   2.851   6.675   0.698 -0.4164 -0.0442 -0.7129
 1883TIP3    H127064   2.787   6.720   0.754 -0.4447 -0.5423 -0.3372
 1883TIP3    H227065   2.820   6.584   0.695  1.2025 -0.6683  0.8532
 1884TIP3   OH227066   4.847   1.115   2.533 -0.3458  0.5448  0.2762
 1884TIP3    H127067   4.812   1.204   2.537 -0.8344  0.3261  0.8685
 1884TIP3    H227068   4.804   1.076   2.457  2.4060  1.8914 -2.0778
 1885TIP3   OH227069   1.130   0.956  16.115  0.2380  0.6848  0.4770
 1885TIP3    H127070   1.064   0.890  16.093 -0.5231  1.6814 -0.2983
 1885TIP3    H227071   1.209   0.927  16.070 -0.2628  0.6181 -0.3859
 1886TIP3   OH227072   0.035   3.850   5.796  0.2356  0.4088  0.4627
 1886TIP3    H127073   0.007   3.792   5.725  0.5665  0.5179  0.2444
 1886TIP3    H227074   0.030   3.795   5.875 -0.4913  0.3947  0.4106
 1887TIP3   OH227075   2.379   2.591  15.765 -0.3069  0.6466  0.0838
 1887TIP3    H127076   2.416   2.650  15.830 -0.1983  1.4332 -0.6751
 1887TIP3    H227077   2.442   2.593  15.693 -0.9402  0.6004 -0.4735
 1888TIP3   OH227078   0.324   6.113  10.984 -0.6438  0.0143  0.0202
 1888TIP3    H127079   0.255   6.097  11.049 -0.6620  0.9458  0.2377
 1888TIP3    H227080   0.285   6.085  10.901 -1.0730 -0.0179  0.2293
 1889TIP3   OH227081   5.031   2.520  15.684 -0.0342 -0.5245  0.5401
 1889TIP3    H127082   5.017   2.580  15.756  3.0422  0.1058  0.6926
 1889TIP3    H227083   5.043   2.576  15.607 -0.6574 -1.0849  0.0232
 1890TIP3   OH227084   4.957   2.417   3.258 -0.6116  0.0399  0.0252
 1890TIP3    H127085   4.942   2.397   3.350 -1.0086  0.4216  0.0488
 1890TIP3    H227086   5.042   2.377   3.238 -0.2059  0.5343  0.7308
 1891TIP3   OH227087   2.222   5.355  12.440  0.1262 -0.2979  0.9349
 1891TIP3    H127088   2.204   5.261  12.445 -2.0395 -0.0090 -0.6833
 1891TIP3    H227089   2.168   5.393  12.509 -1.3480  0.0314 -0.3716
 1892TIP3   OH227090   4.961   5.564  14.821  0.0560 -0.6998  0.6131
 1892TIP3    H127091   5.023   5.623  14.864  1.4823 -1.1884 -0.7199
 1892TIP3    H227092   4.906   5.621  14.768  0.5984 -0.4407  0.3253
 1893TIP3   OH227093   3.244   3.124  15.234 -0.5967  0.2126 -0.5770
 1893TIP3    H127094   3.170   3.159  15.185  0.3284  0.0980 -2.0865
 1893TIP3    H227095   3.321   3.146  15.182  0.3087 -0.9711  0.2096
 1894TIP3   OH227096   0.292   2.367   4.318  0.0606  0.2117 -0.8544
 1894TIP3    H127097   0.322   2.281   4.348 -0.7166 -0.8332 -2.9580
 1894TIP3    H227098   0.199   2.355   4.297 -0.1233  1.6349 -0.9314
 1895TIP3   OH227099   2.578   1.502  10.856  0.3713  0.3112 -0.3764
 1895TIP3    H127100   2.575   1.421  10.805 -0.0036 -0.1608  0.3969
 1895TIP3    H227101   2.492   1.541  10.843  0.6389  0.7213 -0.9548
 1896TIP3   OH227102   5.470   1.305  12.252 -0.0071  0.4136 -0.1168
 1896TIP3    H127103   5.507   1.218  12.270 -1.1623 -0.1405 -0.4022
 1896TIP3    H227104   5.547   1.362  12.246  0.7519 -0.5262  0.3575
 1897TIP3   OH227105   0.679   4.282  13.803  0.4853 -0.0862 -0.1511
 1897TIP3    H127106   0.614   4.347  13.775  1.5026  0.7415 -0.6211
 1897TIP3    H227107   0.762   4.314  13.767  1.5127 -0.0026  2.1949
 1898TIP3   OH227108   2.685   4.505  10.277  0.2180 -0.0321 -0.1156
 1898TIP3    H127109   2.707   4.590  10.315 -1.5939 -0.6907  2.5342
 1898TIP3    H227110   2.756   4.447  10.305  1.3141  0.5217 -1.6980
 1899TIP3   OH227111   6.213   5.206  16.053  0.2206 -0.4306 -0.3081
 1899TIP3    H127112   6.216   5.119  16.015  0.0219 -0.5461 -0.0562
 1899TIP3    H227113   6.136   5.246  16.014 -0.9158 -1.1180  1.2135
 1900TIP3   OH227114   2.499   2.613  16.395 -0.1634 -0.4033  0.1468
 1900TIP3    H127115   2.560   2.590  16.465  0.3721  0.0306 -0.1743
 1900TIP3    H227116   2.519   2.551  16.325  0.6601  0.4472 -0.3744
 1901TIP3   OH227117   6.647   4.554  17.165  0.3161  0.4938 -0.2723
 1901TIP3    H127118   6.586   4.628  17.174  0.5676  0.5024  1.5028
 1901TIP3    H227119   6.733   4.595  17.154  0.4892  0.4971  0.9523
 1902TIP3   OH227120   3.279   1.428   2.279  0.5554 -0.4267 -0.4535
 1902TIP3    H127121   3.330   1.435   2.198 -0.3468 -1.0245 -1.0853
 1902TIP3    H227122   3.308   1.345   2.318  1.2862  0.0594  0.0534
 1903TIP3   OH227123   0.208   2.970   2.578  0.2300 -0.0529 -0.6687
 1903TIP3    H127124   0.170   3.056   2.561 -0.2265 -0.0658  0.2674
 1903TIP3    H227125   0.244   2.976   2.666  0.0960 -0.8597 -0.5543
 1904TIP3   OH227126   4.388   3.320  11.408  0.0517  0.8404 -0.1583
 1904TIP3    H127127   4.408   3.261  11.481  0.3375 -0.7032 -1.4629
 1904TIP3    H227128   4.474   3.352  11.380  0.1358 -0.3053 -1.2379
 1905TIP3   OH227129   5.489   2.501   3.534  0.0389 -0.3230 -0.0757
 1905TIP3    H127130   5.469   2.531   3.445 -0.0880 -1.9164 -0.5981
 1905TIP3    H227131   5.403   2.490   3.575  0.0661 -0.5051 -0.0672
 1906TIP3   OH227132   2.420   6.016   5.974  0.1124 -0.3239 -0.1763
 1906TIP3    H127133   2.485   5.978   5.915  1.8941  1.3351  0.6823
 1906TIP3    H227134   2.389   5.942   6.026  0.3810 -1.3477 -1.4586
 1907TIP3   OH227135   3.719   3.725   0.892  0.3232 -0.4048 -0.2285
 1907TIP3    H127136   3.714   3.783   0.816  0.0063 -1.3123 -0.9029
 1907TIP3    H227137   3.629   3.718   0.924  0.4881  0.1627  0.3790
 1908TIP3   OH227138   5.290   5.872  15.070  0.8258 -0.7912 -0.1747
 1908TIP3    H127139   5.294   5.939  15.138  0.8645 -0.5441 -0.4198
 1908TIP3    H227140   5.251   5.796  15.113 -0.6747 -0.0995 -0.3076
 1909TIP3   OH227141   4.199   1.731  11.208  0.1084 -0.3554  0.0086
 1909TIP3    H127142   4.196   1.656  11.150 -1.7600  0.6161 -1.1883
 1909TIP3    H227143   4.269   1.786  11.172 -1.2699  0.4095 -1.5817
 1910TIP3   OH227144   3.175   1.549  16.895  0.1851 -0.4845 -0.2795
 1910TIP3    H127145   3.094   1.553  16.945 -0.9260 -2.3867 -1.8375
 1910TIP3    H227146   3.159   1.605  16.819  0.0891 -1.3044 -0.8777
 1911TIP3   OH227147   4.599   3.081   5.714  0.3659  0.2097  0.3806
 1911TIP3    H127148   4.684   3.054   5.680 -0.6711 -0.3333 -1.8561
 1911TIP3    H227149   4.595   3.041   5.801  2.0712 -0.3837  0.2095
 1912TIP3   OH227150   0.215   1.073  12.560  0.1568  0.6196  0.2176
 1912TIP3    H127151   0.175   1.134  12.498 -0.0167  0.7829  0.4921
 1912TIP3    H227152   0.284   1.124  12.603  0.1785  0.5495  0.2673
 1913TIP3   OH227153   3.953   5.335  13.333  0.0876  0.1407 -0.4011
 1913TIP3    H127154   3.933   5.370  13.246 -0.0870 -0.2788 -0.5346
 1913TIP3    H227155   3.927   5.404  13.394 -0.5163  0.1362 -0.6495
 1914TIP3   OH227156   4.427   1.775   3.018 -0.3001  0.6024  0.2622
 1914TIP3    H127157   4.382   1.821   3.089 -0.7995 -0.0885  0.3938
 1914TIP3    H227158   4.406   1.826   2.939  1.9050  2.5372  0.8829
 1915TIP3   OH227159   1.495   0.027  11.411  0.4007 -0.4465  0.4175
 1915TIP3    H127160   1.441  -0.051  11.417 -0.6297  0.3421  1.7682
 1915TIP3    H227161   1.519   0.033  11.319 -0.7912 -1.5016  0.0316
 1916TIP3   OH227162   5.859   2.838   0.932 -0.2816 -0.1189  0.3644
 1916TIP3    H127163   5.945   2.797   0.942 -0.8652 -1.7722 -1.0062
 1916TIP3    H227164   5.878   2.930   0.914  1.2290 -0.5835 -0.4859
 1917TIP3   OH227165   5.735   0.512  11.263  0.4293 -0.5905  0.5881
 1917TIP3    H127166   5.688   0.534  11.182  1.2847  0.6327  0.4021
 1917TIP3    H227167   5.666   0.496  11.327 -0.3347  3.4057  0.9274
 1918TIP3   OH227168   2.145   4.989   3.001 -0.0414 -0.1609 -0.3882
 1918TIP3    H127169   2.176   5.043   2.928 -0.2725 -0.0746 -0.4237
 1918TIP3    H227170   2.075   5.041   3.041  2.1683  1.1674  1.8261
 1919TIP3   OH227171   3.249   0.862  17.192  0.2169  0.5573 -0.1389
 1919TIP3    H127172   3.280   0.926  17.256 -0.1685  0.3156  0.2927
 1919TIP3    H227173   3.176   0.818  17.236 -1.2870  1.7007 -1.4510
 1920TIP3   OH227174   1.488   1.770   3.182 -0.2668 -0.4123  0.3065
 1920TIP3    H127175   1.518   1.846   3.233  2.5312 -0.4343 -1.1855
 1920TIP3    H227176   1.556   1.704   3.196  0.1537 -0.7052 -2.7701
 1921TIP3   OH227177   6.483   5.234  12.014  0.7360 -0.0496 -0.1452
 1921TIP3    H127178   6.477   5.165  11.948  2.2261  0.4416 -0.8120
 1921TIP3    H227179   6.565   5.217  12.059 -0.6904 -0.9231  2.2436
 1922TIP3   OH227180   0.107   2.621   5.840 -0.0978  0.0823  0.2099
 1922TIP3    H127181   0.063   2.600   5.923 -0.5504  1.1327  0.2566
 1922TIP3    H227182   0.035   2.626   5.776  0.2874 -1.0532 -0.3142
 1923TIP3   OH227183   5.960   2.396   1.470 -0.4299 -0.4003 -0.1005
 1923TIP3    H127184   5.878   2.361   1.437  0.4302  0.0643 -2.8325
 1923TIP3    H227185   5.959   2.489   1.448 -0.0385  0.0678  1.6942
 1924TIP3   OH227186   5.265   3.781  14.934  0.3369 -0.2022  0.8727
 1924TIP3    H127187   5.211   3.837  14.990 -0.2207 -2.0744  2.2581
 1924TIP3    H227188   5.339   3.756  14.989  0.4876 -0.9774  0.3320
 1925TIP3   OH227189   5.852   0.803  11.415 -0.6088 -0.1969 -0.2757
 1925TIP3    H127190   5.830   0.712  11.435  3.1461 -1.1845 -0.3701
 1925TIP3    H227191   5.834   0.813  11.322  0.4572 -1.3032 -0.6018
 1926TIP3   OH227192   6.022   3.551  12.582  0.0381  0.1141  0.0605
 1926TIP3    H127193   6.095   3.512  12.631 -0.1322  0.2664  0.4353
 1926TIP3    H227194   5.995   3.625  12.635 -1.9828 -1.3585  1.1516
 1927TIP3   OH227195   5.476   4.611  14.105  0.2963 -0.3104  0.4171
 1927TIP3    H127196   5.445   4.522  14.126  1.7190 -0.9744 -0.2152
 1927TIP3    H227197   5.508   4.646  14.188  2.0666 -1.3599  0.2137
 1928TIP3   OH227198   3.093   4.563  14.213 -0.0083  0.2521 -0.1704
 1928TIP3    H127199   3.095   4.653  14.243 -1.3069  0.0880  0.4425
 1928TIP3    H227200   3.051   4.514  14.284 -1.7269 -0.3801 -1.5792
 1929TIP3   OH227201   5.575   1.869   4.944  0.9122  0.2759  0.4774
 1929TIP3    H127202   5.628   1.791   4.959  1.2429  0.5626  0.7799
 1929TIP3    H227203   5.555   1.866   4.850  1.2782  0.0544  0.4052
 1930TIP3   OH227204   1.627   1.075   1.234 -0.5663  0.3028  0.1705
 1930TIP3    H127205   1.602   1.167   1.229  3.4449  1.4613 -0.0514
 1930TIP3    H227206   1.628   1.056   1.328 -1.3898  0.4587  0.2184
 1931TIP3   OH227207   5.052   3.400  16.479  0.6796  0.1264 -0.4081
 1931TIP3    H127208   5.118   3.456  16.439  1.4127 -0.5623 -0.1770
 1931TIP3    H227209   5.052   3.424  16.571 -0.6526  1.3616 -0.7140
 1932TIP3   OH227210   0.306   5.895  15.511  0.5436 -0.3502 -0.2037
 1932TIP3    H127211   0.372   5.963  15.525 -0.1996  0.1884  0.8478
 1932TIP3    H227212   0.224   5.945  15.498 -0.5116 -1.0287  3.2233
 1933TIP3   OH227213   4.728   5.827  15.358 -0.3994 -0.3861 -0.6584
 1933TIP3    H127214   4.655   5.831  15.297 -0.4621  1.6233 -0.4929
 1933TIP3    H227215   4.751   5.919  15.374  0.6556 -0.9261  1.0855
 1934TIP3   OH227216   1.754   6.578   1.942 -0.2877  0.0849 -0.2235
 1934TIP3    H127217   1.801   6.644   1.994  1.2839 -0.7770 -0.5258
 1934TIP3    H227218   1.720   6.517   2.007 -2.4808  1.6113  0.1289
 1935TIP3   OH227219   1.266   3.397  13.114  0.3620  0.0057  0.0326
 1935TIP3    H127220   1.337   3.357  13.064 -1.0379 -1.7140 -0.6227
 1935TIP3    H227221   1.191   3.397  13.054 -1.4190 -2.3237  2.1919
 1936TIP3   OH227222   6.449   0.025  15.624 -0.3621 -0.1648  0.1934
 1936TIP3    H127223   6.379   0.087  15.605  0.5668  0.7066 -0.4081
 1936TIP3    H227224   6.496   0.015  15.541  0.8517  0.0419  0.8421
 1937TIP3   OH227225   5.907   5.925  16.659  0.1459 -0.2111  0.0936
 1937TIP3    H127226   5.909   5.891  16.749  1.0709 -1.0043 -0.2208
 1937TIP3    H227227   5.997   5.950  16.641  0.1558 -0.9853 -0.9752
 1938TIP3   OH227228   2.577   6.785   4.355  0.1271  0.6746  0.2208
 1938TIP3    H127229   2.653   6.759   4.302  1.4094 -1.0936  2.7941
 1938TIP3    H227230   2.503   6.780   4.296  1.7796  0.7523 -1.9128
 1939TIP3   OH227231   0.400   2.579  14.721 -0.1230  0.7308  0.2317
 1939TIP3    H127232   0.440   2.516  14.662 -1.6854 -2.6807  2.6593
 1939TIP3    H227233   0.403   2.662  14.674  2.2637 -1.0835 -2.9426
 1940TIP3   OH227234   5.446   0.134  15.854 -0.1586 -0.2750 -0.2811
 1940TIP3    H127235   5.517   0.141  15.791 -1.0056 -0.1019 -1.2169
 1940TIP3    H227236   5.465   0.053  15.902  0.6411 -0.2538 -0.5522
 1941TIP3   OH227237   0.093   4.992   1.689 -0.3343 -0.5730 -0.2065
 1941TIP3    H127238   0.143   5.073   1.701 -0.5770 -0.7570  2.2250
 1941TIP3    H227239   0.155   4.922   1.709 -0.8351 -0.8930  0.2408
 1942TIP3   OH227240   6.103   5.859  12.288  0.2775 -0.5845  0.1280
 1942TIP3    H127241   6.132   5.819  12.370 -1.3408 -1.0233  0.5021
 1942TIP3    H227242   6.084   5.950  12.311 -0.2023 -0.7148  0.2607
 1943TIP3   OH227243   5.322   4.590   4.229 -0.5351  0.3982  0.5028
 1943TIP3    H127244   5.289   4.648   4.159 -2.5909 -0.1839  0.9550
 1943TIP3    H227245   5.342   4.508   4.184 -0.9565  0.3379  0.4144
 1944TIP3   OH227246   5.604   0.205   1.167  0.2910 -0.2069 -0.3749
 1944TIP3    H127247   5.614   0.281   1.224  2.8122 -1.8919  1.5602
 1944TIP3    H227248   5.550   0.144   1.218  0.7674 -0.8794 -0.6688
 1945TIP3   OH227249   1.542   6.617  12.489 -0.5172 -0.0337  0.1840
 1945TIP3    H127250   1.582   6.534  12.513 -1.5481 -0.9525 -1.1683
 1945TIP3    H227251   1.448   6.599  12.490 -0.8527  1.6688  1.8282
 1946TIP3   OH227252   2.220   6.197   3.497 -0.4068  0.0222  0.1608
 1946TIP3    H127253   2.273   6.189   3.418  0.1894 -0.7068  0.6248
 1946TIP3    H227254   2.136   6.232   3.467  0.7671  2.5029 -0.4188
 1947TIP3   OH227255   2.316   0.299   5.942  0.0741 -0.5312 -0.2452
 1947TIP3    H127256   2.258   0.308   6.018  0.5439 -0.0481  0.0661
 1947TIP3    H227257   2.398   0.340   5.970  0.1458 -0.0465 -1.1304
 1948TIP3   OH227258   3.351   1.693   1.106 -1.2038  0.1642  0.2975
 1948TIP3    H127259   3.362   1.788   1.102 -2.2853  0.2353 -1.8066
 1948TIP3    H227260   3.262   1.678   1.072 -0.1698 -1.7540 -1.6290
 1949TIP3   OH227261   3.659   0.711   3.969 -0.5504 -0.6983 -0.4398
 1949TIP3    H127262   3.750   0.703   3.940 -0.3257 -0.4593  0.1826
 1949TIP3    H227263   3.611   0.740   3.891  0.1400  0.5351 -0.4215
 1950TIP3   OH227264   1.902   1.200   3.399 -0.2561 -0.0267  0.4318
 1950TIP3    H127265   1.887   1.291   3.426  1.9822 -0.2615  2.7099
 1950TIP3    H227266   1.827   1.179   3.344 -2.8512  1.9552  3.0026
 1951TIP3   OH227267   2.294   5.732  16.905 -0.1394  0.0918 -0.1475
 1951TIP3    H127268   2.359   5.769  16.845 -0.6666  1.3509  0.0520
 1951TIP3    H227269   2.267   5.650  16.863 -0.5663  1.0068 -1.6719
 1952TIP3   OH227270   6.693   5.391  13.352 -0.2703 -0.2490  0.4422
 1952TIP3    H127271   6.658   5.317  13.401 -1.0196  1.1006  2.0279
 1952TIP3    H227272   6.635   5.399  13.276 -1.3982 -0.1069  1.2917
 1953TIP3   OH227273   5.221   3.558  12.549  0.2767 -0.5463 -0.1396
 1953TIP3    H127274   5.190   3.508  12.473  2.5647  0.8660 -2.0858
 1953TIP3    H227275   5.143   3.571  12.602 -1.7531 -0.2405 -3.0565
 1954TIP3   OH227276   4.210   2.679  13.549  0.3607 -0.0337 -0.2939
 1954TIP3    H127277   4.275   2.746  13.568  1.2461 -1.3427  1.4407
 1954TIP3    H227278   4.192   2.688  13.455  0.1820  2.8322 -0.0082
 1955TIP3   OH227279   3.125   6.396   5.854  0.4317  0.4353 -0.4657
 1955TIP3    H127280   3.065   6.443   5.913  0.2897  1.2044 -1.2114
 1955TIP3    H227281   3.076   6.318   5.828 -0.2751  1.0913 -1.1178
 1956TIP3   OH227282   4.226   4.624  14.756  0.3258  0.1812  0.1877
 1956TIP3    H127283   4.216   4.650  14.664  2.4144  0.7333  0.0839
 1956TIP3    H227284   4.225   4.706  14.805 -1.4955 -0.1655  0.7428
 1957TIP3   OH227285   5.866   3.211   3.657  0.2461  0.1109 -0.1185
 1957TIP3    H127286   5.853   3.252   3.743  0.4559 -0.4446  0.1842
 1957TIP3    H227287   5.813   3.131   3.660 -0.2745  0.4295 -0.7586
 1958TIP3   OH227288   1.477   4.485  16.807  0.5188 -0.2354  0.3332
 1958TIP3    H127289   1.542   4.492  16.738 -0.7311 -1.9016 -1.0397
 1958TIP3    H227290   1.496   4.559  16.865  3.5842 -0.6493 -0.0526
 1959TIP3   OH227291   0.687   2.220  13.801 -0.2718 -0.5875 -0.3391
 1959TIP3    H127292   0.774   2.259  13.798 -0.8042  0.5005 -4.2478
 1959TIP3    H227293   0.629   2.292  13.825 -0.5029 -0.5052 -1.1477
 1960TIP3   OH227294   3.160   0.799   0.297 -0.2637  0.1758  0.0543
 1960TIP3    H127295   3.073   0.818   0.262  0.5816  1.5857 -1.3330
 1960TIP3    H227296   3.156   0.826   0.389 -1.1519  0.6167 -0.1149
 1961TIP3   OH227297   1.381   1.623   4.162  0.0710 -0.7727  0.5769
 1961TIP3    H127298   1.383   1.671   4.244  1.1533  0.2231 -0.0055
 1961TIP3    H227299   1.416   1.685   4.097  0.0213 -1.8167 -0.4708
 1962TIP3   OH227300   1.383   0.448   4.385  0.8604 -1.0990 -0.0663
 1962TIP3    H127301   1.435   0.465   4.307  1.4374  0.3380  0.5988
 1962TIP3    H227302   1.359   0.536   4.417  0.4505 -1.6703  1.2323
 1963TIP3   OH227303   2.002   6.490  15.074  0.5674  0.0719  0.6504
 1963TIP3    H127304   2.056   6.505  15.151  1.6108 -0.3582  0.0153
 1963TIP3    H227305   2.034   6.407  15.038 -0.0243  0.1815 -0.1454
 1964TIP3   OH227306   5.376   0.236  12.066  0.0244  0.2703 -0.4593
 1964TIP3    H127307   5.395   0.319  12.022 -1.4322 -0.1888 -1.9998
 1964TIP3    H227308   5.407   0.169  12.005 -1.5387 -0.3695 -0.5596
 1965TIP3   OH227309   4.596   6.156  15.334  0.5769  0.1777 -0.3278
 1965TIP3    H127310   4.645   6.085  15.292  1.0985 -0.4709  1.3440
 1965TIP3    H227311   4.650   6.234  15.318  0.4952  0.0308 -1.3268
 1966TIP3   OH227312   2.414   6.780  16.339  0.2271 -0.1379  0.1737
 1966TIP3    H127313   2.461   6.855  16.377 -1.5798  1.5290 -0.8134
 1966TIP3    H227314   2.325   6.788  16.371 -0.0754 -1.7047 -0.2160
 1967TIP3   OH227315   0.821   5.816  14.287  0.5715 -0.2883 -0.1490
 1967TIP3    H127316   0.774   5.737  14.260  0.3622 -0.6100  1.1097
 1967TIP3    H227317   0.754   5.884  14.288  1.4019  0.7273 -4.5383
 1968TIP3   OH227318   1.260   6.296   1.596  0.2155 -0.5094 -0.3798
 1968TIP3    H127319   1.269   6.357   1.669  1.7431  0.0216 -0.9879
 1968TIP3    H227320   1.265   6.209   1.636 -0.6405 -0.2379  0.3343
 1969TIP3   OH227321   4.419   3.320   0.399  0.1418 -0.1961  0.5819
 1969TIP3    H127322   4.487   3.371   0.354  0.9559 -0.4374  1.5167
 1969TIP3    H227323   4.465   3.242   0.430 -0.5274 -0.2779  1.3604
 1970TIP3   OH227324   6.146   1.628   6.639 -0.2677 -0.1599  0.0251
 1970TIP3    H127325   6.117   1.717   6.623 -1.6296 -0.5234  0.3807
 1970TIP3    H227326   6.230   1.621   6.595 -0.3444  1.1751 -0.3366
 1971TIP3   OH227327   2.140   4.651  12.933  0.5079  0.0748  0.2172
 1971TIP3    H127328   2.192   4.706  12.991  1.2435 -0.9977  0.5709
 1971TIP3    H227329   2.084   4.599  12.991  0.3379 -0.0834 -0.0840
 1972TIP3   OH227330   3.756   5.282  15.211  0.7294  0.3376  0.3101
 1972TIP3    H127331   3.811   5.361  15.210  1.9934 -0.5427 -0.5441
 1972TIP3    H227332   3.776   5.239  15.294 -0.2060  1.0617  0.9289
 1973TIP3   OH227333   5.092   1.425  12.158  0.2674 -0.2633 -0.3487
 1973TIP3    H127334   5.177   1.422  12.114  0.9734 -0.8202  1.0089
 1973TIP3    H227335   5.113   1.452  12.248 -1.2609  2.0940 -0.6463
 1974TIP3   OH227336   5.951   1.857   4.093  0.1404  0.1617 -0.2652
 1974TIP3    H127337   5.902   1.776   4.102 -2.6696  1.5384 -2.4382
 1974TIP3    H227338   5.957   1.892   4.181 -2.8880 -0.0198  0.0483
 1975TIP3   OH227339   1.414   1.533   0.336  0.6185  0.0376 -0.1835
 1975TIP3    H127340   1.339   1.570   0.289 -0.3415 -1.4635  0.1189
 1975TIP3    H227341   1.462   1.609   0.368 -0.9989  1.0383 -0.0520
 1976TIP3   OH227342   0.553   5.284   4.908  0.4694  0.0512 -0.3606
 1976TIP3    H127343   0.622   5.342   4.876  0.8371 -1.0197 -1.5697
 1976TIP3    H227344   0.548   5.301   5.002  2.7502 -0.2634 -0.1585
 1977TIP3   OH227345   2.517   5.963  15.336  0.3990  0.1567 -0.6030
 1977TIP3    H127346   2.524   5.886  15.392  0.8399  0.8027  0.2422
 1977TIP3    H227347   2.606   5.999  15.334 -0.3146  2.1781  1.2167
 1978TIP3   OH227348   2.829   2.031  12.461 -0.5201 -0.3106 -0.0709
 1978TIP3    H127349   2.806   1.939  12.472  0.9462 -0.6276  0.4743
 1978TIP3    H227350   2.873   2.035  12.376 -2.6427  0.3161 -1.1776
 1979TIP3   OH227351   2.557   0.022  16.674 -0.3281 -0.2222 -0.9073
 1979TIP3    H127352   2.605  -0.054  16.706 -1.5983 -0.3635  0.7269
 1979TIP3    H227353   2.543   0.076  16.752 -0.2799  1.2293 -1.8742
 1980TIP3   OH227354   5.093   4.484   4.346 -0.4545 -0.0143 -0.1592
 1980TIP3    H127355   5.030   4.425   4.305 -0.9442  0.9315 -0.7836
 1980TIP3    H227356   5.171   4.478   4.291 -0.1373 -0.8601  0.3709
 1981TIP3   OH227357   6.179   2.787  16.691  0.3213  0.1806 -0.2508
 1981TIP3    H127358   6.272   2.770  16.672  0.2180 -0.1123 -0.5079
 1981TIP3    H227359   6.140   2.805  16.605  0.0407 -0.2009 -0.2055
 1982TIP3   OH227360   0.460   2.183  14.284  0.1649  0.0996  0.3336
 1982TIP3    H127361   0.513   2.124  14.230 -1.5613 -1.7685  0.6235
 1982TIP3    H227362   0.417   2.241  14.221  0.0399 -0.4934 -0.1303
 1983TIP3   OH227363   5.870   4.521   0.346 -0.5996  0.5201  0.4887
 1983TIP3    H127364   5.905   4.572   0.273 -1.0558 -1.3518 -1.0782
 1983TIP3    H227365   5.851   4.586   0.413  0.7251  2.1781 -0.6926
 1984TIP3   OH227366   0.703   5.495  13.749  0.5309 -0.1429  0.1806
 1984TIP3    H127367   0.756   5.415  13.751  0.7963 -0.0072 -1.0719
 1984TIP3    H227368   0.764   5.564  13.725  0.5017  0.6289  2.1935
 1985TIP3   OH227369   5.911   4.465   4.609  0.4555 -0.3869  1.3818
 1985TIP3    H127370   5.872   4.408   4.544  1.8244  1.1627 -0.8857
 1985TIP3    H227371   5.975   4.410   4.654 -0.2479 -1.3856  1.1748
 1986TIP3   OH227372   3.617   1.665   0.797  0.1189 -0.1888 -0.2780
 1986TIP3    H127373   3.522   1.655   0.786 -0.2489  0.3419  2.1745
 1986TIP3    H227374   3.644   1.718   0.722 -1.7986  1.0988 -0.0947
 1987TIP3   OH227375   4.422   0.195  13.989  0.4638  0.2258 -0.4910
 1987TIP3    H127376   4.494   0.189  14.053 -1.2363  1.1496  1.5897
 1987TIP3    H227377   4.369   0.117  14.006  1.5161 -1.0200 -2.7640
 1988TIP3   OH227378   5.345   4.179  15.188  0.2627  0.0031  0.5393
 1988TIP3    H127379   5.400   4.139  15.120  2.1056  0.8435  1.5107
 1988TIP3    H227380   5.258   4.183  15.148  1.3421  0.6446 -1.8675
 1989TIP3   OH227381   6.014   6.112   5.030 -0.3753 -0.5970  0.1047
 1989TIP3    H127382   6.070   6.057   5.084  0.3027  0.6278  0.6730
 1989TIP3    H227383   6.038   6.201   5.055 -2.5675 -0.0558  0.3386
 1990TIP3   OH227384   4.887   0.827  15.733  0.2306 -0.1598 -0.0274
 1990TIP3    H127385   4.852   0.766  15.668  0.6964  0.5922 -1.0046
 1990TIP3    H227386   4.975   0.849  15.700  0.8147 -0.4395  1.3118
 1991TIP3   OH227387   4.887   2.322  13.207  0.4094  0.3574 -0.0144
 1991TIP3    H127388   4.946   2.253  13.178 -1.1721 -1.1727  0.3709
 1991TIP3    H227389   4.946   2.394  13.233  1.9989 -0.2135 -1.9115
 1992TIP3   OH227390   0.144   0.603  11.374  0.3029  0.5079  0.1422
 1992TIP3    H127391   0.086   0.607  11.451 -2.0630  0.1612 -1.5564
 1992TIP3    H227392   0.118   0.679  11.321  0.2473 -0.5863 -1.4364
 1993TIP3   OH227393   2.273   0.825   0.645 -0.1750  0.2071 -0.6766
 1993TIP3    H127394   2.340   0.841   0.712 -2.4830 -0.9072  2.0117
 1993TIP3    H227395   2.316   0.847   0.562  1.9054  4.3933  1.3601
 1994TIP3   OH227396   0.621   6.718   1.966 -0.1487  0.1519  0.2896
 1994TIP3    H127397   0.598   6.629   1.992  1.1254  0.4284  2.4385
 1994TIP3    H227398   0.623   6.767   2.047  1.9616  1.5053 -0.5453
 1995TIP3   OH227399   2.918   6.156   2.339 -0.3151  0.9489  0.8360
 1995TIP3    H127400   2.932   6.195   2.253  1.4620  0.9755  1.1342
 1995TIP3    H227401   2.838   6.104   2.329  0.5361 -0.0141 -1.1684
 1996TIP3   OH227402   0.184   2.079   4.098 -0.2294 -0.1915 -0.0284
 1996TIP3    H127403   0.270   2.038   4.113 -0.4345 -0.3079  0.8812
 1996TIP3    H227404   0.204   2.169   4.073  0.1776 -0.3499 -0.2720
 1997TIP3   OH227405   5.300   6.348   5.669 -0.0820  0.8273 -0.6173
 1997TIP3    H127406   5.385   6.308   5.651  0.5174  2.4069 -1.3843
 1997TIP3    H227407   5.309   6.438   5.639 -1.9968  1.0509 -0.5797
 1998TIP3   OH227408   6.520   4.137   2.728  0.2554  0.0673 -0.3121
 1998TIP3    H127409   6.529   4.066   2.664  0.8571  0.9441 -1.2113
 1998TIP3    H227410   6.459   4.102   2.793  0.7136 -1.3565 -0.6199
 1999TIP3   OH227411   4.987   2.414   3.963  0.1972 -0.1752  0.9395
 1999TIP3    H127412   4.937   2.474   4.019  2.2498  0.4739  2.0993
 1999TIP3    H227413   5.015   2.468   3.889  1.8281  0.2459  1.8560
 2000TIP3   OH227414   6.409   0.412   1.171  0.4688  0.0464  0.0144
 2000TIP3    H127415   6.352   0.439   1.244 -0.5962 -0.2870 -0.6825
 2000TIP3    H227416   6.497   0.437   1.200  0.0315  0.1819  1.2934
 2001TIP3   OH227417   5.923   0.956   5.711  0.2214  0.7132  0.2130
 2001TIP3    H127418   5.887   0.889   5.769  2.7801  0.2682  1.3700
 2001TIP3    H227419   5.867   1.033   5.726 -1.1187 -0.3572  0.8455
 2002TIP3   OH227420   5.834   5.128   5.479  0.0482 -0.3290  0.3911
 2002TIP3    H127421   5.788   5.044   5.465 -2.8957  1.1975  0.4247
 2002TIP3    H227422   5.777   5.176   5.539  2.0183  1.4755  0.8706
 2003TIP3   OH227423   1.379   2.824  15.707  0.1662 -0.4345  0.0288
 2003TIP3    H127424   1.411   2.758  15.769 -1.9903 -0.4180  1.2246
 2003TIP3    H227425   1.295   2.853  15.744  1.0627  2.9964 -0.4508
 2004TIP3   OH227426   3.460   3.250  14.648 -0.0595 -0.0573 -0.5683
 2004TIP3    H127427   3.498   3.256  14.736  1.3848  0.6116 -1.2323
 2004TIP3    H227428   3.521   3.195  14.599 -0.1456  0.7006 -1.5349
 2005TIP3   OH227429   3.661   1.848  13.248  0.1291 -0.1217  0.7501
 2005TIP3    H127430   3.680   1.863  13.340  0.5139 -0.7942  0.7886
 2005TIP3    H227431   3.639   1.755  13.243 -0.5235  0.0540  0.2651
 2006TIP3   OH227432   2.172   6.756  16.951  0.0356 -0.1510 -0.2287
 2006TIP3    H127433   2.118   6.832  16.928 -1.1119 -1.0212 -0.4630
 2006TIP3    H227434   2.214   6.731  16.869  0.2941  0.1300 -0.1814
 2007TIP3   OH227435   6.498   3.876   4.418 -0.0021 -0.2254 -0.0912
 2007TIP3    H127436   6.440   3.839   4.485  0.0087 -0.8785 -0.4402
 2007TIP3    H227437   6.441   3.893   4.343  0.2340 -0.7276 -0.3821
 2008TIP3   OH227438   4.954   2.569  15.156 -0.6400 -0.0038  0.0406
 2008TIP3    H127439   4.984   2.479  15.156  0.3732  0.3237  0.4245
 2008TIP3    H227440   4.868   2.566  15.198 -1.9963 -1.2108 -2.6789
 2009TIP3   OH227441   3.010   4.514  12.498  0.3470  0.2974 -0.0108
 2009TIP3    H127442   3.003   4.492  12.405  0.9006 -0.6851  0.1671
 2009TIP3    H227443   2.994   4.431  12.544 -0.6391  0.9241  0.7951
 2010TIP3   OH227444   3.574   0.033   1.547 -0.2321 -0.4196  0.2055
 2010TIP3    H127445   3.611  -0.055   1.542  0.9381  0.0687  0.1344
 2010TIP3    H227446   3.569   0.062   1.456 -1.1732 -0.6244  0.1810
 2011TIP3   OH227447   1.034   3.443  15.421  0.4208 -0.0483  0.8965
 2011TIP3    H127448   1.031   3.389  15.342  0.9897  1.0921  0.0856
 2011TIP3    H227449   1.092   3.396  15.480 -1.3802 -1.8095  1.3356
 2012TIP3   OH227450   5.976   2.623   4.405  0.1480 -0.1712  0.2896
 2012TIP3    H127451   5.947   2.650   4.492  0.2353 -0.7834  0.5102
 2012TIP3    H227452   5.967   2.702   4.351  1.1177  0.5147  1.1082
 2013TIP3   OH227453   0.443   5.496   5.727 -0.1243 -0.0310  0.0011
 2013TIP3    H127454   0.480   5.410   5.750  0.6782  0.2396 -0.2767
 2013TIP3    H227455   0.519   5.550   5.707 -0.6162  0.8398  0.4774
 2014TIP3   OH227456   3.897   6.738  16.318  0.1966 -0.3739  0.1245
 2014TIP3    H127457   3.971   6.679  16.301 -0.1225 -0.1875 -2.1124
 2014TIP3    H227458   3.938   6.818  16.349  0.7421 -1.2091  1.6197
 2015TIP3   OH227459   5.126   6.557   5.860 -0.1859  0.4993 -0.4232
 2015TIP3    H127460   5.060   6.496   5.829 -1.0276  0.6043  1.1211
 2015TIP3    H227461   5.101   6.641   5.820 -1.7407  0.8114  1.1446
 2016TIP3   OH227462   5.105   4.067   3.987 -0.0419  0.0519 -0.2512
 2016TIP3    H127463   5.193   4.041   4.014 -0.6101 -1.2597  0.3694
 2016TIP3    H227464   5.055   3.985   3.985 -1.2744  0.7932 -0.5143
 2017TIP3   OH227465   5.301   6.304   2.265  0.0631 -0.6632 -0.0235
 2017TIP3    H127466   5.221   6.338   2.306  0.2971 -1.3222  0.9945
 2017TIP3    H227467   5.283   6.307   2.172  0.2727  2.8141 -0.0187
 2018TIP3   OH227468   1.838   5.537  12.121  0.5575 -0.1848 -0.1967
 2018TIP3    H127469   1.764   5.531  12.181 -0.8006 -1.1544 -1.9364
 2018TIP3    H227470   1.910   5.493  12.166 -0.5697 -1.2912  0.5226
 2019TIP3   OH227471   5.262   1.064   0.132  0.0857 -0.1595  0.4015
 2019TIP3    H127472   5.210   1.001   0.081  0.1618  0.8218 -0.9278
 2019TIP3    H227473   5.290   1.015   0.209 -1.5251 -1.1692  0.3836
 2020TIP3   OH227474   4.227   6.206  12.240  0.1434  0.1082 -0.6507
 2020TIP3    H127475   4.222   6.127  12.187  2.4840 -0.0326 -0.7392
 2020TIP3    H227476   4.176   6.271  12.191  0.8234 -0.4912 -2.2069
 2021TIP3   OH227477   2.047   6.193   6.708  0.0790  0.1141 -0.6918
 2021TIP3    H127478   2.142   6.205   6.708  0.0863  0.0379 -1.7353
 2021TIP3    H227479   2.036   6.100   6.728  0.1676  0.5112  1.3025
 2022TIP3   OH227480   1.217   4.553  16.677  0.1258  0.2588  0.3188
 2022TIP3    H127481   1.309   4.547  16.704  0.3887  0.4246 -0.5175
 2022TIP3    H227482   1.180   4.467  16.698  0.2208  0.5284  1.5776
 2023TIP3   OH227483   5.116   5.138  16.093  0.0283  0.0171 -0.0225
 2023TIP3    H127484   5.034   5.165  16.135 -1.2065 -2.3838 -0.8431
 2023TIP3    H227485   5.089   5.090  16.015  2.2674  1.0548 -1.5088
 2024TIP3   OH227486   5.091   5.248  14.077 -0.2981  0.9890 -0.0332
 2024TIP3    H127487   5.127   5.289  14.155  0.0990 -2.0705  1.4847
 2024TIP3    H227488   4.997   5.264  14.081 -0.2676  0.8883  1.0653
 2025TIP3   OH227489   5.972   3.936  15.683  0.4139 -0.1845  0.2889
 2025TIP3    H127490   6.012   3.851  15.703 -0.1379 -1.1368 -2.4056
 2025TIP3    H227491   5.900   3.915  15.624 -1.6781  1.8841  2.0306
 2026TIP3   OH227492   4.624   0.430  11.705 -0.1919 -0.2512 -0.0815
 2026TIP3    H127493   4.530   0.444  11.693  0.0134  1.3260 -0.0643
 2026TIP3    H227494   4.633   0.337  11.722 -1.9118 -0.2016  1.3135
 2027TIP3   OH227495   5.188   0.739  16.002  0.2302 -0.2799  0.4669
 2027TIP3    H127496   5.232   0.784  16.074  2.8254 -0.6958 -0.7992
 2027TIP3    H227497   5.114   0.795  15.980  0.9280  1.1747  1.7399
 2028TIP3   OH227498   0.467   5.409  16.376  0.1135 -0.3453 -0.9354
 2028TIP3    H127499   0.408   5.453  16.436  2.1400 -1.3158  1.8721
 2028TIP3    H227500   0.497   5.478  16.316 -0.9007  0.9286  0.0071
 2029TIP3   OH227501   3.434   5.651  12.602  0.0872  0.3552 -0.2589
 2029TIP3    H127502   3.511   5.669  12.657  1.6168  0.8541 -2.4957
 2029TIP3    H227503   3.432   5.556  12.594 -0.4577  0.2413  1.0637
 2030TIP3   OH227504   3.579   0.130  12.156 -0.0494  0.3222  0.0642
 2030TIP3    H127505   3.532   0.121  12.239  1.9166 -3.7646  0.8852
 2030TIP3    H227506   3.513   0.113  12.089 -1.2126  1.6100  0.8693
 2031TIP3   OH227507   2.029   2.309  11.911 -0.4050  0.6836  0.4586
 2031TIP3    H127508   2.119   2.320  11.941 -0.4110 -0.8131  1.0662
 2031TIP3    H227509   2.037   2.264  11.827 -0.5280  1.9975 -0.2702
 2032TIP3   OH227510   2.830   3.295  16.235  0.4147  0.1497 -0.6413
 2032TIP3    H127511   2.742   3.329  16.219  0.5619 -0.0605 -1.9489
 2032TIP3    H227512   2.883   3.373  16.250  0.0933  0.3069 -0.3136
 2033TIP3   OH227513   2.054   1.793   3.087  0.2979 -0.4774 -0.0750
 2033TIP3    H127514   2.132   1.797   3.031 -0.6340 -0.6227 -1.4226
 2033TIP3    H227515   2.059   1.706   3.128  0.6712 -0.6268 -0.4222
 2034TIP3   OH227516   1.622   4.035   5.059  0.5174  0.0280  0.0326
 2034TIP3    H127517   1.716   4.020   5.066  0.6722  0.5271 -0.8354
 2034TIP3    H227518   1.606   4.045   4.965 -0.9650 -3.6171 -0.2176
 2035TIP3   OH227519   0.075   1.731  12.968  0.8133 -0.2042 -0.6367
 2035TIP3    H127520   0.126   1.651  12.964  1.3425  0.1519 -0.9992
 2035TIP3    H227521   0.133   1.799  12.934  0.2650  0.2819 -0.6155
 2036TIP3   OH227522   0.388   6.179  14.124 -0.5488  0.7516  0.2700
 2036TIP3    H127523   0.474   6.142  14.140  0.2502  2.2319 -0.5207
 2036TIP3    H227524   0.361   6.143  14.040 -0.5722  0.5162  0.3800
 2037TIP3   OH227525   2.123   2.869  12.515  0.1245  0.5887 -0.3996
 2037TIP3    H127526   2.146   2.875  12.608 -0.6551 -0.4541 -0.1336
 2037TIP3    H227527   2.075   2.950  12.497 -2.8765 -0.7915  1.0244
 2038TIP3   OH227528   3.019   5.343  13.207 -0.1980  0.2957 -0.5662
 2038TIP3    H127529   2.993   5.319  13.118 -1.4554  2.2534 -0.7503
 2038TIP3    H227530   2.982   5.273  13.262  1.0638 -1.2216 -1.6097
 2039TIP3   OH227531   5.294   2.366  14.167 -0.1838 -0.4172 -0.0703
 2039TIP3    H127532   5.208   2.342  14.203 -1.0059  0.4165 -1.4445
 2039TIP3    H227533   5.342   2.284  14.165 -0.2774 -0.5892  2.4519
 2040TIP3   OH227534   0.424   0.119  14.202  0.3475  0.5213  0.6907
 2040TIP3    H127535   0.364   0.061  14.248  0.2009  2.7680  3.4756
 2040TIP3    H227536   0.398   0.207  14.229  0.0305  2.0334 -4.0416
 2041TIP3   OH227537   0.651   2.103  11.561 -0.3544 -0.2569  0.3621
 2041TIP3    H127538   0.573   2.120  11.509  0.1321 -0.7343 -0.5374
 2041TIP3    H227539   0.698   2.035  11.513  0.5950 -0.0094  0.9140
 2042TIP3   OH227540   3.745   5.080   3.935 -0.7394  0.0569  0.6163
 2042TIP3    H127541   3.827   5.051   3.974  0.4258  0.9091 -1.1032
 2042TIP3    H227542   3.680   5.016   3.964  1.2376 -2.8068 -0.9701
 2043TIP3   OH227543   5.351   6.309   4.770  0.1373 -0.2640  0.3212
 2043TIP3    H127544   5.342   6.217   4.796  1.7111 -0.3028  0.8276
 2043TIP3    H227545   5.345   6.358   4.851  0.3611 -0.0117  0.1877
 2044TIP3   OH227546   3.781   5.048  16.332 -0.7733  0.2025 -0.0159
 2044TIP3    H127547   3.839   4.996  16.387 -0.3409  0.6346 -0.0587
 2044TIP3    H227548   3.801   5.139  16.354 -3.4304  0.3376  2.0242
 2045TIP3   OH227549   1.928   1.412  14.185 -0.3233  0.2406  0.5792
 2045TIP3    H127550   1.989   1.340  14.199  1.0525  1.0425 -1.0390
 2045TIP3    H227551   1.928   1.426  14.090 -1.5563  1.5110  0.7418
 2046TIP3   OH227552   6.610   1.712  13.632 -0.5436  0.3611  0.0238
 2046TIP3    H127553   6.659   1.794  13.632 -0.9122  0.6019 -1.4286
 2046TIP3    H227554   6.521   1.737  13.607 -0.6340 -0.4937 -0.5436
 2047TIP3   OH227555   2.840   5.473   4.708  0.4241  0.0847  0.2170
 2047TIP3    H127556   2.841   5.552   4.655  2.5509  1.8972  2.8101
 2047TIP3    H227557   2.913   5.484   4.770 -0.4127 -3.0209  1.8932
 2048TIP3   OH227558   3.338   3.206  12.191 -0.2532  0.5028  1.0586
 2048TIP3    H127559   3.419   3.159  12.211 -0.9764 -0.7714  1.0284
 2048TIP3    H227560   3.367   3.280  12.138  0.9257  0.2296  1.2936
 2049TIP3   OH227561   0.406   1.889   3.598 -0.4701  0.0156  0.0516
 2049TIP3    H127562   0.372   1.862   3.683 -1.8183  1.1619 -0.1084
 2049TIP3    H227563   0.341   1.951   3.564  0.4802  0.2391 -1.4276
 2050TIP3   OH227564   2.823   2.049   0.139 -0.1269 -0.3862  0.4419
 2050TIP3    H127565   2.913   2.021   0.155 -0.5643 -1.1109  1.6428
 2050TIP3    H227566   2.822   2.074   0.046  0.6228 -3.0240 -0.3091
 2051TIP3   OH227567   5.869   4.299   5.501 -0.1558 -0.0481 -0.3834
 2051TIP3    H127568   5.861   4.223   5.444 -0.7413  0.2166 -0.6573
 2051TIP3    H227569   5.896   4.370   5.443 -2.5445  0.6605 -0.6915
 2052TIP3   OH227570   3.901   1.844   1.541  0.0677  0.1389  0.2047
 2052TIP3    H127571   3.868   1.765   1.499 -0.9449  0.9444 -0.5297
 2052TIP3    H227572   3.836   1.911   1.521  0.5184  0.9779  1.4851
 2053TIP3   OH227573   3.584   3.626  12.020  0.2746 -0.2457  0.0235
 2053TIP3    H127574   3.608   3.698  11.962 -1.5190  0.5489  0.2262
 2053TIP3    H227575   3.573   3.668  12.106 -0.1288 -0.8870  0.2865
 2054TIP3   OH227576   6.451   3.625   5.650 -0.1443  0.1974  0.5662
 2054TIP3    H127577   6.381   3.560   5.641 -0.5177  0.4873  1.3055
 2054TIP3    H227578   6.516   3.583   5.706  0.2324 -0.0321 -0.0351
 2055TIP3   OH227579   0.581   4.010   5.899 -0.7963 -0.4374 -0.1085
 2055TIP3    H127580   0.533   3.973   5.825 -1.5515  0.0186  0.1514
 2055TIP3    H227581   0.650   3.947   5.917  0.6602  0.3639 -2.5059
 2056TIP3   OH227582   0.514   1.396  14.753 -0.2388  0.0472  0.0641
 2056TIP3    H127583   0.524   1.318  14.697  0.0864  1.3437 -1.7422
 2056TIP3    H227584   0.576   1.459  14.716 -0.5811  1.1985  1.4435
 2057TIP3   OH227585   1.477   4.488   4.972  0.1906 -0.4297 -0.0812
 2057TIP3    H127586   1.531   4.436   5.031  0.9663 -0.5090 -0.8516
 2057TIP3    H227587   1.400   4.434   4.954  0.0320 -0.4719  0.7150
 2058TIP3   OH227588   2.214   3.724   1.480 -0.7091  0.1091 -0.3238
 2058TIP3    H127589   2.123   3.748   1.465 -0.3495  0.8764 -1.3020
 2058TIP3    H227590   2.259   3.748   1.400  0.5029  0.4629  0.4496
 2059TIP3   OH227591   2.408   3.905   5.185 -0.0687  0.7869 -0.3113
 2059TIP3    H127592   2.357   3.864   5.254 -0.9431  1.0909 -0.7645
 2059TIP3    H227593   2.486   3.937   5.229  1.0929 -2.1815 -0.1201
 2060TIP3   OH227594   0.167   2.876   1.287 -0.6741  0.1150 -0.9101
 2060TIP3    H127595   0.162   2.921   1.202 -1.8931  1.1212 -0.3314
 2060TIP3    H227596   0.148   2.945   1.351  2.7513 -0.0586  0.3896
 2061TIP3   OH227597   4.497   0.545  14.256 -0.1489 -1.0069 -0.6665
 2061TIP3    H127598   4.535   0.633  14.252 -2.4317  0.0313 -0.1825
 2061TIP3    H227599   4.572   0.487  14.273  1.2106  0.9580  0.1638
 2062TIP3   OH227600   5.465   2.528   2.329 -0.2711  0.1294  0.4172
 2062TIP3    H127601   5.483   2.622   2.342 -0.5033  0.2644 -0.2184
 2062TIP3    H227602   5.426   2.523   2.242 -1.1813 -0.4474  0.8514
 2063TIP3   OH227603   3.258   2.761  11.829  0.5734 -0.3505 -0.0582
 2063TIP3    H127604   3.329   2.795  11.773  0.3822 -0.0925 -0.1422
 2063TIP3    H227605   3.302   2.737  11.911  0.6034  0.6895  0.2331
 2064TIP3   OH227606   5.173   3.848  14.447  0.0199  0.5881  0.4015
 2064TIP3    H127607   5.110   3.904  14.401  2.8243  4.2701  0.7794
 2064TIP3    H227608   5.250   3.847  14.390  0.6557 -1.5442  1.2399
 2065TIP3   OH227609   6.442   3.660   2.711 -0.1886  0.6387 -0.5957
 2065TIP3    H127610   6.454   3.741   2.761  0.9720 -0.1299  0.4209
 2065TIP3    H227611   6.508   3.601   2.747 -2.6636 -1.5853  0.4047
 2066TIP3   OH227612   0.991   3.156  13.383 -0.4780  0.3168  0.3173
 2066TIP3    H127613   0.937   3.234  13.374 -0.8915  0.0213  0.2182
 2066TIP3    H227614   1.075   3.189  13.415 -0.5344  0.8361 -0.0686
 2067TIP3   OH227615   0.315   3.949  15.580 -0.8295 -0.8247 -0.0309
 2067TIP3    H127616   0.395   3.991  15.551 -1.4992  0.0224 -0.6704
 2067TIP3    H227617   0.344   3.882  15.643  0.1116  2.0572  2.7118
 2068TIP3   OH227618   6.239   4.404   2.632  0.3717  0.2907 -0.3442
 2068TIP3    H127619   6.245   4.320   2.678  2.0756  0.7443  0.2935
 2068TIP3    H227620   6.156   4.442   2.661  1.0477  0.1970  1.7425
 2069TIP3   OH227621   3.255   0.121  14.446 -0.9142  0.2546  0.0448
 2069TIP3    H127622   3.246   0.043  14.501 -1.7864  1.9339  2.3685
 2069TIP3    H227623   3.246   0.194  14.507  0.4090  2.1820 -2.0181
 2070TIP3   OH227624   5.056   1.103  11.206  0.5578 -0.2281 -0.3126
 2070TIP3    H127625   5.029   1.193  11.223 -0.6089 -0.3205 -1.6086
 2070TIP3    H227626   5.115   1.109  11.131  0.3062 -0.5684 -0.5382
 2071TIP3   OH227627   0.470   6.381   4.448 -0.0882 -0.2579  0.4784
 2071TIP3    H127628   0.462   6.290   4.476  0.8141 -1.4625 -2.8650
 2071TIP3    H227629   0.565   6.396   4.443 -0.2313  0.4543 -0.1620
 2072TIP3   OH227630   1.213   1.068   6.105 -0.7750 -0.1463 -0.7374
 2072TIP3    H127631   1.252   1.025   6.181 -0.5715 -0.6318 -1.1137
 2072TIP3    H227632   1.148   1.006   6.072 -0.2430 -0.3142 -1.4872
 2073TIP3   OH227633   1.126   4.451   9.999 -0.1258 -0.2871  0.3055
 2073TIP3    H127634   1.133   4.356  10.010  0.6534 -0.1670  0.8824
 2073TIP3    H227635   1.184   4.487  10.066  0.7066  0.5664 -0.8599
 2074TIP3   OH227636   6.299   1.647  11.736 -0.4437 -0.2122  0.1051
 2074TIP3    H127637   6.277   1.568  11.785  0.2247 -0.7347 -0.4312
 2074TIP3    H227638   6.393   1.658  11.751 -0.4188  0.1398 -0.3168
 2075TIP3   OH227639   5.859   0.543   1.286  0.0438  0.0049 -0.3459
 2075TIP3    H127640   5.846   0.572   1.196  1.7198  0.4562 -0.4634
 2075TIP3    H227641   5.883   0.451   1.279  1.5380  0.3935 -0.4724
 2076TIP3   OH227642   4.242   4.080   3.030 -0.0660  0.0318  0.0839
 2076TIP3    H127643   4.335   4.095   3.049 -0.2169 -1.2914  2.0772
 2076TIP3    H227644   4.239   3.993   2.991 -0.2481  1.0090 -2.1495
 2077TIP3   OH227645   4.737   2.134  16.361  0.0404 -0.5675  0.0369
 2077TIP3    H127646   4.785   2.210  16.392  1.2384 -1.5862  0.6986
 2077TIP3    H227647   4.661   2.128  16.420 -1.0099  1.1037 -1.0843
 2078TIP3   OH227648   2.022   2.681   3.772 -0.2650 -0.1729 -0.9374
 2078TIP3    H127649   2.062   2.700   3.857 -3.9586  0.8134  0.7000
 2078TIP3    H227650   2.019   2.585   3.768 -0.0559 -0.2279  0.0556
 2079TIP3   OH227651   1.222   5.847  16.480  0.3977 -0.0714 -0.1281
 2079TIP3    H127652   1.277   5.925  16.477  0.3587 -0.0600 -0.7265
 2079TIP3    H227653   1.219   5.817  16.389 -0.6149 -0.0481 -0.1110
 2080TIP3   OH227654   6.548   5.695   0.519  0.2238  0.4668  0.0855
 2080TIP3    H127655   6.470   5.720   0.568 -0.7749 -1.4947 -0.4271
 2080TIP3    H227656   6.560   5.765   0.455 -2.2714 -0.1198 -1.1048
 2081TIP3   OH227657   6.294   1.829   0.117  0.2570  0.2724  0.0648
 2081TIP3    H127658   6.262   1.905   0.069 -1.4809 -0.4650  0.0232
 2081TIP3    H227659   6.371   1.800   0.067  0.1018  1.1592 -0.7078
 2082TIP3   OH227660   4.171   1.827   3.534 -0.8363 -0.1666  0.0276
 2082TIP3    H127661   4.172   1.922   3.525  0.6312 -0.1928 -0.0694
 2082TIP3    H227662   4.147   1.795   3.446 -1.0935  0.0973  0.0004
 2083TIP3   OH227663   0.126   3.676  12.508  0.1517 -0.7154 -0.6852
 2083TIP3    H127664   0.132   3.581  12.510  0.5330 -0.6774  0.0941
 2083TIP3    H227665   0.065   3.698  12.578  0.0178 -0.3854 -0.9020
 2084TIP3   OH227666   0.190   2.062   3.519  0.0106 -0.4586 -0.2915
 2084TIP3    H127667   0.111   2.008   3.513  0.2178 -0.6791 -1.1248
 2084TIP3    H227668   0.210   2.086   3.429  1.1367 -0.7455 -0.1244
 2085TIP3   OH227669   1.917   6.258   5.268 -0.3679  0.0482  0.2898
 2085TIP3    H127670   1.938   6.330   5.210  0.9063 -0.5044  0.0603
 2085TIP3    H227671   1.900   6.300   5.353  4.0202  0.3780  1.1243
 2086TIP3   OH227672   0.683   0.177  14.307  0.6597 -0.0699 -0.4094
 2086TIP3    H127673   0.747   0.247  14.301 -0.2122  1.0172  2.3836
 2086TIP3    H227674   0.614   0.202  14.246  1.7354 -0.0303 -1.6316
 2087TIP3   OH227675   4.336   0.356   1.842  0.1933 -0.1418  0.1791
 2087TIP3    H127676   4.403   0.343   1.774 -0.5349 -0.9902 -0.3818
 2087TIP3    H227677   4.259   0.386   1.794 -0.1524 -0.2043  0.6982
 2088TIP3   OH227678   5.943   4.028  16.185  0.9978 -0.0876 -1.0477
 2088TIP3    H127679   5.857   4.032  16.143 -0.1435  1.3493  1.3326
 2088TIP3    H227680   5.990   4.105  16.153  0.2830  0.7754 -0.0449
 2089TIP3   OH227681   4.317   3.936  13.510  0.0321  0.2889 -0.3235
 2089TIP3    H127682   4.378   3.863  13.500 -0.6454 -0.5248  1.4001
 2089TIP3    H227683   4.277   3.924  13.596 -1.9969  1.2471 -1.0849
 2090TIP3   OH227684   3.862   5.357   0.887  0.1995  0.1095 -0.0186
 2090TIP3    H127685   3.918   5.343   0.964 -0.1170 -1.0401  0.0004
 2090TIP3    H227686   3.805   5.430   0.913  0.7336  0.3578  0.4804
 2091TIP3   OH227687   1.066   4.391  11.515 -0.4941  0.0038 -0.2709
 2091TIP3    H127688   0.998   4.377  11.449 -2.0778  0.8685  1.1392
 2091TIP3    H227689   1.071   4.487  11.524  0.8450 -0.0562 -0.2789
 2092TIP3   OH227690   0.986   5.381  12.349  0.1331  0.5542 -0.7815
 2092TIP3    H127691   0.903   5.425  12.331  0.3070  2.0501  1.7974
 2092TIP3    H227692   1.044   5.412  12.279 -0.7455  1.6318 -1.0617
 2093TIP3   OH227693   2.492   0.190  12.608  0.0867  0.6320 -0.2852
 2093TIP3    H127694   2.580   0.163  12.579 -0.2936  0.2766 -1.1221
 2093TIP3    H227695   2.474   0.269  12.557 -0.0428  0.7564 -0.0463
 2094TIP3   OH227696   3.668   5.623  10.891 -0.1548  0.7164  0.4796
 2094TIP3    H127697   3.691   5.592  10.979  0.8427  1.4781  0.4986
 2094TIP3    H227698   3.725   5.699  10.877 -0.4629  0.7267 -0.7421
 2095TIP3   OH227699   0.904   3.773  11.936  0.1725 -0.5912 -0.5475
 2095TIP3    H127700   0.835   3.712  11.961 -0.4998  0.2779 -0.2636
 2095TIP3    H227701   0.983   3.739  11.977 -0.4048 -0.6696  0.4978
 2096TIP3   OH227702   4.496   3.052  12.480  0.2235 -0.8073 -0.1611
 2096TIP3    H127703   4.444   3.014  12.551  0.1869 -1.7394 -0.6893
 2096TIP3    H227704   4.478   2.996  12.404  2.7451 -1.7120 -0.1249
 2097TIP3   OH227705   2.482   0.889   4.304  0.2192 -0.3833 -0.3965
 2097TIP3    H127706   2.456   0.928   4.388 -0.1302  0.0301 -0.6955
 2097TIP3    H227707   2.405   0.898   4.248  0.4983 -0.5302 -0.8102
 2098TIP3   OH227708   3.463   2.692  10.653 -0.0767  0.0405  0.0550
 2098TIP3    H127709   3.449   2.744  10.574  2.9161 -0.1087 -0.6417
 2098TIP3    H227710   3.441   2.751  10.725 -0.7389  0.8869 -0.8367
 2099TIP3   OH227711   5.010   5.214   2.862 -0.1635 -0.2251 -0.0183
 2099TIP3    H127712   5.074   5.153   2.898  0.6823  1.7112  1.8748
 2099TIP3    H227713   4.972   5.167   2.787  1.4275 -2.5020  0.5296
 2100TIP3   OH227714   2.263   4.699  16.241  0.2398 -0.3731  0.0696
 2100TIP3    H127715   2.320   4.772  16.264  1.3892 -1.4167  0.6335
 2100TIP3    H227716   2.174   4.731  16.258  0.7600  0.7060  0.8243
 2101TIP3   OH227717   3.415   5.639  12.097 -0.4004  0.3949 -0.3043
 2101TIP3    H127718   3.393   5.648  12.190  0.8021 -0.3610  0.0710
 2101TIP3    H227719   3.479   5.708  12.081  0.0359 -0.0082 -0.3395
 2102TIP3   OH227720   0.596   3.098   1.798  0.0409  1.0529 -0.0226
 2102TIP3    H127721   0.657   3.113   1.726  0.5789 -0.7469  0.0565
 2102TIP3    H227722   0.536   3.031   1.765  0.2482  0.2737  1.1660
 2103TIP3   OH227723   1.249   2.969  11.491 -0.0561  0.4622 -0.0565
 2103TIP3    H127724   1.243   2.882  11.530 -0.7353  0.4213 -0.2367
 2103TIP3    H227725   1.314   2.959  11.421 -0.8576 -0.1560 -0.7270
 2104TIP3   OH227726   6.441   2.828   2.006 -0.6112 -0.2781  0.7501
 2104TIP3    H127727   6.408   2.804   1.919 -1.3181 -0.8673  1.1751
 2104TIP3    H227728   6.378   2.892   2.038  0.2545  0.7651  0.3802
 2105TIP3   OH227729   0.808   5.025  12.361  0.4952  0.1744 -0.2922
 2105TIP3    H127730   0.865   4.949  12.375  0.9617 -0.0888 -3.1746
 2105TIP3    H227731   0.730   4.988  12.318 -0.4663  0.9646  0.7600
 2106TIP3   OH227732   1.071   5.463   1.392 -0.4738 -0.4769 -0.3488
 2106TIP3    H127733   1.114   5.407   1.326 -0.2722 -0.8271  0.0742
 2106TIP3    H227734   1.094   5.552   1.366  2.4178 -0.7283  1.1326
 2107TIP3   OH227735   2.229   6.038  16.893  0.1711 -0.0381 -0.3660
 2107TIP3    H127736   2.134   6.029  16.901  0.0974 -1.4618 -2.6519
 2107TIP3    H227737   2.260   5.951  16.870  2.2959 -0.0501  2.2206
 2108TIP3   OH227738   5.868   0.485   2.365 -0.8596  0.5278 -0.0677
 2108TIP3    H127739   5.916   0.541   2.304  2.1155 -0.6566  1.1041
 2108TIP3    H227740   5.874   0.531   2.449  1.2835 -1.2635  0.8208
 2109TIP3   OH227741   0.832   0.025   2.869 -0.2921  0.4925 -0.0497
 2109TIP3    H127742   0.898   0.042   2.802  0.1450  1.4535  0.6171
 2109TIP3    H227743   0.841  -0.068   2.888 -1.6661 -0.2260 -2.6444
 2110TIP3   OH227744   0.090   2.188  13.281 -0.3153 -0.0871 -0.5528
 2110TIP3    H127745   0.174   2.161  13.244 -1.3828 -2.5527 -1.2294
 2110TIP3    H227746   0.030   2.116  13.261 -2.2319  0.9564  1.2684
 2111TIP3   OH227747   5.587   4.259   6.446 -0.1716  0.3620  0.5859
 2111TIP3    H127748   5.564   4.352   6.440  1.3440  0.7326  0.2155
 2111TIP3    H227749   5.616   4.236   6.358 -1.4761 -0.7430  0.4205
 2112TIP3   OH227750   1.516   6.063   2.976 -0.0941  0.2426  0.4522
 2112TIP3    H127751   1.481   6.101   2.896  0.1036 -1.3558 -0.4169
 2112TIP3    H227752   1.457   5.991   2.996  0.7830 -0.3848  0.8250
 2113TIP3   OH227753   4.395   3.858   5.017 -0.1755 -0.3992  0.2460
 2113TIP3    H127754   4.443   3.811   5.086  0.7573 -0.0325 -0.1491
 2113TIP3    H227755   4.392   3.796   4.944  0.7688  0.0238 -0.1591
 2114TIP3   OH227756   0.083   1.910   4.435 -0.6917  0.4439 -0.5214
 2114TIP3    H127757   0.048   1.993   4.464 -3.1990 -0.2308 -1.4852
 2114TIP3    H227758   0.067   1.849   4.507 -0.5000  0.3806 -0.5300
 2115TIP3   OH227759   1.752   2.438   1.203 -0.1596 -0.1337 -0.3509
 2115TIP3    H127760   1.816   2.505   1.225 -0.1104 -0.3246  0.0915
 2115TIP3    H227761   1.670   2.470   1.241 -0.2006 -0.1805 -0.4003
 2116TIP3   OH227762   5.783   1.375   4.384 -0.1396 -0.4112 -0.0888
 2116TIP3    H127763   5.690   1.358   4.369 -0.0542 -0.7682 -0.2210
 2116TIP3    H227764   5.826   1.293   4.360  0.3544  0.2464 -1.4943
 2117TIP3   OH227765   3.488   0.668   1.131 -0.4322 -0.3199 -0.1876
 2117TIP3    H127766   3.467   0.581   1.098 -0.3584  0.2056 -1.6668
 2117TIP3    H227767   3.501   0.721   1.052  1.2055  0.6201  0.6733
 2118TIP3   OH227768   2.264   1.824  13.709  0.0319 -0.1652  0.0187
 2118TIP3    H127769   2.255   1.745  13.761 -1.3867  0.6871  1.1058
 2118TIP3    H227770   2.351   1.858  13.731  0.1995 -0.8303  0.3793
 2119TIP3   OH227771   2.845   5.652   5.033  0.0323  0.0948  0.2619
 2119TIP3    H127772   2.916   5.707   5.000 -1.0113  1.7768  0.7820
 2119TIP3    H227773   2.813   5.698   5.111 -1.1621 -1.0200  0.4489
 2120TIP3   OH227774   0.164   4.272  16.742  0.1168 -0.3190 -0.6187
 2120TIP3    H127775   0.226   4.229  16.801 -0.2904 -1.8433 -1.2549
 2120TIP3    H227776   0.193   4.245  16.654 -0.8723 -0.2850 -0.9647
 2121TIP3   OH227777   6.695   1.655  15.342 -0.0641 -0.1940  0.4510
 2121TIP3    H127778   6.622   1.682  15.286 -0.2599 -0.1278  0.7339
 2121TIP3    H227779   6.769   1.643  15.282  0.0387  1.0015  0.3366
 2122TIP3   OH227780   0.270   4.246  12.563  0.5753 -0.3746 -0.5454
 2122TIP3    H127781   0.343   4.225  12.621  0.8889  2.7633  0.2632
 2122TIP3    H227782   0.204   4.285  12.620 -1.0882 -1.6514 -1.5503
 2123TIP3   OH227783   0.370   6.040  15.172 -0.6181  0.2159 -0.2011
 2123TIP3    H127784   0.313   5.963  15.179 -0.1755 -0.0780  0.1752
 2123TIP3    H227785   0.459   6.005  15.170 -0.4395  0.6890 -0.5890
 2124TIP3   OH227786   0.206   4.172   0.816  0.1927  0.0229 -0.7615
 2124TIP3    H127787   0.157   4.139   0.741  0.9125  0.4852 -1.4325
 2124TIP3    H227788   0.204   4.268   0.806 -2.0049  0.2515  1.2425
 2125TIP3   OH227789   0.910   4.872  11.143  0.5867  0.0995 -0.2202
 2125TIP3    H127790   0.927   4.962  11.116 -0.1567  0.0699 -0.8139
 2125TIP3    H227791   0.883   4.828  11.062  0.9722 -0.6597  0.0588
 2126TIP3   OH227792   4.262   0.829  16.740 -0.4010  0.2120  0.3404
 2126TIP3    H127793   4.238   0.737  16.731 -2.4176  0.6600  0.8676
 2126TIP3    H227794   4.343   0.827  16.791  0.2639 -1.3152 -0.7163
 2127TIP3   OH227795   1.477   0.180   0.362 -0.5264  0.2682 -0.2149
 2127TIP3    H127796   1.487   0.085   0.357  1.6385  0.5507 -1.7025
 2127TIP3    H227797   1.447   0.206   0.275 -1.9209  0.8566  0.4406
 2128TIP3   OH227798   3.030   1.272   1.959  0.7357 -0.2424 -0.5500
 2128TIP3    H127799   3.052   1.335   2.027  0.9346  0.0295 -0.8671
 2128TIP3    H227800   2.959   1.313   1.910 -0.5815 -1.1633  0.5419
 2129TIP3   OH227801   4.163   5.814   4.254 -0.9653  0.1279 -0.0387
 2129TIP3    H127802   4.082   5.859   4.232 -0.9976  0.8461  1.5165
 2129TIP3    H227803   4.170   5.822   4.349  1.8996  1.8036 -0.3158
 2130TIP3   OH227804   1.534   6.584  15.729 -0.1266 -0.3811  0.0071
 2130TIP3    H127805   1.440   6.588  15.711 -0.4186  0.9339  1.6435
 2130TIP3    H227806   1.552   6.667  15.773  2.5580  1.1028 -3.6826
 2131TIP3   OH227807   2.673   0.008  13.578 -0.2408  0.5231  0.0862
 2131TIP3    H127808   2.645   0.009  13.670 -1.5922 -0.2702 -0.3029
 2131TIP3    H227809   2.591   0.010  13.528  0.4914  1.1486 -1.1139
 2132TIP3   OH227810   1.076   1.255   5.720 -0.1332 -0.0483 -0.4585
 2132TIP3    H127811   1.099   1.173   5.676 -0.3173  0.6253 -1.8177
 2132TIP3    H227812   1.136   1.258   5.795  0.3870 -1.0576 -0.8127
 2133TIP3   OH227813   3.655   2.670   0.279  0.1388  0.1823  0.1251
 2133TIP3    H127814   3.670   2.763   0.258 -1.4926  0.8518  1.7477
 2133TIP3    H227815   3.714   2.653   0.352 -1.6341  0.8208  1.7788
 2134TIP3   OH227816   2.461   0.154  15.900 -0.8119 -0.3157  0.1338
 2134TIP3    H127817   2.377   0.200  15.899 -0.0745  1.0629 -1.6569
 2134TIP3    H227818   2.466   0.110  15.815 -0.5579 -1.9543  0.9851
 2135TIP3   OH227819   3.161   6.126  15.576 -0.6743  0.2049  0.3727
 2135TIP3    H127820   3.245   6.168  15.555  0.3189 -2.6557 -1.6958
 2135TIP3    H227821   3.165   6.110  15.670  1.3172 -0.3149  0.2264
 2136TIP3   OH227822   1.266   5.773  16.230  0.2671 -0.3053  0.1426
 2136TIP3    H127823   1.304   5.845  16.179 -0.1727 -0.9718 -1.1518
 2136TIP3    H227824   1.182   5.756  16.189  0.3733 -1.5811  0.4192
 2137TIP3   OH227825   5.963   2.515  12.320 -0.5193  0.3180 -0.1588
 2137TIP3    H127826   6.007   2.570  12.385  0.0481 -1.5014  1.0240
 2137TIP3    H227827   6.033   2.462  12.282 -1.3199 -0.8407 -0.0234
 2138TIP3   OH227828   6.348   4.837   0.607 -0.2734 -0.4266  0.0281
 2138TIP3    H127829   6.402   4.759   0.595  0.0907 -0.2366  0.4320
 2138TIP3    H227830   6.329   4.839   0.701 -0.4475 -0.1383 -0.0119
 2139TIP3   OH227831   6.359   4.722   6.311 -0.1235  0.1466  0.3663
 2139TIP3    H127832   6.422   4.688   6.374 -1.1751 -1.0574  0.8060
 2139TIP3    H227833   6.302   4.647   6.292 -0.1387  0.6349 -1.6165
 2140TIP3   OH227834   1.703   5.395   1.952 -0.1127  0.2166 -0.2540
 2140TIP3    H127835   1.646   5.352   2.016 -1.5278  0.0988 -1.5602
 2140TIP3    H227836   1.650   5.466   1.916  0.6593  0.3024 -1.2580
 2141TIP3   OH227837   3.031   3.004  17.135  0.2716 -0.0413  0.0759
 2141TIP3    H127838   3.124   2.992  17.156  0.6743 -0.0670 -1.6162
 2141TIP3    H227839   2.985   2.987  17.217  1.5571 -3.0314  0.2735
 2142TIP3   OH227840   4.274   2.282   5.218 -0.1516 -0.1091 -0.5050
 2142TIP3    H127841   4.261   2.357   5.276  2.3667 -0.5011  0.6716
 2142TIP3    H227842   4.224   2.211   5.258 -0.3788  0.2632 -0.1294
 2143TIP3   OH227843   5.824   4.095  13.519 -0.4540  0.1357  0.1086
 2143TIP3    H127844   5.810   4.114  13.611 -0.2633 -0.2566  0.2203
 2143TIP3    H227845   5.907   4.048  13.517 -0.7564 -0.3849 -0.2010
 2144TIP3   OH227846   6.304   6.006   2.225 -0.3884  0.3670  0.0180
 2144TIP3    H127847   6.243   6.024   2.154 -0.4412  1.3445  0.2954
 2144TIP3    H227848   6.372   6.072   2.215  0.6121 -0.7014 -0.2717
 2145TIP3   OH227849   1.747   2.872  12.392 -0.9054 -0.3229  0.4674
 2145TIP3    H127850   1.658   2.899  12.415 -1.1147 -0.4406 -0.2014
 2145TIP3    H227851   1.762   2.909  12.305 -0.8128 -1.4877 -0.0187
 2146TIP3   OH227852   5.516   4.174   3.198 -0.0014  0.9506 -0.5891
 2146TIP3    H127853   5.447   4.235   3.174  0.2267  1.2627 -0.4467
 2146TIP3    H227854   5.597   4.222   3.183  0.1890  0.5409 -0.8783
 2147TIP3   OH227855   6.333   6.385   6.669  0.1469  0.1954 -0.2911
 2147TIP3    H127856   6.356   6.318   6.604  1.3196  0.3705 -0.0719
 2147TIP3    H227857   6.276   6.340   6.731  0.7589 -0.5574 -0.2651
 2148TIP3   OH227858   4.354   4.635  13.407  0.2169  0.0276  0.2620
 2148TIP3    H127859   4.403   4.649  13.327  0.6190 -1.6437  0.1864
 2148TIP3    H227860   4.368   4.542  13.428 -1.1770  0.0455  1.3897
 2149TIP3   OH227861   0.657   0.094   5.203 -0.3388 -0.2958 -0.0416
 2149TIP3    H127862   0.577   0.142   5.224 -0.4005  0.4704 -1.9104
 2149TIP3    H227863   0.723   0.162   5.190  0.3402 -0.8674  0.3939
 2150TIP3   OH227864   4.338   6.296  13.844  0.7979 -0.0354  0.4596
 2150TIP3    H127865   4.290   6.376  13.823  0.6721 -0.0470  0.7060
 2150TIP3    H227866   4.288   6.226  13.803  0.9030  0.0116  0.2515
 2151TIP3   OH227867   3.414   6.343   3.966 -0.1330  0.2057  0.1122
 2151TIP3    H127868   3.497   6.380   3.934  0.4096 -2.0277 -1.1408
 2151TIP3    H227869   3.407   6.376   4.056  2.0753  0.5298  0.2018
 2152TIP3   OH227870   1.463   3.586   5.560 -0.3679  0.5490 -0.0151
 2152TIP3    H127871   1.517   3.652   5.605  0.0685  0.9598 -1.1177
 2152TIP3    H227872   1.518   3.555   5.488  0.4346 -2.9131  1.9802
 2153TIP3   OH227873   4.566   1.972  15.978 -0.2666  0.0571 -0.1917
 2153TIP3    H127874   4.617   2.038  16.025 -1.8002  1.0918  0.0464
 2153TIP3    H227875   4.489   1.957  16.034 -1.3413  0.1620 -1.6135
 2154TIP3   OH227876   0.907   1.896  15.367  0.6421  0.3320  0.3384
 2154TIP3    H127877   0.890   1.807  15.397  0.9260  0.4149  0.7571
 2154TIP3    H227878   0.980   1.889  15.306  0.6741  0.2779  0.3835
 2155TIP3   OH227879   6.763   3.614   0.521  0.1310 -0.6172 -0.0709
 2155TIP3    H127880   6.852   3.626   0.552  1.0626 -2.6934 -1.7791
 2155TIP3    H227881   6.710   3.607   0.600  1.6101 -0.1840  0.9678
 2156TIP3   OH227882   0.011   2.736   0.933 -0.7855  0.1479 -0.3848
 2156TIP3    H127883  -0.058   2.690   0.885  0.2270 -2.2029  0.2965
 2156TIP3    H227884  -0.014   2.727   1.025  0.1604 -0.3211 -0.1666
 2157TIP3   OH227885   6.091   0.270   5.756 -0.3149 -0.1777  0.0003
 2157TIP3    H127886   6.087   0.324   5.835  0.8755 -0.0850 -0.0008
 2157TIP3    H227887   6.160   0.206   5.773 -0.3883 -0.4711 -0.7660
 2158TIP3   OH227888   3.411   5.413  11.450 -0.0515 -0.3303  0.2779
 2158TIP3    H127889   3.467   5.406  11.527  0.8478 -0.5407 -0.3963
 2158TIP3    H227890   3.385   5.322  11.432  1.8493 -0.5920 -1.2251
 2159TIP3   OH227891   5.934   0.879   2.495  0.5992  0.3557 -0.3792
 2159TIP3    H127892   5.987   0.881   2.575  2.2269 -1.3449 -1.3932
 2159TIP3    H227893   5.883   0.798   2.502 -0.7200  1.1832 -0.1718
 2160TIP3   OH227894   1.961   0.627  15.389  0.2830 -0.0608  0.0742
 2160TIP3    H127895   1.883   0.574  15.409  0.5731 -0.7357 -0.5640
 2160TIP3    H227896   2.013   0.572  15.330  0.9575  0.6314  0.0171
 2161TIP3   OH227897   4.672   4.618  16.178 -0.4199  0.1598  0.2223
 2161TIP3    H127898   4.591   4.630  16.227 -0.4729  0.9402 -0.0615
 2161TIP3    H227899   4.696   4.705  16.147  1.8785  0.3633  2.3942
 2162TIP3   OH227900   3.144   5.876  14.634 -0.6751  0.2620 -0.2799
 2162TIP3    H127901   3.170   5.795  14.679  0.3576  0.9290  0.3296
 2162TIP3    H227902   3.055   5.893  14.666 -1.2933 -1.1528 -1.1523
 2163TIP3   OH227903   0.426   3.420   2.176 -0.5611 -0.0526 -1.2744
 2163TIP3    H127904   0.517   3.395   2.195 -0.9973 -0.2152  0.7436
 2163TIP3    H227905   0.416   3.506   2.216 -1.3383 -0.1040 -1.3569
 2164TIP3   OH227906   6.684   4.414  12.683  0.4703 -0.6250  0.1197
 2164TIP3    H127907   6.593   4.393  12.704 -0.2444 -0.4700 -2.6806
 2164TIP3    H227908   6.734   4.343  12.722 -0.9787 -1.6120  0.2398
 2165TIP3   OH227909   6.487   0.761  13.180 -0.4173  0.2513 -0.0428
 2165TIP3    H127910   6.500   0.695  13.248 -0.8547  1.0698  0.8523
 2165TIP3    H227911   6.533   0.726  13.104  1.6937  0.1603  1.2201
 2166TIP3   OH227912   2.014   2.448   1.058  0.9177  0.3510 -0.1941
 2166TIP3    H127913   2.090   2.453   1.115 -0.5782  2.0122  1.7594
 2166TIP3    H227914   2.025   2.367   1.009  2.9845 -0.3653  1.4054
 2167TIP3   OH227915   1.225   0.983  16.378 -0.3119 -0.3471  0.0499
 2167TIP3    H127916   1.192   0.965  16.290  0.9743 -1.5645 -0.1990
 2167TIP3    H227917   1.227   0.897  16.421 -2.4027  0.4133  1.8270
 2168TIP3   OH227918   0.643   3.538   5.950  0.0355 -0.1640  0.4216
 2168TIP3    H127919   0.694   3.605   5.996 -2.8589  2.7283 -0.3836
 2168TIP3    H227920   0.568   3.521   6.007 -0.3420 -1.1808 -0.3634
 2169TIP3   OH227921   2.222   0.080   3.958  0.7910  0.0074 -0.1584
 2169TIP3    H127922   2.235  -0.003   3.912  0.3197  0.5738 -1.3238
 2169TIP3    H227923   2.130   0.080   3.981  1.0539 -0.3346  0.9294
 2170TIP3   OH227924   5.510   1.061  11.421  0.3121 -0.2481 -0.3680
 2170TIP3    H127925   5.553   0.986  11.463  2.9142  1.4952  0.2030
 2170TIP3    H227926   5.553   1.068  11.335 -0.8893 -0.2331 -0.9781
 2171TIP3   OH227927   1.887   0.387  13.340  0.0766  0.3934  0.6377
 2171TIP3    H127928   1.828   0.423  13.406 -2.2154 -1.0862 -0.5770
 2171TIP3    H227929   1.873   0.293  13.343  1.9913  0.0623 -0.0564
 2172TIP3   OH227930   3.661   2.830   3.704 -0.6073 -0.6411  0.9228
 2172TIP3    H127931   3.631   2.908   3.751 -0.4136 -0.5296  0.8620
 2172TIP3    H227932   3.630   2.843   3.614  0.8825  0.1712  0.5125
 2173TIP3   OH227933   6.159   6.148  14.466  0.3282 -0.2909 -0.5305
 2173TIP3    H127934   6.128   6.133  14.377  1.1919 -1.2227 -0.6860
 2173TIP3    H227935   6.243   6.192  14.455 -0.8300  2.1384 -0.1147
 2174TIP3   OH227936   6.058   5.753   1.062  0.5402  0.2263  0.1656
 2174TIP3    H127937   6.126   5.765   0.995  0.5378  2.1780  0.4905
 2174TIP3    H227938   6.053   5.838   1.107  0.0748 -0.8577  2.2122
 2175TIP3   OH227939   1.694   1.760  14.501 -0.0063  0.5111 -0.1010
 2175TIP3    H127940   1.673   1.669  14.479  0.8226  0.5482 -1.1191
 2175TIP3    H227941   1.772   1.779  14.449 -0.9721  2.2452 -0.9720
 2176TIP3   OH227942   2.016   0.843   2.090  0.4352 -0.9681 -0.4006
 2176TIP3    H127943   1.977   0.886   2.167  0.4549  0.0126 -0.9276
 2176TIP3    H227944   2.006   0.907   2.020  0.1214 -1.9870 -1.3018
 2177TIP3   OH227945   5.692   1.549  16.992  0.1704 -0.6069  0.0042
 2177TIP3    H127946   5.775   1.504  16.976  0.7697  0.7663 -0.8083
 2177TIP3    H227947   5.688   1.618  16.926 -0.0791  1.4493  2.1016
 2178TIP3   OH227948   0.458   4.895   1.527  0.4614  0.4045  0.3076
 2178TIP3    H127949   0.439   4.988   1.517  1.6613  0.6616  0.3549
 2178TIP3    H227950   0.393   4.851   1.473  0.1323  1.2902 -0.0250
 2179TIP3   OH227951   1.349   1.199   1.907  0.0403  0.1208  0.2772
 2179TIP3    H127952   1.374   1.133   1.971 -0.2635 -0.3966 -0.1311
 2179TIP3    H227953   1.254   1.191   1.900  0.0946  0.0283 -0.3884
 2180TIP3   OH227954   5.933   3.590   2.108  0.6240  0.0912 -0.1408
 2180TIP3    H127955   5.970   3.503   2.090 -1.5001 -0.6413 -1.1547
 2180TIP3    H227956   5.855   3.594   2.053 -1.0361  1.4206  2.2227
 2181TIP3   OH227957   1.506   4.574   1.080 -0.1506  0.3218 -0.5397
 2181TIP3    H127958   1.433   4.592   1.139 -0.4302  0.4972 -0.9452
 2181TIP3    H227959   1.570   4.643   1.100 -0.5786  0.8510 -1.0067
 2182TIP3   OH227960   6.495   0.647   6.703  0.3687 -0.5587 -0.2234
 2182TIP3    H127961   6.450   0.724   6.670  1.8951  0.0301 -0.9943
 2182TIP3    H227962   6.494   0.585   6.630  0.5680 -0.6389 -0.1597
 2183TIP3   OH227963   4.447   6.521   3.160 -0.3805  0.4778  0.1415
 2183TIP3    H127964   4.511   6.568   3.106 -0.2052  2.1444  1.7517
 2183TIP3    H227965   4.479   6.531   3.249 -0.3943 -2.7074  0.5420
 2184TIP3   OH227966   4.956   6.584  15.834 -0.6390  0.5105 -0.1416
 2184TIP3    H127967   4.932   6.543  15.918 -2.5462  0.0499 -0.8868
 2184TIP3    H227968   4.954   6.678  15.852 -0.9830  0.4129  0.3439
 2185TIP3   OH227969   5.942   2.535   4.129  0.7471 -0.3042  0.4010
 2185TIP3    H127970   5.981   2.581   4.203  1.8399 -0.3125 -0.1498
 2185TIP3    H227971   6.014   2.483   4.093  0.1554 -0.5151 -0.4980
 2186TIP3   OH227972   6.619   1.594  16.834  0.3354  0.1108  0.3281
 2186TIP3    H127973   6.567   1.515  16.852 -2.8417  1.7656 -1.1067
 2186TIP3    H227974   6.615   1.603  16.739  2.0556  1.1323  0.3447
 2187TIP3   OH227975   4.748   5.336   1.264  0.6982  0.0994  0.2728
 2187TIP3    H127976   4.654   5.348   1.275  0.1955 -0.7661 -2.7386
 2187TIP3    H227977   4.784   5.425   1.266 -1.1621  1.2448 -6.2463
 2188TIP3   OH227978   0.744   2.931  14.458 -0.7490  0.4994  0.1190
 2188TIP3    H127979   0.779   2.948  14.545 -1.0375 -0.4784  0.4323
 2188TIP3    H227980   0.649   2.923  14.471 -0.7454 -0.1400 -0.1985
 2189TIP3   OH227981   0.399   0.539   4.794  0.1147 -0.9936 -0.4845
 2189TIP3    H127982   0.447   0.499   4.866 -0.2949 -2.1192 -0.8151
 2189TIP3    H227983   0.465   0.583   4.741  0.5844 -1.2666 -0.1215
 2190TIP3   OH227984   4.996   5.213  12.353  0.4882  0.5224 -0.4104
 2190TIP3    H127985   5.089   5.216  12.373  1.1374 -1.2181 -3.0195
 2190TIP3    H227986   4.990   5.227  12.259 -1.8671  0.3648 -0.3264
 2191TIP3   OH227987   1.723   5.930   3.133 -0.1767  0.0737  0.4701
 2191TIP3    H127988   1.669   5.931   3.212 -1.3409 -2.1873 -0.2551
 2191TIP3    H227989   1.672   5.979   3.068 -0.8895 -1.1251  0.1058
 2192TIP3   OH227990   3.062   5.708  12.979  0.0565  0.5305  0.4191
 2192TIP3    H127991   3.069   5.621  12.940  0.1947  0.9643 -0.5218
 2192TIP3    H227992   3.087   5.695  13.071  2.3438 -0.0056 -0.2536
 2193TIP3   OH227993   1.461   4.037   2.734  0.3035 -0.1356 -0.2732
 2193TIP3    H127994   1.409   4.099   2.684  1.1572 -0.0782 -1.1123
 2193TIP3    H227995   1.420   3.952   2.718 -0.0116  0.0220 -0.2877
 2194TIP3   OH227996   6.345   2.708  13.669 -0.2752 -0.0652 -0.1506
 2194TIP3    H127997   6.355   2.753  13.753  0.9469  0.2024 -0.4306
 2194TIP3    H227998   6.434   2.694  13.639 -0.7207  0.3532 -1.6800
 2195TIP3   OH227999   6.483   4.918   4.992  0.2408  0.1335 -0.0518
 2195TIP3    H128000   6.401   4.872   4.971 -0.5952  1.1575  0.8953
 2195TIP3    H228001   6.526   4.862   5.057 -0.4971  0.3805  0.6628
 2196TIP3   OH228002   6.026   3.099   2.564 -0.0992 -0.1491  0.1275
 2196TIP3    H128003   5.977   3.070   2.641  1.2912  0.8137  1.4154
 2196TIP3    H228004   6.005   3.192   2.555  1.0178  0.1373  0.3511
 2197TIP3   OH228005   3.912   3.625   3.366  0.7863  0.5973 -0.0102
 2197TIP3    H128006   3.895   3.572   3.444  2.4446  1.8327  1.2247
 2197TIP3    H228007   3.825   3.652   3.337 -0.1958 -3.2761 -1.0824
 2198TIP3   OH228008   1.657   2.574   2.026 -0.1425  0.1522 -0.2407
 2198TIP3    H128009   1.657   2.663   2.061 -0.4677 -0.0230  0.2140
 2198TIP3    H228010   1.674   2.518   2.102  1.5833 -0.0861 -0.7806
 2199TIP3   OH228011   0.311   6.572  16.817 -0.4349 -0.1383  0.2244
 2199TIP3    H128012   0.352   6.489  16.793  0.1292 -0.4684  2.1954
 2199TIP3    H228013   0.305   6.621  16.736  1.0859 -1.3099 -0.6103
 2200TIP3   OH228014   6.376   3.901   3.697  0.0248 -0.2957  0.0414
 2200TIP3    H128015   6.401   3.890   3.606  0.8310 -0.0313  0.2281
 2200TIP3    H228016   6.281   3.915   3.695 -0.1865 -1.8099 -0.6248
 2201TIP3   OH228017   5.856   4.610  15.449  0.0830 -0.2390 -0.3236
 2201TIP3    H128018   5.823   4.555  15.520  0.3880  0.2941  0.2341
 2201TIP3    H228019   5.945   4.633  15.475 -0.0623  0.5778 -0.5179
 2202TIP3   OH228020   1.713   3.202   2.667 -0.2829 -0.3553  0.2740
 2202TIP3    H128021   1.784   3.217   2.730 -1.9050  3.1346  1.3900
 2202TIP3    H228022   1.657   3.137   2.709  1.1537 -1.5955  0.2923
 2203TIP3   OH228023   0.412   0.749   4.152  0.5503  0.0872 -0.7507
 2203TIP3    H128024   0.452   0.683   4.095 -0.5065 -2.1184  0.9890
 2203TIP3    H228025   0.472   0.755   4.227 -1.0710 -1.4474  0.7058
 2204TIP3   OH228026   0.449   2.370  15.570 -0.7559  0.7499 -0.6780
 2204TIP3    H128027   0.383   2.375  15.638 -0.0500  0.6506  0.0245
 2204TIP3    H228028   0.400   2.357  15.489 -1.6875  2.4382 -0.3961
 2205TIP3   OH228029   4.117   2.410  16.219  0.0785  0.5655 -0.1363
 2205TIP3    H128030   4.078   2.365  16.294  1.0425  0.5084  0.3451
 2205TIP3    H228031   4.086   2.361  16.143 -0.2112  0.0972  0.2827
 2206TIP3   OH228032   0.393   3.624  12.986  0.2385 -0.0195  0.5114
 2206TIP3    H128033   0.409   3.619  12.892  0.8788  0.2299  0.5988
 2206TIP3    H228034   0.348   3.707  12.998 -0.3202 -0.3015  0.3639
 2207TIP3   OH228035   4.599   3.708  14.050  0.2834  0.1883  0.3030
 2207TIP3    H128036   4.556   3.627  14.079  1.7671 -0.9757 -0.6580
 2207TIP3    H228037   4.535   3.777  14.068 -1.5669 -1.3632 -0.1600
 2208TIP3   OH228038   4.408   4.327  13.011 -0.4537 -0.3928  0.1838
 2208TIP3    H128039   4.492   4.346  13.053 -0.7577  1.6064 -0.0707
 2208TIP3    H228040   4.402   4.231  13.012 -0.3799 -0.4503  4.5163
 2209TIP3   OH228041   5.280   3.960   6.286  0.0257  0.1289 -0.1970
 2209TIP3    H128042   5.259   4.001   6.370  1.1553  0.9929 -0.3160
 2209TIP3    H228043   5.203   3.908   6.264 -1.3402  1.9963  0.0808
 2210TIP3   OH228044   4.899   2.103  13.003  0.0598 -0.4037 -0.1156
 2210TIP3    H128045   4.967   2.136  12.944 -1.1253  0.9414 -0.7523
 2210TIP3    H228046   4.910   2.008  13.000  3.9160 -0.1359  2.2138
 2211TIP3   OH228047   3.274   1.200   3.579  0.4620 -1.1896  0.0948
 2211TIP3    H128048   3.322   1.269   3.625 -0.1194 -2.0170  2.0088
 2211TIP3    H228049   3.267   1.231   3.489  0.0646  1.3206  0.9477
 2212TIP3   OH228050   5.703   5.091  12.873  0.3148 -0.4980  0.4862
 2212TIP3    H128051   5.719   5.027  12.805  1.6782 -1.4947  1.7234
 2212TIP3    H228052   5.739   5.052  12.952 -0.6425  0.9261  1.6562
 2213TIP3   OH228053   3.625   3.228   4.598  0.0967  0.5569 -0.2630
 2213TIP3    H128054   3.692   3.225   4.530  0.1609  0.1230 -0.1828
 2213TIP3    H228055   3.544   3.201   4.553  0.2989 -0.5496  0.0188
 2214TIP3   OH228056   3.857   1.635   5.756  0.2606  0.1658  0.3975
 2214TIP3    H128057   3.839   1.595   5.671  0.8407  0.9486 -0.1018
 2214TIP3    H228058   3.788   1.700   5.767 -0.5079 -0.7364  1.0771
 2215TIP3   OH228059   6.663   3.374   5.460 -0.4754  0.2353  0.3191
 2215TIP3    H128060   6.742   3.389   5.407 -1.2197  1.5675 -0.4449
 2215TIP3    H228061   6.651   3.456   5.508 -0.8976 -0.2789  1.0849
 2216TIP3   OH228062   2.186   2.923  10.369  0.2350 -0.3007  0.0262
 2216TIP3    H128063   2.275   2.957  10.369  0.2361 -0.2887  0.8578
 2216TIP3    H228064   2.177   2.877  10.453 -0.9572  0.8050  0.5217
 2217TIP3   OH228065   4.061   1.117  15.294  0.8197 -0.1346  0.0325
 2217TIP3    H128066   4.002   1.128  15.220  1.5062  0.9140 -0.3898
 2217TIP3    H228067   4.135   1.176  15.274  0.5096  1.0031  2.0628
 2218TIP3   OH228068   1.596   6.337   6.632  0.2628 -0.7674  0.4583
 2218TIP3    H128069   1.682   6.362   6.600  0.5685  0.9417  2.4983
 2218TIP3    H228070   1.602   6.243   6.648  1.9524 -0.5432  1.1883
 2219TIP3   OH228071   4.324   2.122  11.156  0.1431  0.1981 -0.3909
 2219TIP3    H128072   4.320   2.192  11.091  2.5936  0.5191 -0.2463
 2219TIP3    H228073   4.329   2.042  11.105 -0.8197  0.2566 -0.5744
 2220TIP3   OH228074   2.199   5.932   3.366 -0.1430  0.2045  0.6538
 2220TIP3    H128075   2.150   6.013   3.352 -0.8442 -0.0413  1.6236
 2220TIP3    H228076   2.274   5.939   3.307 -0.8162  1.0330 -0.1214
 2221TIP3   OH228077   6.554   2.981   5.417 -0.3145  0.0861  0.4662
 2221TIP3    H128078   6.603   2.949   5.493  0.2042 -0.9347 -0.2736
 2221TIP3    H228079   6.611   3.047   5.378  0.3283 -0.8195 -0.1663
 2222TIP3   OH228080   5.105   2.652   0.901  0.0975 -0.0782 -0.0396
 2222TIP3    H128081   5.124   2.705   0.824 -0.2705 -1.0148 -0.7922
 2222TIP3    H228082   5.009   2.643   0.902  0.2615 -2.2279 -0.9700
 2223TIP3   OH228083   3.572   4.012  12.043  0.4685 -0.4057 -0.5602
 2223TIP3    H128084   3.606   3.946  12.103 -0.5230 -0.3406  0.0930
 2223TIP3    H228085   3.497   3.970  12.002  0.7051 -0.1872 -1.2203
 2224TIP3   OH228086   1.746   6.109   4.590 -0.1591  0.3135 -0.4192
 2224TIP3    H128087   1.808   6.161   4.640  0.3582 -2.0982  1.5541
 2224TIP3    H228088   1.799   6.062   4.525 -0.0968 -0.6615  0.3296
 2225TIP3   OH228089   6.774   2.072  12.975 -0.2509 -0.6101  0.3213
 2225TIP3    H128090   6.703   2.094  12.914  0.2737  0.5334  0.1127
 2225TIP3    H228091   6.818   1.997  12.934  0.3004  0.3527 -0.8842
 2226TIP3   OH228092   0.479   6.168  16.319 -0.1701  0.2004  0.4643
 2226TIP3    H128093   0.475   6.216  16.402 -0.8340  0.3050  0.3752
 2226TIP3    H228094   0.420   6.215  16.261  0.1341  0.0008 -0.0050
 2227TIP3   OH228095   0.832   3.377   3.608 -0.5672 -0.6276 -0.0832
 2227TIP3    H128096   0.799   3.328   3.684 -1.4039 -0.3682 -0.2778
 2227TIP3    H228097   0.806   3.324   3.532  0.0784 -0.7763 -0.2068
 2228TIP3   OH228098   3.362   1.485  13.583  0.5009 -0.6169 -0.2045
 2228TIP3    H128099   3.286   1.508  13.635  0.7381 -0.8358  0.2425
 2228TIP3    H228100   3.386   1.397  13.612  0.8289 -0.6132 -0.4505
 2229TIP3   OH228101   4.122   2.510   3.664  0.1316 -0.0690 -0.1135
 2229TIP3    H128102   4.073   2.495   3.745  2.3121 -0.5746  1.1440
 2229TIP3    H228103   4.198   2.453   3.670 -0.2566 -0.9970 -3.0855
 2230TIP3   OH228104   3.998   3.427  14.256  0.0560  0.3992  0.2389
 2230TIP3    H128105   4.052   3.468  14.323 -1.6469  0.2768  1.7288
 2230TIP3    H228106   4.005   3.333  14.273 -0.0657  0.3437 -0.0077
 2231TIP3   OH228107   1.766   4.868  15.628 -0.1906  0.2500  1.0301
 2231TIP3    H128108   1.832   4.932  15.653  0.3976 -0.1418  0.4870
 2231TIP3    H228109   1.759   4.810  15.704  0.9128 -0.3783  0.6723
 2232TIP3   OH228110   4.728   0.596  14.666 -0.5345  0.2315 -0.2819
 2232TIP3    H128111   4.670   0.671  14.683 -0.5456 -0.0584  1.0060
 2232TIP3    H228112   4.814   0.624  14.697 -0.5371 -0.2843  0.1971
 2233TIP3   OH228113   0.180   2.893  11.494  0.1830 -0.3649  0.3126
 2233TIP3    H128114   0.093   2.932  11.495  0.4069  0.1505 -0.3732
 2233TIP3    H228115   0.173   2.820  11.432  0.1912 -0.4381  0.3980
 2234TIP3   OH228116   5.186   2.610   4.101 -0.4446  0.2224 -0.2561
 2234TIP3    H128117   5.241   2.566   4.035 -1.0658 -2.1802  0.7875
 2234TIP3    H228118   5.127   2.542   4.132  0.2465  1.1447  3.2483
 2235TIP3   OH228119   6.502   5.753  12.297 -0.1540  0.1898 -0.4351
 2235TIP3    H128120   6.459   5.679  12.341  0.1573  0.2700  0.0101
 2235TIP3    H228121   6.595   5.730  12.296 -0.1200  0.3385 -0.7627
 2236TIP3   OH228122   5.677   3.334   6.862 -0.4892  0.2196  0.6387
 2236TIP3    H128123   5.706   3.370   6.778  0.0137  1.4197  1.3074
 2236TIP3    H228124   5.676   3.240   6.848  1.8575  0.2515 -0.0303
 2237TIP3   OH228125   3.980   4.485  17.141  0.1095 -0.2461  0.5006
 2237TIP3    H128126   4.000   4.565  17.189  0.6229 -0.4018  0.5501
 2237TIP3    H228127   4.031   4.417  17.185  0.0811 -0.5073  0.1375
 2238TIP3   OH228128   3.627   5.480  16.910  0.3760  0.7313  0.3567
 2238TIP3    H128129   3.663   5.408  16.962 -1.3070  0.8862  1.7732
 2238TIP3    H228130   3.533   5.464  16.908  0.1592  2.0272 -0.6659
 2239TIP3   OH228131   1.488   1.267   0.917  0.8042  0.0864 -0.1531
 2239TIP3    H128132   1.578   1.250   0.892  1.4649  3.7946 -0.7023
 2239TIP3    H228133   1.492   1.288   1.011  0.2099 -1.6125  0.2615
 2240TIP3   OH228134   4.686   2.422  14.662  0.3208 -1.0539  0.5696
 2240TIP3    H128135   4.687   2.477  14.740 -0.3711 -0.5894  0.2587
 2240TIP3    H228136   4.758   2.361  14.675  2.4194  1.2458 -0.0173
 2241TIP3   OH228137   1.302   2.799  13.161 -0.0353 -0.2073 -0.1980
 2241TIP3    H128138   1.387   2.803  13.116 -0.1747 -0.4459 -0.4815
 2241TIP3    H228139   1.253   2.732  13.113 -0.6590  0.4682 -0.5048
 2242TIP3   OH228140   4.458   0.215  16.414 -0.0112  0.1897  0.3679
 2242TIP3    H128141   4.449   0.266  16.333 -0.8884 -0.8471 -0.2039
 2242TIP3    H228142   4.373   0.172  16.424  0.8842 -1.5734  0.5534
 2243TIP3   OH228143   2.218   5.374   1.716  0.0902 -0.3956  0.1099
 2243TIP3    H128144   2.152   5.383   1.646 -0.5961  1.5892  0.9714
 2243TIP3    H228145   2.181   5.423   1.790  0.2464 -3.4919  2.3112
 2244TIP3   OH228146   2.265   4.166   0.049 -0.6886  0.0674 -0.3758
 2244TIP3    H128147   2.328   4.210   0.107  0.0829 -0.6798 -0.6431
 2244TIP3    H228148   2.305   4.171  -0.038 -0.9818 -0.4398 -0.5399
 2245TIP3   OH228149   3.689   5.272   5.711 -0.3095  0.4459 -0.2888
 2245TIP3    H128150   3.718   5.281   5.801  0.9310 -0.5536 -0.5831
 2245TIP3    H228151   3.625   5.200   5.713 -0.3120  0.4512 -0.2026
 2246TIP3   OH228152   3.722   1.080   3.361  0.2718 -0.2180  0.4928
 2246TIP3    H128153   3.694   1.024   3.289  1.4771 -1.6133  1.0839
 2246TIP3    H228154   3.742   1.164   3.320  0.1281 -0.7434 -0.6748
 2247TIP3   OH228155   3.044   3.270  17.033 -0.3324 -0.0998 -0.2593
 2247TIP3    H128156   3.021   3.181  17.057  1.8309 -1.0449 -1.5483
 2247TIP3    H228157   3.022   3.276  16.940  3.3667 -0.6883 -1.2593
 2248TIP3   OH228158   6.295   2.757   1.766 -0.0828  0.0624 -0.0995
 2248TIP3    H128159   6.248   2.836   1.740  0.5553  0.4800 -0.0063
 2248TIP3    H228160   6.226   2.695   1.789 -0.6004  0.4435 -0.5935
 2249TIP3   OH228161   3.187   3.642   4.559 -0.1081 -0.2746  0.7580
 2249TIP3    H128162   3.198   3.558   4.604 -0.0689 -0.2509  0.7926
 2249TIP3    H228163   3.276   3.670   4.538 -0.0086  0.5824  2.2723
 2250TIP3   OH228164   0.122   1.875   3.058 -0.0546  0.1839  0.4061
 2250TIP3    H128165   0.155   1.913   2.977  0.9519  1.4522  1.3921
 2250TIP3    H228166   0.062   1.806   3.029 -0.9008  1.6355 -1.4004
 2251TIP3   OH228167   1.644   3.970  12.235  0.2072  0.1715  0.2794
 2251TIP3    H128168   1.634   3.874  12.238  0.6928  0.1252  0.4809
 2251TIP3    H228169   1.710   3.989  12.302  0.4460  0.6010 -0.0761
 2252TIP3   OH228170   5.723   3.150  13.472  0.1611  0.1597 -0.3561
 2252TIP3    H128171   5.773   3.225  13.439  0.0967  0.0776 -0.6477
 2252TIP3    H228172   5.677   3.184  13.549  1.8317 -0.1730  0.8086
 2253TIP3   OH228173   3.925   3.862   0.523 -0.9238  0.4494 -0.1908
 2253TIP3    H128174   3.933   3.916   0.444 -1.4377  0.9634  0.0991
 2253TIP3    H228175   3.831   3.860   0.540 -0.6860  1.8840  1.4534
 2254TIP3   OH228176   0.991   2.681   4.250  0.2685  0.1979  0.4213
 2254TIP3    H128177   0.906   2.644   4.227  1.4703 -2.0231 -0.5894
 2254TIP3    H228178   0.998   2.759   4.194  0.1760 -1.3073 -1.7784
 2255TIP3   OH228179   3.373   3.870  12.753 -0.0618 -0.2254 -0.1168
 2255TIP3    H128180   3.320   3.874  12.673 -2.3526  2.4384  1.4233
 2255TIP3    H228181   3.341   3.792  12.799 -0.0241 -0.7378 -0.9644
 2256TIP3   OH228182   6.715   3.945   3.057 -0.0880 -0.2255  0.4564
 2256TIP3    H128183   6.798   3.993   3.061 -0.9137  1.3538 -0.5455
 2256TIP3    H228184   6.720   3.897   2.974 -0.3357  0.1989  0.1925
 2257TIP3   OH228185   4.959   5.866  11.369  0.0517 -0.4808  0.7968
 2257TIP3    H128186   5.027   5.804  11.395  0.1259 -0.1514  1.3821
 2257TIP3    H228187   5.004   5.950  11.362 -0.3958 -0.1510  1.7340
 2258TIP3   OH228188   2.985   2.281   1.906 -0.5377  0.9182 -0.1965
 2258TIP3    H128189   2.953   2.262   1.817 -0.4930 -0.6457  0.0987
 2258TIP3    H228190   3.080   2.273   1.899 -0.5958 -0.2832  0.2128
 2259TIP3   OH228191   4.935   2.957   1.219 -0.2867  0.4177 -0.2560
 2259TIP3    H128192   4.928   2.864   1.240  1.5110  0.8508  2.6007
 2259TIP3    H228193   4.861   2.997   1.265 -1.0539  0.4076 -1.4753
 2260TIP3   OH228194   3.014   6.208  12.848  0.2103 -0.2169  0.1525
 2260TIP3    H128195   3.030   6.198  12.941 -0.2191  2.9724  0.6256
 2260TIP3    H228196   3.094   6.249  12.814 -0.8317  1.4766 -0.2949
 2261TIP3   OH228197   1.621   1.395  14.046 -0.6792 -0.5366 -0.3324
 2261TIP3    H128198   1.714   1.377  14.033 -1.2030 -1.3387 -3.3797
 2261TIP3    H228199   1.589   1.322  14.100  0.2681 -0.7311 -0.0309
 2262TIP3   OH228200   1.951   4.566   5.230 -1.1398  0.2937 -0.5072
 2262TIP3    H128201   1.924   4.537   5.317 -2.1671  0.4219 -0.7775
 2262TIP3    H228202   1.872   4.557   5.176 -0.2320 -0.8157 -1.6812
 2263TIP3   OH228203   5.978   2.204  11.846 -0.1689  0.6276  0.4338
 2263TIP3    H128204   5.921   2.133  11.819  1.6479 -0.8481  0.3920
 2263TIP3    H228205   5.967   2.271  11.779  0.1827 -0.7655 -1.0372
 2264TIP3   OH228206   3.661   3.271   2.986 -0.2100  0.0735 -0.0444
 2264TIP3    H128207   3.606   3.348   2.971  0.4956  0.7932  0.9808
 2264TIP3    H228208   3.743   3.307   3.019 -0.6134 -1.2186  2.4770
 2265TIP3   OH228209   0.818   0.473   4.691  0.1171 -0.1679 -0.3704
 2265TIP3    H128210   0.882   0.466   4.619  0.5353  1.2544 -0.1556
 2265TIP3    H228211   0.855   0.420   4.761  0.3143 -0.5783 -0.7828
 2266TIP3   OH228212   4.205   4.000   1.260 -0.2585  0.6282  0.0695
 2266TIP3    H128213   4.216   3.936   1.330 -0.6444 -1.3051 -1.5640
 2266TIP3    H228214   4.113   4.026   1.265 -0.6987 -0.7230 -0.6934
 2267TIP3   OH228215   3.604   6.206  13.785  0.4297  0.1718 -0.1644
 2267TIP3    H128216   3.689   6.166  13.767  0.0489 -0.8842  0.3990
 2267TIP3    H228217   3.543   6.133  13.791 -0.5494  0.9368 -0.6964
 2268TIP3   OH228218   3.977   0.382   3.874 -0.4817 -0.2701  0.5392
 2268TIP3    H128219   3.993   0.293   3.841  1.3609  0.4767 -0.6753
 2268TIP3    H228220   3.993   0.375   3.969  0.9374 -0.9726  0.2668
 2269TIP3   OH228221   5.370   4.622   2.735  0.1647 -0.0939 -0.4104
 2269TIP3    H128222   5.463   4.623   2.755  0.3054 -0.7745 -0.9900
 2269TIP3    H228223   5.366   4.604   2.641 -0.5470  0.1668 -0.4374
 2270TIP3   OH228224   2.122   0.278   1.740 -0.1361 -0.6869  0.1886
 2270TIP3    H128225   2.191   0.301   1.803 -0.2201 -1.8223  0.6921
 2270TIP3    H228226   2.091   0.363   1.708  0.4884 -0.1238  1.0410
 2271TIP3   OH228227   2.302   0.512  12.834  0.2705  0.1919 -0.1801
 2271TIP3    H128228   2.231   0.552  12.885 -0.3784 -0.3579 -0.6294
 2271TIP3    H228229   2.257   0.470  12.760  1.1767  0.7527 -1.0574
 2272TIP3   OH228230   3.341   5.904   4.744  0.0770  0.2070 -0.1452
 2272TIP3    H128231   3.281   5.907   4.819 -1.1709 -0.1974 -1.1115
 2272TIP3    H228232   3.336   5.814   4.714  1.2948  0.1392 -0.1529
 2273TIP3   OH228233   6.182   2.464  15.362  0.3433 -0.2972  0.4910
 2273TIP3    H128234   6.147   2.493  15.446 -1.3314 -1.6731  0.3062
 2273TIP3    H228235   6.107   2.463  15.303  1.4870  0.5953 -1.0230
 2274TIP3   OH228236   1.965   5.536  17.125 -0.2843  0.0084 -0.3076
 2274TIP3    H128237   1.894   5.599  17.138 -1.2366 -0.9020 -0.9628
 2274TIP3    H228238   1.936   5.482  17.052 -0.0811 -2.0019  1.0608
 2275TIP3   OH228239   2.743   6.522  13.448  0.7710  0.1069  0.1226
 2275TIP3    H128240   2.660   6.474  13.452 -0.1019  1.6211  0.7637
 2275TIP3    H228241   2.764   6.542  13.539  1.2108  0.7766 -0.1201
 2276TIP3   OH228242   3.686   4.103  15.702 -0.1172  0.5857  0.0321
 2276TIP3    H128243   3.762   4.156  15.678 -1.2772  1.9285 -0.7905
 2276TIP3    H228244   3.657   4.140  15.786 -0.4630  0.7324 -0.1530
 2277TIP3   OH228245   2.035   6.745   1.684  0.1462 -0.3951  0.1964
 2277TIP3    H128246   2.025   6.686   1.610  0.2416  0.9047 -0.8698
 2277TIP3    H228247   2.116   6.792   1.666 -0.5324  0.8802  0.4487
 2278TIP3   OH228248   1.787   0.969  16.497  0.3536  0.0165 -0.1572
 2278TIP3    H128249   1.767   1.061  16.512 -2.0515 -0.9391  2.9720
 2278TIP3    H228250   1.835   0.968  16.414 -0.0602  3.9861 -0.5258
 2279TIP3   OH228251   5.266   5.732  10.823  0.1022  0.1287  0.1760
 2279TIP3    H128252   5.265   5.777  10.739  0.5541 -0.2819 -0.0535
 2279TIP3    H228253   5.237   5.797  10.886  1.2924  0.9040 -0.0693
 2280TIP3   OH228254   3.508   5.587  15.806  0.2576  0.0979  0.0835
 2280TIP3    H128255   3.449   5.611  15.735  0.3111  0.4464  0.1551
 2280TIP3    H228256   3.466   5.621  15.885 -1.8839 -3.8999  0.7510
 2281TIP3   OH228257   3.925   5.763  14.074 -0.0830 -0.3852  0.0938
 2281TIP3    H128258   3.963   5.697  14.018 -0.4369 -0.7393  0.2686
 2281TIP3    H228259   3.999   5.816  14.103  0.1233 -0.3258 -0.5412
 2282TIP3   OH228260   6.229   2.190   1.366  0.3718 -0.4416  0.3053
 2282TIP3    H128261   6.138   2.220   1.365  1.4270  3.1247  2.0068
 2282TIP3    H228262   6.238   2.140   1.447  0.0462 -0.3617  0.3886
 2283TIP3   OH228263   3.849   0.289  11.061  0.1913 -0.4298  0.4424
 2283TIP3    H128264   3.789   0.357  11.091 -1.0366 -0.8527 -1.0011
 2283TIP3    H228265   3.793   0.214  11.042  1.1161 -0.7188 -1.2668
 2284TIP3   OH228266   2.114   3.900  13.484  0.5878 -0.2309  0.0373
 2284TIP3    H128267   2.141   3.823  13.434 -0.4205 -1.2602  1.0444
 2284TIP3    H228268   2.025   3.918  13.454  1.4220  1.6104 -1.4376
 2285TIP3   OH228269   3.139   1.729  15.186  0.6042  0.0531 -0.2165
 2285TIP3    H128270   3.059   1.768  15.221 -0.1360 -0.7193 -1.0277
 2285TIP3    H228271   3.198   1.803  15.172  0.3701  0.5307  1.2340
 2286TIP3   OH228272   4.504   3.858   0.008  0.6137 -0.0578  0.4387
 2286TIP3    H128273   4.529   3.886   0.096 -1.0310  1.4468  0.4564
 2286TIP3    H228274   4.580   3.878  -0.046  0.1796  2.8450  0.8046
 2287TIP3   OH228275   3.237   2.826  14.558  0.4211 -0.4028  0.5465
 2287TIP3    H128276   3.324   2.791  14.543  0.1256 -0.4748 -1.1079
 2287TIP3    H228277   3.239   2.914  14.520 -0.3609 -0.5772  0.0830
 2288TIP3   OH228278   0.110   0.706  11.627  0.0081  0.7669  0.7125
 2288TIP3    H128279   0.201   0.738  11.635  0.9095 -1.0061 -1.8590
 2288TIP3    H228280   0.091   0.666  11.711  2.2562 -0.3536  0.7192
 2289TIP3   OH228281   1.748   6.569   1.264  0.0545  0.2099 -0.7859
 2289TIP3    H128282   1.669   6.534   1.222 -0.0232 -0.4182 -0.1312
 2289TIP3    H228283   1.717   6.638   1.322 -0.1414 -0.7485  0.2698
 2290TIP3   OH228284   2.654   5.625  10.122  0.7464 -0.3062  0.1421
 2290TIP3    H128285   2.629   5.627  10.215 -2.2284  1.7279 -0.6417
 2290TIP3    H228286   2.644   5.533  10.097  0.4258 -0.6683  1.5498
 2291TIP3   OH228287   1.601   2.706  14.354 -0.3845  0.1652  0.1815
 2291TIP3    H128288   1.677   2.763  14.346 -0.7346  0.6428  0.2042
 2291TIP3    H228289   1.526   2.767  14.356 -0.7777 -0.3133 -0.1032
 2292TIP3   OH228290   0.662   2.516  11.037  0.1018  0.9652 -0.2326
 2292TIP3    H128291   0.631   2.593  11.086  1.3295  1.9970 -1.0425
 2292TIP3    H228292   0.701   2.460  11.104 -0.2783  1.3104  0.2853
 2293TIP3   OH228293   3.127   1.922   4.986 -0.1712  0.2125  0.1551
 2293TIP3    H128294   3.202   1.863   4.976  0.7000  1.4618 -0.9053
 2293TIP3    H228295   3.055   1.878   4.940 -0.0994 -0.9894  1.1681
 2294TIP3   OH228296   4.415   2.847  14.791  0.0923  0.5861 -0.2224
 2294TIP3    H128297   4.484   2.913  14.786 -0.7572  1.5316  0.5307
 2294TIP3    H228298   4.397   2.839  14.885  0.4490 -0.9952 -0.2671
 2295TIP3   OH228299   5.480   3.452   4.463 -0.1486 -1.0534  0.3933
 2295TIP3    H128300   5.568   3.430   4.492 -0.1307 -1.0840  0.3155
 2295TIP3    H228301   5.475   3.420   4.373  0.0917 -0.1548  0.0586
 2296TIP3   OH228302   5.634   2.250   3.540 -0.1181 -0.0063 -0.7271
 2296TIP3    H128303   5.672   2.299   3.467 -2.1276  1.3480 -0.9140
 2296TIP3    H228304   5.556   2.301   3.564 -0.6475 -1.5890  0.9698
 2297TIP3   OH228305   1.160   1.213  12.562  0.5172  0.0487  0.2649
 2297TIP3    H128306   1.172   1.295  12.515 -0.1030 -0.7090 -1.2342
 2297TIP3    H228307   1.166   1.237  12.655  0.3101  1.7772 -0.1684
 2298TIP3   OH228308   6.606   3.746  15.280 -0.5617  0.2874  0.0524
 2298TIP3    H128309   6.700   3.749  15.295 -0.7032 -0.4691  1.1491
 2298TIP3    H228310   6.568   3.779  15.362 -1.2156  2.5581 -1.1171
 2299TIP3   OH228311   2.089   5.170  11.228 -0.2113 -0.2129 -0.0282
 2299TIP3    H128312   2.106   5.193  11.319  0.7892 -1.0270 -0.0060
 2299TIP3    H228313   2.142   5.232  11.178 -0.7872  0.2562 -0.0648
 2300TIP3   OH228314   5.056   3.465   1.531  0.1535 -0.5946 -0.2027
 2300TIP3    H128315   5.067   3.546   1.581 -2.5306 -0.9285  1.0049
 2300TIP3    H228316   5.138   3.456   1.483  0.2813  3.1903 -0.9033
 2301TIP3   OH228317   3.195   2.384   4.857  0.2234  0.1027 -0.0135
 2301TIP3    H128318   3.132   2.329   4.903 -0.2415  0.9334  0.3613
 2301TIP3    H228319   3.267   2.326   4.835 -1.5717 -1.3688 -2.2932
 2302TIP3   OH228320   5.705   2.816   5.563 -0.5785  0.6099  0.8925
 2302TIP3    H128321   5.668   2.809   5.475 -0.7221  0.1715  0.9832
 2302TIP3    H228322   5.799   2.800   5.551 -0.9986 -2.5417  1.1953
 2303TIP3   OH228323   2.836   0.533  12.164  0.3068  0.0695  0.5410
 2303TIP3    H128324   2.823   0.579  12.247  0.3086  3.3277 -1.1770
 2303TIP3    H228325   2.748   0.524  12.127  0.2593 -1.7312  1.0381
 2304TIP3   OH228326   2.761   1.184   5.892 -0.3497  0.5787  0.2924
 2304TIP3    H128327   2.776   1.090   5.905 -1.5119  0.2713 -0.5509
 2304TIP3    H228328   2.705   1.210   5.964  0.9259  0.8901  1.1948
 2305TIP3   OH228329   4.276   4.381  13.324 -0.7085  0.1217 -0.3275
 2305TIP3    H128330   4.269   4.438  13.247  1.4999  0.1513 -0.5464
 2305TIP3    H228331   4.291   4.294  13.288  3.1943  0.5716  0.0287
 2306TIP3   OH228332   6.069   6.169   0.048 -0.4806 -0.7011  0.3165
 2306TIP3    H128333   6.013   6.154   0.124  0.6884 -2.0525  0.9336
 2306TIP3    H228334   6.158   6.160   0.081  0.0706 -0.1893 -0.9846
 2307TIP3   OH228335   0.531   0.765  12.550  0.0208  0.3588  0.2509
 2307TIP3    H128336   0.516   0.836  12.488 -0.7398  1.3823  1.5777
 2307TIP3    H228337   0.530   0.685  12.497 -0.3282  1.2362 -1.0736
 2308TIP3   OH228338   6.376   1.472  12.050  0.3990 -0.1765 -0.4898
 2308TIP3    H128339   6.383   1.523  12.130  0.5472  0.7346 -1.0835
 2308TIP3    H228340   6.467   1.455  12.024  0.3793  1.6298 -1.7952
 2309TIP3   OH228341   2.738   6.339   5.990 -0.3210 -0.9064 -0.4938
 2309TIP3    H128342   2.644   6.324   6.000 -0.8151  1.4329 -1.0976
 2309TIP3    H228343   2.763   6.391   6.067  0.1737 -0.3566 -1.0144
 2310TIP3   OH228344   4.094   0.220  16.050 -0.6605 -0.1197 -0.5870
 2310TIP3    H128345   4.031   0.290  16.066 -1.0827 -0.7383  0.5202
 2310TIP3    H228346   4.174   0.265  16.024 -1.0508  0.7579 -0.2899
 2311TIP3   OH228347   4.224   5.473   1.867  0.6336 -0.1546  0.0580
 2311TIP3    H128348   4.185   5.468   1.780 -0.9388 -1.4067  0.8105
 2311TIP3    H228349   4.196   5.393   1.911 -0.6958  1.5997  2.5526
 2312TIP3   OH228350   4.575   4.739   0.073  0.7446 -0.3067  0.2109
 2312TIP3    H128351   4.577   4.655   0.027  1.4633 -0.7820  1.1059
 2312TIP3    H228352   4.553   4.717   0.163 -1.5681  0.7156 -0.0790
 2313TIP3   OH228353   6.217   1.335   0.942 -0.2720 -0.7384 -0.4847
 2313TIP3    H128354   6.138   1.283   0.957 -1.0613  0.6506  0.2818
 2313TIP3    H228355   6.230   1.331   0.847 -1.1723 -1.1071 -0.6042
 2314TIP3   OH228356   1.241   3.153   0.812  0.1124  0.3254  0.8821
 2314TIP3    H128357   1.312   3.089   0.812 -0.5001 -0.3769 -0.2181
 2314TIP3    H228358   1.283   3.237   0.794  0.7241  0.0093  0.8269
 2315TIP3   OH228359   5.650   3.461  16.145 -0.9660 -0.2029 -0.0923
 2315TIP3    H128360   5.665   3.509  16.064 -0.0296 -0.2423  0.0465
 2315TIP3    H228361   5.573   3.407  16.127  0.3660 -1.6725 -1.6350
 2316TIP3   OH228362   0.937   2.847   4.679 -1.4871 -0.4823  0.4706
 2316TIP3    H128363   0.904   2.906   4.611 -2.2630 -1.0756  0.3281
 2316TIP3    H228364   0.965   2.905   4.750 -1.5940  0.0899  0.0457
 2317TIP3   OH228365   3.481   2.248  16.659  0.6615 -0.3934  0.6637
 2317TIP3    H128366   3.441   2.166  16.689  1.2893 -0.5878  0.9828
 2317TIP3    H228367   3.545   2.220  16.594 -0.7728  0.0335 -0.9613
 2318TIP3   OH228368   3.935   5.758   4.064  0.4109  0.3258  0.0254
 2318TIP3    H128369   3.932   5.844   4.104 -1.2115  0.3817 -0.1850
 2318TIP3    H228370   3.891   5.700   4.126  0.9877 -0.2497 -0.0905
 2319TIP3   OH228371   3.084   3.107   5.792  0.5608  0.0199 -0.3185
 2319TIP3    H128372   3.101   3.193   5.830  1.1035 -0.4435  0.4904
 2319TIP3    H228373   3.136   3.107   5.711 -1.3700  1.3769 -1.6000
 2320TIP3   OH228374   6.605   2.828  11.671 -0.1633 -0.2729 -0.6233
 2320TIP3    H128375   6.534   2.772  11.705 -2.1090  0.8072 -2.7730
 2320TIP3    H228376   6.636   2.782  11.593  0.8380 -0.2122 -0.2704
 2321TIP3   OH228377   5.131   5.156  11.791  0.7563  0.3500 -0.2166
 2321TIP3    H128378   5.126   5.064  11.815  0.2104  0.6978  1.0367
 2321TIP3    H228379   5.225   5.176  11.792  0.8884 -0.2404 -0.6979
 2322TIP3   OH228380   0.269   2.420   5.165  0.2141 -0.0442 -0.9058
 2322TIP3    H128381   0.284   2.331   5.132  0.9214 -0.1850 -0.2107
 2322TIP3    H228382   0.346   2.469   5.138 -0.1939  0.3791 -1.3233
 2323TIP3   OH228383   1.558   5.491   3.671  0.1732 -0.1082 -0.0497
 2323TIP3    H128384   1.568   5.398   3.692  0.9505 -0.1616 -0.6425
 2323TIP3    H228385   1.524   5.492   3.581 -0.0325  0.1813  0.0301
 2324TIP3   OH228386   2.112   2.620   3.260  0.5219 -0.1866 -0.2724
 2324TIP3    H128387   2.183   2.556   3.262  0.6051 -0.1266 -1.0481
 2324TIP3    H228388   2.129   2.672   3.182  0.9244  1.3201  0.7985
 2325TIP3   OH228389   1.227   6.584  15.645  0.6327  0.2503 -0.2191
 2325TIP3    H128390   1.176   6.526  15.702  0.4178 -0.1359 -0.7979
 2325TIP3    H228391   1.196   6.672  15.666 -0.3781  0.0061 -0.6733
 2326TIP3   OH228392   1.909   1.885   5.525  0.1709  0.2217 -0.5055
 2326TIP3    H128393   1.834   1.923   5.479 -0.4723 -1.3420 -0.7539
 2326TIP3    H228394   1.889   1.792   5.531  1.7757 -0.0969  0.0439
 2327TIP3   OH228395   4.393   1.722   5.564 -0.2700  0.1710  0.4739
 2327TIP3    H128396   4.301   1.748   5.563 -1.2583 -3.1325 -1.7276
 2327TIP3    H228397   4.399   1.658   5.635  0.5568  0.9711  1.1490
 2328TIP3   OH228398   1.509   1.411   1.867  0.3986  0.2112  0.5414
 2328TIP3    H128399   1.479   1.475   1.803  1.5684 -0.7179 -0.9837
 2328TIP3    H228400   1.437   1.348   1.874 -0.5659  1.4452  1.7060
 2329TIP3   OH228401   6.596   3.271  14.625 -0.2304 -0.0925  0.6701
 2329TIP3    H128402   6.617   3.192  14.675  0.1646  0.2090  0.9826
 2329TIP3    H228403   6.680   3.313  14.608 -0.3582 -0.2014 -0.2759
 2330TIP3   OH228404   4.710   0.038   0.656 -0.0213  0.1326  0.2333
 2330TIP3    H128405   4.649   0.055   0.584  0.6776 -3.1880 -1.2633
 2330TIP3    H228406   4.674  -0.040   0.699  2.7809 -1.5850 -0.3652
 2331TIP3   OH228407   3.777   2.176   2.685  0.0890  0.5556  0.5504
 2331TIP3    H128408   3.758   2.269   2.694  0.6126  0.6431  0.7921
 2331TIP3    H228409   3.756   2.156   2.593 -2.1341  0.4038  1.0779
 2332TIP3   OH228410   0.674   4.189   0.811  0.3521 -0.1173  0.0840
 2332TIP3    H128411   0.765   4.204   0.838  0.9034 -1.0379 -1.2080
 2332TIP3    H228412   0.668   4.229   0.724 -0.7394  0.7070  0.5214
 2333TIP3   OH228413   3.821   0.007  14.795  0.5119  0.3816 -0.3414
 2333TIP3    H128414   3.752   0.022  14.729  0.2860 -1.2874 -0.5280
 2333TIP3    H228415   3.777   0.019  14.879  0.0410 -0.4333 -0.4645
 2334TIP3   OH228416   6.006   3.425  17.107 -0.5450  0.0958  0.0216
 2334TIP3    H128417   6.069   3.404  17.175  0.0532 -0.8740 -0.8322
 2334TIP3    H228418   5.936   3.361  17.118  0.9597 -1.9869 -2.1472
 2335TIP3   OH228419   0.906   4.399  13.682  0.0547 -0.3259 -0.2615
 2335TIP3    H128420   0.952   4.316  13.673 -1.1648 -0.9534 -0.9499
 2335TIP3    H228421   0.928   4.431  13.769  0.6026 -1.3271 -0.0327
 2336TIP3   OH228422   5.806   1.012   1.614 -0.0211 -0.9192  0.2578
 2336TIP3    H128423   5.802   1.048   1.702 -1.0575 -0.1012 -0.1146
 2336TIP3    H228424   5.898   1.018   1.589 -0.3204  2.5387 -0.2146
 2337TIP3   OH228425   0.849   4.357  11.320  0.1810 -0.1087 -0.6880
 2337TIP3    H128426   0.889   4.388  11.239  0.8361  0.4357 -0.1559
 2337TIP3    H228427   0.827   4.266  11.303  2.0669 -0.5513 -0.8296
 2338TIP3   OH228428   3.932   0.703   3.936  0.4907 -0.3040  0.1361
 2338TIP3    H128429   4.013   0.726   3.983  1.3008  0.5369 -1.6346
 2338TIP3    H228430   3.948   0.731   3.846 -0.7719 -2.5505 -0.8081
 2339TIP3   OH228431   6.225   6.057   2.805 -0.4359  0.0300  0.0860
 2339TIP3    H128432   6.253   5.991   2.742  1.2085 -0.0044  0.8265
 2339TIP3    H228433   6.267   6.031   2.887  2.2777  3.2811 -0.1430
 2340TIP3   OH228434   1.402   3.488  11.907 -0.1357  0.3888 -0.0690
 2340TIP3    H128435   1.429   3.472  11.817  0.8227 -0.7896  0.4163
 2340TIP3    H228436   1.348   3.413  11.930  1.7382 -0.6296  1.1694
 2341TIP3   OH228437   1.516   3.993  15.268  0.2024 -0.0436 -0.1150
 2341TIP3    H128438   1.565   3.913  15.248 -0.3479 -0.6676  0.9974
 2341TIP3    H228439   1.536   4.052  15.196  0.7850 -1.1124 -0.8382
 2342TIP3   OH228440   4.787   5.738  15.012  0.5043 -0.4246 -0.1307
 2342TIP3    H128441   4.763   5.827  14.987  0.5659 -0.0383  1.1441
 2342TIP3    H228442   4.734   5.682  14.956 -1.5807  0.4095  0.9850
 2343TIP3   OH228443   1.533   0.686  14.235  0.2456  0.4516 -0.4121
 2343TIP3    H128444   1.477   0.612  14.259  0.9267 -0.2816 -1.0411
 2343TIP3    H228445   1.609   0.679  14.294  0.5007  0.4053 -0.7422
 2344TIP3   OH228446   2.368   0.709  15.101 -0.2507 -0.2828  0.2441
 2344TIP3    H128447   2.462   0.701  15.118 -0.2334 -2.2036 -0.5652
 2344TIP3    H228448   2.336   0.770  15.166  1.7372  1.1307 -0.0769
 2345TIP3   OH228449   6.421   3.382  15.567  0.4186 -0.1891 -0.5848
 2345TIP3    H128450   6.407   3.463  15.519 -0.9284  1.2765  2.1646
 2345TIP3    H228451   6.514   3.384  15.592 -0.2307  2.0109  1.9436
 2346TIP3   OH228452   5.416   6.506  16.946 -0.1026  0.2851 -0.2186
 2346TIP3    H128453   5.486   6.460  16.899  0.2536 -0.0109  0.6015
 2346TIP3    H228454   5.398   6.451  17.022 -2.3252 -0.4492 -1.2506
 2347TIP3   OH228455   1.942   0.391   3.563 -0.4543 -0.2463  0.6350
 2347TIP3    H128456   1.918   0.315   3.617  0.4293 -0.1692  1.1607
 2347TIP3    H228457   1.981   0.353   3.484 -1.6161 -0.3583  0.1090
 2348TIP3   OH228458   0.878   0.943  14.717 -0.2819 -0.2189  0.2176
 2348TIP3    H128459   0.910   1.000  14.647 -0.7495 -0.8827 -0.5388
 2348TIP3    H228460   0.953   0.887  14.739  0.0182  0.3295  0.5997
 2349TIP3   OH228461   0.745   3.630  15.115  0.0442  0.7552  0.0212
 2349TIP3    H128462   0.651   3.614  15.114  0.3102 -0.8522 -1.4023
 2349TIP3    H228463   0.758   3.706  15.059 -0.1989 -0.4148 -1.6580
 2350TIP3   OH228464   6.605   1.934   6.131  0.0074  0.3056  0.1809
 2350TIP3    H128465   6.686   1.982   6.113  0.5920 -0.7179  0.0283
 2350TIP3    H228466   6.537   2.001   6.131  0.6563  0.9871 -1.1316
 2351TIP3   OH228467   0.208   0.061  14.792  0.1543 -0.1984  0.0898
 2351TIP3    H128468   0.124   0.027  14.761  0.2591  0.3590 -0.8443
 2351TIP3    H228469   0.247   0.102  14.715  1.8679 -1.5660  0.1892
 2352TIP3   OH228470   3.186   1.804  15.688  0.1741  0.5238  0.3008
 2352TIP3    H128471   3.214   1.890  15.657  0.8514  0.6818  1.3328
 2352TIP3    H228472   3.093   1.814  15.707 -0.0651  0.6407 -0.9059
 2353TIP3   OH228473   2.636   1.662  16.589  0.3882  0.2525  0.3993
 2353TIP3    H128474   2.682   1.708  16.659  0.2493 -0.4940  0.9970
 2353TIP3    H228475   2.701   1.601  16.553  0.0881 -0.2987  0.7714
 2354TIP3   OH228476   6.511   6.668  15.020 -0.2422 -0.0048  0.0103
 2354TIP3    H128477   6.464   6.658  14.938 -0.3698 -0.6481  0.1591
 2354TIP3    H228478   6.571   6.593  15.023  1.0473  1.0010 -0.3525
 2355TIP3   OH228479   2.889   4.478  16.366  0.1947  0.2016  0.9557
 2355TIP3    H128480   2.975   4.515  16.388  0.7454 -0.1318 -0.5438
 2355TIP3    H228481   2.891   4.468  16.270 -1.5111  0.1608  0.9062
 2356TIP3   OH228482   0.936   4.628  15.308  0.1268 -0.0661  0.1472
 2356TIP3    H128483   0.997   4.625  15.235  0.5174  1.4803  0.3961
 2356TIP3    H228484   0.991   4.630  15.386 -0.2450  0.7025  0.3955
 2357TIP3   OH228485   6.760   1.008   1.249  0.7507 -0.6005 -0.0464
 2357TIP3    H128486   6.686   1.029   1.193  1.0862  2.2743  0.4733
 2357TIP3    H228487   6.837   1.022   1.194  0.9988 -0.5714  0.3032
 2358TIP3   OH228488   6.312   3.781  14.783 -0.1573 -0.1921  0.0187
 2358TIP3    H128489   6.331   3.782  14.876 -3.0681 -0.9701  0.6722
 2358TIP3    H228490   6.361   3.854  14.747  1.6339 -0.3847  2.0141
 2359TIP3   OH228491   4.520   3.558   5.528  0.1722 -0.2608 -0.4512
 2359TIP3    H128492   4.589   3.604   5.479  0.9581 -0.1353  0.7427
 2359TIP3    H228493   4.566   3.492   5.579 -0.7512 -1.0951 -0.6903
 2360TIP3   OH228494   4.833   2.017   4.749 -0.1454 -0.2823  0.2094
 2360TIP3    H128495   4.924   2.011   4.779  0.1573 -1.4342 -0.8700
 2360TIP3    H228496   4.820   2.110   4.733  1.0516 -0.1701 -0.2046
 2361TIP3   OH228497   2.113   0.914   3.789 -0.5581 -0.0100  0.0609
 2361TIP3    H128498   2.018   0.925   3.797 -0.3480  2.0147 -0.1407
 2361TIP3    H228499   2.145   0.999   3.760  1.4776 -0.3184  1.3349
 2362TIP3   OH228500   1.715   5.917  16.800  0.2595  0.1441 -0.1039
 2362TIP3    H128501   1.718   5.909  16.704  2.2146  0.4318 -0.0972
 2362TIP3    H228502   1.677   5.834  16.829  0.4738 -0.3124 -1.0888
 2363TIP3   OH228503   4.313   5.066   2.216  0.9067 -0.0860 -0.3427
 2363TIP3    H128504   4.384   5.007   2.242  1.4223  1.3574  1.6753
 2363TIP3    H228505   4.234   5.025   2.250  1.2087  0.1208  0.6292
 2364TIP3   OH228506   6.495   0.520  14.073  0.7096  0.3424  0.3637
 2364TIP3    H128507   6.525   0.446  14.020  0.8780  1.4138 -1.0784
 2364TIP3    H228508   6.459   0.582  14.009 -0.3003  1.0949  1.6444
 2365TIP3   OH228509   2.699   5.978  11.618  0.1149  0.2496 -0.0897
 2365TIP3    H128510   2.662   5.922  11.685  0.1050 -0.6230 -0.8097
 2365TIP3    H228511   2.786   6.000  11.651  1.2436 -2.5191 -1.0548
 2366TIP3   OH228512   1.505   1.024  16.292  0.1901  0.0571 -0.0751
 2366TIP3    H128513   1.482   1.102  16.342  0.9677  0.3318 -0.1350
 2366TIP3    H228514   1.482   0.951  16.349 -1.8566  0.2787 -0.5689
 2367TIP3   OH228515   6.494   1.395   3.185  0.3863 -0.0628 -0.3084
 2367TIP3    H128516   6.570   1.450   3.203 -0.6755  0.9298  1.2332
 2367TIP3    H228517   6.440   1.448   3.125 -0.6928  0.6726  1.2700
 2368TIP3   OH228518   0.420   0.701  11.503 -0.2140 -0.1984 -0.1190
 2368TIP3    H128519   0.491   0.644  11.474  0.1236  0.3282 -0.3389
 2368TIP3    H228520   0.363   0.644  11.555 -0.1210 -0.8374 -0.7097
 2369TIP3   OH228521   0.445   2.800   5.479  0.8157  0.2516 -0.0491
 2369TIP3    H128522   0.518   2.770   5.424  0.1965 -1.6868  0.1640
 2369TIP3    H228523   0.374   2.739   5.460  0.8458 -1.0394  3.5501
 2370TIP3   OH228524   3.967   4.245   6.215  0.2826  0.0154  0.0902
 2370TIP3    H128525   3.982   4.151   6.199 -0.2020  0.1826 -1.5112
 2370TIP3    H228526   4.054   4.281   6.229  0.7378 -0.2745 -1.7722
 2371TIP3   OH228527   6.014   6.450   0.366 -0.1864 -0.5064  0.4882
 2371TIP3    H128528   6.083   6.398   0.325  0.4543  0.6340  0.0812
 2371TIP3    H228529   6.015   6.423   0.458  0.6455 -0.6797  0.4316
 2372TIP3   OH228530   0.669   3.599   2.872  0.5775 -0.1781 -0.0543
 2372TIP3    H128531   0.628   3.518   2.841  0.2731 -0.0042 -0.1042
 2372TIP3    H228532   0.763   3.585   2.859  0.3667  0.4536 -2.4139
 2373TIP3   OH228533   2.011   2.323  15.986  0.0714 -0.3171 -0.3756
 2373TIP3    H128534   1.923   2.348  16.013 -0.0771 -1.2965  0.0970
 2373TIP3    H228535   2.068   2.355  16.056  0.1518  0.7531 -0.9234
 2374TIP3   OH228536   3.958   4.922   0.020  0.1084 -0.4654 -0.1171
 2374TIP3    H128537   3.875   4.877   0.008 -0.6335  1.2017 -1.4711
 2374TIP3    H228538   3.958   4.949   0.112  0.4168 -2.8501  0.6257
 2375TIP3   OH228539   0.315   4.488  13.543  0.0043 -0.2116  0.2063
 2375TIP3    H128540   0.231   4.466  13.582 -0.9580  1.1220 -1.0488
 2375TIP3    H228541   0.338   4.412  13.490 -1.6637  0.4209 -1.4641
 2376TIP3   OH228542   2.698   5.186  13.476 -0.0056  0.2790  0.1575
 2376TIP3    H128543   2.734   5.251  13.415 -0.1697 -0.7023 -0.9915
 2376TIP3    H228544   2.681   5.109  13.422 -1.7483 -0.0312  1.1141
 2377TIP3   OH228545   6.130   6.048  16.773  0.1947 -0.0378  0.1252
 2377TIP3    H128546   6.181   6.084  16.847 -0.1395 -0.3006  0.4835
 2377TIP3    H228547   6.118   6.123  16.715  0.8304  0.0754  0.1295
 2378TIP3   OH228548   2.194   0.073   0.910 -0.4382 -0.1790 -0.4154
 2378TIP3    H128549   2.154   0.101   0.992 -2.5987 -0.8243 -1.2333
 2378TIP3    H228550   2.287   0.061   0.932 -0.6672  1.3451  1.4868
 2379TIP3   OH228551   6.186   1.901  14.195  0.3974 -0.5778 -0.3893
 2379TIP3    H128552   6.189   1.984  14.242 -4.1760  0.3540 -1.4344
 2379TIP3    H228553   6.178   1.834  14.263  0.7005  0.1635  0.3664
 2380TIP3   OH228554   6.605   0.528  14.339  0.3802 -0.4415 -0.0682
 2380TIP3    H128555   6.556   0.524  14.421 -0.7038 -1.4158 -0.7338
 2380TIP3    H228556   6.549   0.481  14.276  1.4471 -0.1922 -1.2219
 2381TIP3   OH228557   3.872   0.136   0.585 -0.2102 -0.8334  0.2944
 2381TIP3    H128558   3.845   0.227   0.582  1.2713 -0.3932 -0.4465
 2381TIP3    H228559   3.791   0.086   0.589 -1.0156  0.5666  3.0310
 2382TIP3   OH228560   1.569   0.285   0.933 -0.0782  0.4603  0.0656
 2382TIP3    H128561   1.554   0.201   0.890 -0.9269  0.2898  0.6940
 2382TIP3    H228562   1.620   0.336   0.869 -0.3681 -0.1912 -0.6886
 2383TIP3   OH228563   0.383   0.970  11.831  0.4010 -0.0778  0.3220
 2383TIP3    H128564   0.412   0.986  11.921 -1.4315 -0.4820  1.0226
 2383TIP3    H228565   0.457   0.927  11.789  0.6982 -1.4300  2.1371
 2384TIP3   OH228566   4.930   1.441  15.185  0.3085 -0.7517  0.0464
 2384TIP3    H128567   4.953   1.383  15.112  1.7807  1.0292 -0.9288
 2384TIP3    H228568   5.010   1.446  15.238 -0.9651 -2.6397  2.2601
 2385TIP3   OH228569   1.876   1.748   5.936 -0.3842  0.4470 -0.5526
 2385TIP3    H128570   1.822   1.827   5.931  0.9108  1.5001  1.1502
 2385TIP3    H228571   1.858   1.713   6.024  1.8275  0.9648  0.1371
 2386TIP3   OH228572   5.646   1.543   4.765 -0.0805  0.6627 -0.1618
 2386TIP3    H128573   5.599   1.609   4.713 -3.0144 -0.7742  0.5441
 2386TIP3    H228574   5.709   1.505   4.704 -0.5751  1.9084 -1.4945
 2387TIP3   OH228575   6.628   4.812   5.479  0.5318  0.1454  0.0314
 2387TIP3    H128576   6.652   4.900   5.508 -2.0141  0.2044  2.1298
 2387TIP3    H228577   6.611   4.764   5.560 -0.4926 -1.5793 -1.1761
 2388TIP3   OH228578   1.900   5.163   0.981 -0.3635  0.0159 -0.0435
 2388TIP3    H128579   1.957   5.169   0.904 -0.4946  1.7913 -0.0155
 2388TIP3    H228580   1.869   5.073   0.980 -0.6539  0.1064 -2.2689
 2389TIP3   OH228581   3.035   5.463   1.702 -0.2022  0.7244  0.3307
 2389TIP3    H128582   3.109   5.441   1.757 -1.1779  1.4503  1.9677
 2389TIP3    H228583   3.025   5.387   1.644 -0.6164 -1.1212  2.7305
 2390TIP3   OH228584   2.227   3.561  10.704 -0.0814 -0.1780  0.3117
 2390TIP3    H128585   2.309   3.521  10.732 -0.3030 -1.8933 -1.3471
 2390TIP3    H228586   2.249   3.610  10.625 -0.5114 -0.1079  0.2319
 2391TIP3   OH228587   2.922   2.213   1.633 -0.0314  0.7331  0.2876
 2391TIP3    H128588   2.888   2.303   1.624 -0.0684  0.7759  0.8533
 2391TIP3    H228589   2.843   2.159   1.639 -0.0050  0.7890  1.1763
 2392TIP3   OH228590   1.232   5.813  15.709 -0.3467  0.5703  0.0734
 2392TIP3    H128591   1.265   5.814  15.619 -2.0726 -0.1778 -0.6094
 2392TIP3    H228592   1.172   5.888  15.713  1.3519  1.9094  1.2839
 2393TIP3   OH228593   4.471   2.674  11.925  0.6785  0.5017  0.4163
 2393TIP3    H128594   4.507   2.700  12.010 -0.5951 -0.7418  1.3629
 2393TIP3    H228595   4.423   2.593  11.943 -1.0710  1.1500 -1.1312
 2394TIP3   OH228596   6.670   2.884   5.658  0.4977  0.0635 -0.8436
 2394TIP3    H128597   6.657   2.959   5.717 -0.1403  0.4086 -1.4188
 2394TIP3    H228598   6.763   2.863   5.667  0.7563  1.1426 -0.9228
 2395TIP3   OH228599   3.593   4.692   1.284  0.4539  0.9679 -0.0393
 2395TIP3    H128600   3.580   4.624   1.350 -0.1135 -1.2309 -2.3355
 2395TIP3    H228601   3.513   4.744   1.287  1.2273  2.1079  2.3052
 2396TIP3   OH228602   5.853   0.344  11.949  0.4868  0.0969 -0.0160
 2396TIP3    H128603   5.770   0.354  11.903  0.6078 -0.2110 -0.3001
 2396TIP3    H228604   5.829   0.347  12.042 -0.4165 -4.0884  0.0044
 2397TIP3   OH228605   4.085   4.034  12.319  0.2879 -0.3555 -0.1285
 2397TIP3    H128606   4.159   4.004  12.373  1.2308  0.9159 -0.7057
 2397TIP3    H228607   4.123   4.050  12.233 -0.8787 -0.7009 -0.7145
 2398TIP3   OH228608   5.326   5.845   5.787  0.1862  0.5764 -0.0026
 2398TIP3    H128609   5.385   5.842   5.712 -1.1803  0.8167 -1.1198
 2398TIP3    H228610   5.307   5.753   5.806  0.7274  0.5070  0.2102
 2399TIP3   OH228611   6.226   4.192  16.546  0.4240  0.1366 -0.2366
 2399TIP3    H128612   6.178   4.126  16.597  0.4644  0.6907  0.5184
 2399TIP3    H228613   6.166   4.266  16.541  0.7188  0.3661 -0.3653
 2400TIP3   OH228614   4.140   4.221  15.617  0.5995  0.8228  0.0346
 2400TIP3    H128615   4.131   4.269  15.699  3.5698  0.8947  0.3891
 2400TIP3    H228616   4.052   4.218  15.580 -0.6303  1.4675  2.8451
 2401TIP3   OH228617   1.501   3.539  12.646  0.5872  0.4951  0.6508
 2401TIP3    H128618   1.457   3.621  12.622  1.4808  0.8199  0.0742
 2401TIP3    H228619   1.524   3.500  12.562 -1.3485 -1.2070  0.8745
 2402TIP3   OH228620   5.021   5.759   3.782 -0.5990 -0.0276 -1.0020
 2402TIP3    H128621   5.067   5.686   3.822 -0.5781  0.3918 -0.2533
 2402TIP3    H228622   5.085   5.798   3.721 -0.0359  0.4092 -0.1402
 2403TIP3   OH228623   0.928   4.432   2.701 -0.1740  0.5997  0.0566
 2403TIP3    H128624   0.833   4.437   2.692 -0.2602  1.4529  1.2946
 2403TIP3    H228625   0.946   4.472   2.787  1.4869  2.7234 -1.2191
 2404TIP3   OH228626   4.042   3.512  14.677  0.0444 -0.3870 -0.0799
 2404TIP3    H128627   4.106   3.533  14.610 -0.9778 -0.2702 -1.0437
 2404TIP3    H228628   4.089   3.522  14.760  0.3969  2.9286 -0.6106
 2405TIP3   OH228629   4.771   1.323   4.113 -0.1720 -0.4841  0.3559
 2405TIP3    H128630   4.755   1.294   4.024  3.0099 -1.2442  0.0022
 2405TIP3    H228631   4.731   1.411   4.117  0.3866 -0.1100 -2.0373
 2406TIP3   OH228632   5.157   5.829  12.378 -0.2434 -0.1819  0.2570
 2406TIP3    H128633   5.182   5.742  12.411  1.0478  0.7669  1.8684
 2406TIP3    H228634   5.080   5.853  12.429  0.3742  0.2997  0.9769
 2407TIP3   OH228635   0.276   1.525   1.861 -0.7064  0.4108 -0.3091
 2407TIP3    H128636   0.341   1.589   1.888  0.1861 -0.8035  0.5119
 2407TIP3    H228637   0.194   1.558   1.898 -0.3691  1.3884 -0.4138
 2408TIP3   OH228638   5.073   0.480   3.041 -0.1243 -0.1172  0.3207
 2408TIP3    H128639   5.123   0.555   3.007 -1.9013  0.3751 -1.2951
 2408TIP3    H228640   5.129   0.404   3.024  0.7300  0.5917 -0.0722
 2409TIP3   OH228641   4.913   1.095  17.064 -0.3103  0.4236 -0.2092
 2409TIP3    H128642   4.867   1.116  16.982 -0.7220  1.0907  0.1892
 2409TIP3    H228643   5.005   1.093  17.039 -0.4183  0.8289 -0.6503
 2410TIP3   OH228644   5.070   4.005  12.703 -0.3674 -0.4452  0.2165
 2410TIP3    H128645   5.157   3.995  12.742  0.0415 -0.3583 -0.6623
 2410TIP3    H228646   5.050   4.098  12.713  0.8192  0.0684 -2.0268
 2411TIP3   OH228647   4.552   2.515   0.689 -0.2861 -0.5526  0.1607
 2411TIP3    H128648   4.547   2.611   0.689  1.4286 -0.4388 -2.2539
 2411TIP3    H228649   4.463   2.487   0.665 -1.0876  0.3551  1.9197
 2412TIP3   OH228650   1.433   4.469  14.747  0.2346 -0.3159 -0.0901
 2412TIP3    H128651   1.453   4.558  14.718 -1.3008  0.4453  1.0870
 2412TIP3    H228652   1.377   4.481  14.824  0.5053 -2.2995  0.4446
 2413TIP3   OH228653   5.116   3.187   3.125  0.8831  0.4914 -0.0318
 2413TIP3    H128654   5.031   3.231   3.129  1.5323  1.7858 -0.2628
 2413TIP3    H228655   5.121   3.137   3.206 -0.4590 -0.2797 -0.4029
 2414TIP3   OH228656   4.407   5.070   2.686  0.1226  0.0809 -0.5088
 2414TIP3    H128657   4.411   5.040   2.777  1.0831 -0.2804 -0.6576
 2414TIP3    H228658   4.490   5.041   2.649  1.2157  3.1687 -0.5907
 2415TIP3   OH228659   4.799   5.700   4.487  0.1009 -0.4217 -0.1185
 2415TIP3    H128660   4.792   5.772   4.424 -0.6069 -2.1446 -2.0693
 2415TIP3    H228661   4.789   5.742   4.573  0.7533  1.9292 -1.1482
 2416TIP3   OH228662   4.780   4.282  11.403 -0.1538  0.4763 -0.7286
 2416TIP3    H128663   4.717   4.353  11.414  0.0484  0.4802  0.5030
 2416TIP3    H228664   4.863   4.326  11.383  0.3739  0.7146  1.8053
 2417TIP3   OH228665   6.463   2.950   1.114  0.6336  1.2804 -0.2618
 2417TIP3    H128666   6.534   3.010   1.090  1.1761  0.6290 -0.3075
 2417TIP3    H228667   6.439   2.907   1.032  0.5422  1.1281 -0.1558
 2418TIP3   OH228668   3.645   5.394   4.504  0.1766  0.1000 -0.1814
 2418TIP3    H128669   3.656   5.422   4.595  0.5705  0.4239 -0.3278
 2418TIP3    H228670   3.589   5.317   4.509  0.8234 -0.3339  0.4021
 2419TIP3   OH228671   4.344   1.913   3.233 -0.3153  0.5241 -0.2775
 2419TIP3    H128672   4.278   1.958   3.285  0.3260 -0.1705  1.1501
 2419TIP3    H228673   4.391   1.858   3.295  1.5070  0.8799 -1.3024
 2420TIP3   OH228674   1.294   3.755  12.752 -0.4870  0.0763 -0.6062
 2420TIP3    H128675   1.341   3.836  12.732 -0.6958 -0.5506 -4.0017
 2420TIP3    H228676   1.216   3.758  12.697 -2.0677 -1.0474  1.5071
 2421TIP3   OH228677   0.182   3.673   5.432  0.5376 -0.0291 -0.6936
 2421TIP3    H128678   0.231   3.592   5.414 -1.8262 -2.8418  4.5445
 2421TIP3    H228679   0.106   3.668   5.374  0.6561 -1.3502 -0.7527
 2422TIP3   OH228680   6.153   0.997   0.825 -0.0308  0.9080  0.3579
 2422TIP3    H128681   6.179   0.955   0.907  1.0399  0.6980 -0.0792
 2422TIP3    H228682   6.180   0.935   0.757  0.7159  1.8747 -0.2448
 2423TIP3   OH228683   3.160   0.289  14.638 -0.0968 -0.0148 -0.0717
 2423TIP3    H128684   3.242   0.297  14.685 -0.2448 -0.3939  0.2495
 2423TIP3    H228685   3.122   0.377  14.642  0.7358  0.4005 -1.0468
 2424TIP3   OH228686   0.246   5.111   0.068 -0.5801 -0.4816  0.7324
 2424TIP3    H128687   0.210   5.023   0.052  1.4307 -1.4064  1.0808
 2424TIP3    H228688   0.340   5.101   0.051 -0.6580  2.1984 -1.5854
 2425TIP3   OH228689   0.511   2.162  11.328 -0.3276 -0.1255 -0.7007
 2425TIP3    H128690   0.434   2.192  11.377 -0.1913 -0.6522 -0.1539
 2425TIP3    H228691   0.476   2.133  11.244 -0.3590  2.4260 -1.6414
 2426TIP3   OH228692   1.186   0.132   5.895 -0.5020  0.2104 -0.5316
 2426TIP3    H128693   1.168   0.152   5.987  1.2278  0.8501 -0.3071
 2426TIP3    H228694   1.182   0.217   5.851 -0.2496  0.0598 -0.8468
 2427TIP3   OH228695   4.153   2.630   5.771  0.4641  0.0800  0.2755
 2427TIP3    H128696   4.189   2.665   5.853 -0.0983  1.2931  0.0198
 2427TIP3    H228697   4.201   2.549   5.756  1.7628  0.7140  0.9245
 2428TIP3   OH228698   5.152   5.511  12.377  0.0765 -0.3290 -0.3201
 2428TIP3    H128699   5.238   5.475  12.398 -0.2177  0.3630  2.2788
 2428TIP3    H228700   5.161   5.545  12.288  2.7399  0.4318  0.1931
 2429TIP3   OH228701   3.364   1.437   1.751  0.3090  0.5256 -0.0449
 2429TIP3    H128702   3.333   1.398   1.669  0.5167 -2.2355  1.1430
 2429TIP3    H228703   3.433   1.498   1.724  1.1993 -1.2219 -1.8787
 2430TIP3   OH228704   4.310   2.710   2.840  0.2288 -0.6524  0.0512
 2430TIP3    H128705   4.311   2.707   2.936 -1.8427 -1.8038  0.0900
 2430TIP3    H228706   4.300   2.618   2.814  0.8773 -0.3561 -1.2762
 2431TIP3   OH228707   2.597   0.940  13.463 -0.0452 -0.2208  0.3684
 2431TIP3    H128708   2.587   0.914  13.371  0.9982  0.8306 -0.0581
 2431TIP3    H228709   2.686   0.974  13.469 -0.8970  1.9666  1.2112
 2432TIP3   OH228710   1.841   0.774   2.788 -0.0931 -0.4768 -0.3816
 2432TIP3    H128711   1.755   0.741   2.815 -0.6815  0.6149 -0.9008
 2432TIP3    H228712   1.885   0.795   2.870 -0.7087 -0.0922 -0.1434
 2433TIP3   OH228713   3.893   5.206   5.538  0.0877 -0.2625 -0.4694
 2433TIP3    H128714   3.801   5.200   5.565  0.4757 -2.6570  0.4291
 2433TIP3    H228715   3.890   5.246   5.452 -1.7714  0.1118 -0.2487
 2434TIP3   OH228716   4.521   1.561  15.003 -0.2250 -0.6462  0.1691
 2434TIP3    H128717   4.504   1.557  15.097  0.6145  1.0445  0.4219
 2434TIP3    H228718   4.616   1.550  14.996 -0.5695 -3.5844 -0.7190
 2435TIP3   OH228719   3.020   6.336  16.374 -0.5157  0.2359  0.0090
 2435TIP3    H128720   3.050   6.425  16.356 -2.2019  0.7916 -0.1452
 2435TIP3    H228721   2.955   6.346  16.443 -1.3640 -0.7970 -0.6280
 2436TIP3   OH228722   4.310   6.593  10.934 -0.1111 -0.0068  0.6371
 2436TIP3    H128723   4.377   6.594  10.866 -0.8980  0.7418 -0.1481
 2436TIP3    H228724   4.306   6.502  10.964  1.1772 -0.0742  0.6226
 2437TIP3   OH228725   1.002   5.072   3.434  0.2834  0.0366  0.2075
 2437TIP3    H128726   1.087   5.066   3.391  0.3499 -0.3432  0.3816
 2437TIP3    H228727   0.940   5.089   3.364  0.6258  1.2711  0.2037
 2438TIP3   OH228728   1.857   1.661  12.730 -0.1561  0.0559  0.2016
 2438TIP3    H128729   1.862   1.570  12.759 -1.8940 -0.0599  0.2032
 2438TIP3    H228730   1.906   1.710  12.796 -1.6659 -0.5492  1.8054
 2439TIP3   OH228731   5.903   3.891   0.041  0.0797 -0.1680  0.1962
 2439TIP3    H128732   5.975   3.944   0.073 -1.2790  0.7036  1.9081
 2439TIP3    H228733   5.869   3.939  -0.034  0.0637  0.4264  0.5784
 2440TIP3   OH228734   0.399   0.848  15.290 -0.3332 -0.5228  0.0066
 2440TIP3    H128735   0.380   0.941  15.301  1.4388 -0.1996  0.3422
 2440TIP3    H228736   0.492   0.844  15.271  0.0764 -2.4064  2.2835
 2441TIP3   OH228737   5.524   3.120   4.830  0.4158  0.1069 -0.0117
 2441TIP3    H128738   5.524   3.216   4.836 -0.0132  0.0075  1.9886
 2441TIP3    H228739   5.560   3.102   4.743  0.6812  2.0779 -0.3515
 2442TIP3   OH228740   5.928   5.121  11.958  0.0433 -0.0226 -0.2730
 2442TIP3    H128741   5.856   5.173  11.921 -0.9629  0.3142  2.0824
 2442TIP3    H228742   5.910   5.032  11.927 -0.2854  0.3880 -1.3079
 2443TIP3   OH228743   0.198   2.650   1.661 -0.1833  0.5336  0.6281
 2443TIP3    H128744   0.151   2.585   1.715  3.0236 -0.5620  2.2517
 2443TIP3    H228745   0.170   2.734   1.695 -0.8254 -0.1064  1.7105
 2444TIP3   OH228746   6.117   1.444   2.409 -0.1695 -0.7019 -0.5089
 2444TIP3    H128747   6.069   1.458   2.327 -1.7760 -1.6473  0.2406
 2444TIP3    H228748   6.105   1.351   2.428 -2.6028  0.1437  2.4682
 2445TIP3   OH228749   3.918   2.196   6.434  0.0351  0.1953 -0.2065
 2445TIP3    H128750   3.843   2.194   6.493  0.7535 -0.1157  0.7250
 2445TIP3    H228751   3.929   2.105   6.407 -0.6409  0.4314 -1.2742
 2446TIP3   OH228752   4.226   5.424  14.429 -0.3870 -0.3720 -0.3648
 2446TIP3    H128753   4.205   5.494  14.492  1.3935 -0.0491 -0.1108
 2446TIP3    H228754   4.224   5.467  14.344  1.3939  0.1733 -0.1517
 2447TIP3   OH228755   3.272   5.401   5.124  0.5779  0.1988  0.0923
 2447TIP3    H128756   3.244   5.482   5.082 -0.9412  0.1082  0.8838
 2447TIP3    H228757   3.347   5.426   5.178  0.5600  0.9319 -0.2147
 2448TIP3   OH228758   1.201   0.501  16.629  0.0945 -0.4526 -0.4029
 2448TIP3    H128759   1.112   0.479  16.659 -0.5397  0.5550 -1.4802
 2448TIP3    H228760   1.246   0.417  16.624 -1.4356 -1.2292 -1.7917
 2449TIP3   OH228761   3.227   5.133  14.402  0.0610 -0.1692 -0.0875
 2449TIP3    H128762   3.254   5.176  14.321 -2.4629 -0.5534 -1.1993
 2449TIP3    H228763   3.179   5.200  14.450 -0.8025 -0.6955 -0.1964
 2450TIP3   OH228764   5.201   5.357  11.302 -0.7772  0.1343  0.2707
 2450TIP3    H128765   5.108   5.380  11.298 -0.6729  0.8167  1.3361
 2450TIP3    H228766   5.224   5.331  11.213 -1.6188  1.4327 -0.3471
 2451TIP3   OH228767   2.511   1.413   0.610  0.0530  0.3171  0.2900
 2451TIP3    H128768   2.592   1.463   0.614  0.4794 -0.2337 -1.1111
 2451TIP3    H228769   2.470   1.426   0.696  1.8883  0.1374  1.2160
 2452TIP3   OH228770   4.528   1.647  13.080 -0.1509  0.3123 -0.6058
 2452TIP3    H128771   4.623   1.654  13.084 -0.1323 -0.3492  0.5522
 2452TIP3    H228772   4.499   1.669  13.169 -1.1493  1.5318 -1.2240
 2453TIP3   OH228773   3.636   2.327  14.380  0.1092 -0.3143 -0.4654
 2453TIP3    H128774   3.705   2.338  14.315 -0.1983 -2.5484 -1.2085
 2453TIP3    H228775   3.623   2.415  14.417  0.6046  0.8980 -3.0861
 2454TIP3   OH228776   4.702   4.707   5.295  0.0645  0.2581  0.0656
 2454TIP3    H128777   4.687   4.798   5.320 -0.4251  0.2407 -0.1714
 2454TIP3    H228778   4.677   4.657   5.373 -0.5261  0.2682 -0.1148
 2455TIP3   OH228779   6.780   6.433  15.440 -0.2080 -0.2816 -0.2266
 2455TIP3    H128780   6.759   6.506  15.382  1.9496 -0.3343 -1.1148
 2455TIP3    H228781   6.715   6.366  15.419 -1.0647  0.6949 -0.7120
 2456TIP3   OH228782   0.163   2.902  14.330  0.0324  0.6047 -0.0352
 2456TIP3    H128783   0.102   2.871  14.397 -0.1846  2.9652  0.9104
 2456TIP3    H228784   0.248   2.904  14.374 -0.0416  1.7865  0.0682
 2457TIP3   OH228785   0.625   2.361  15.316  0.0915 -0.3868 -0.6874
 2457TIP3    H128786   0.642   2.455  15.317 -1.3839 -0.1040 -0.3761
 2457TIP3    H228787   0.529   2.354  15.314  0.1977 -1.8791 -1.5487
 2458TIP3   OH228788   4.508   0.532  16.516  0.2777  0.0463 -0.0200
 2458TIP3    H128789   4.532   0.467  16.582  1.0736 -0.0729 -0.4164
 2458TIP3    H228790   4.494   0.481  16.436 -0.9197  0.1628  0.1030
 2459TIP3   OH228791   1.245   0.781   5.910  0.0915 -0.4478  0.5364
 2459TIP3    H128792   1.166   0.823   5.943  1.3870  0.6716  2.3895
 2459TIP3    H228793   1.255   0.702   5.963  1.2569  0.4614  1.7290
 2460TIP3   OH228794   5.738   6.191  16.661  0.1607  0.0547 -0.4070
 2460TIP3    H128795   5.805   6.231  16.605 -0.6355  0.4387 -1.0835
 2460TIP3    H228796   5.759   6.097  16.659 -0.9683 -0.1816 -2.8611
 2461TIP3   OH228797   1.297   3.840   5.740 -0.3965 -0.1852  0.6266
 2461TIP3    H128798   1.345   3.923   5.734 -0.3116 -0.2898 -0.2218
 2461TIP3    H228799   1.349   3.787   5.799  0.5272 -0.2841 -0.2620
 2462TIP3   OH228800   2.715   0.255  13.316 -0.1975 -0.5068  0.3531
 2462TIP3    H128801   2.645   0.210  13.365  1.1460  0.2132  3.0075
 2462TIP3    H228802   2.672   0.334  13.281 -1.5506 -1.7870 -0.9786
 2463TIP3   OH228803   4.899   6.073   5.140  0.6627  0.5155  0.1712
 2463TIP3    H128804   4.945   6.079   5.224  1.6213 -0.0980 -0.3079
 2463TIP3    H228805   4.942   6.137   5.084  1.8066 -0.9839 -0.6831
 2464TIP3   OH228806   2.796   1.647   4.998  0.1614  0.1946 -0.1918
 2464TIP3    H128807   2.701   1.655   5.001  0.2280  0.3134  1.7721
 2464TIP3    H228808   2.821   1.607   5.081  1.7724 -0.6120 -1.0165
 2465TIP3   OH228809   1.853   2.805   4.665 -0.0769  0.0675  0.0776
 2465TIP3    H128810   1.874   2.877   4.723  2.0194  1.1364 -1.9066
 2465TIP3    H228811   1.913   2.735   4.691  1.3560  0.7889 -1.1972
 2466TIP3   OH228812   4.629   3.514  14.892 -0.2773 -0.0771 -0.0702
 2466TIP3    H128813   4.724   3.520  14.893 -0.1378 -2.2383  0.3600
 2466TIP3    H228814   4.604   3.516  14.985 -0.4381 -2.4196 -0.0384
 2467TIP3   OH228815   3.528   2.267   0.035  0.4942  0.2377 -0.6959
 2467TIP3    H128816   3.549   2.232   0.122 -0.8832  0.7666 -0.1207
 2467TIP3    H228817   3.513   2.360   0.051 -0.7684  0.1499 -1.3116
 2468TIP3   OH228818   1.986   0.013  14.961 -0.1804 -0.8718 -1.1108
 2468TIP3    H128819   2.062   0.045  14.913  0.5631  1.0939  1.2699
 2468TIP3    H228820   2.008  -0.077  14.986  2.1562  0.2441  1.0521
 2469TIP3   OH228821   5.137   6.508   0.018  0.0639  0.4675  0.1839
 2469TIP3    H128822   5.189   6.473  -0.054  0.8514  2.1219 -0.0775
 2469TIP3    H228823   5.199   6.515   0.091 -1.2863 -3.5635  1.8588
 2470TIP3   OH228824   0.710   6.492   3.218  0.1804 -0.5347  0.5378
 2470TIP3    H128825   0.805   6.496   3.219  0.1907 -0.7792  1.8749
 2470TIP3    H228826   0.690   6.409   3.174  0.6026 -0.9163  1.0605
 2471TIP3   OH228827   4.723   1.966  11.095  1.0116  0.3857 -1.3596
 2471TIP3    H128828   4.739   2.046  11.044  0.0488  1.4399 -0.0320
 2471TIP3    H228829   4.762   1.984  11.180 -0.6312  0.0698 -0.5247
 2472TIP3   OH228830   2.950   4.924   1.868 -0.0403 -0.5417  0.2489
 2472TIP3    H128831   3.018   4.862   1.895 -0.8783 -1.6989 -0.2016
 2472TIP3    H228832   2.913   4.885   1.789  1.2816  1.9655 -1.6799
 2473TIP3   OH228833   0.827   4.597  17.236 -0.7456  0.5770 -0.1866
 2473TIP3    H128834   0.917   4.584  17.203 -1.5279 -0.5468 -1.9699
 2473TIP3    H228835   0.803   4.684  17.204 -0.4739  0.6641 -0.1601
 2474TIP3   OH228836   1.997   2.494   4.153  0.1278 -0.0121 -0.2268
 2474TIP3    H128837   1.953   2.443   4.085 -0.8514  1.4134 -0.6805
 2474TIP3    H228838   1.934   2.501   4.224 -0.1679  1.4767 -0.6115
 2475TIP3   OH228839   3.695   5.364  17.215  0.2665 -0.3160 -0.5745
 2475TIP3    H128840   3.747   5.431  17.260 -0.4565  0.5481 -1.0255
 2475TIP3    H228841   3.757   5.292  17.200  1.1855  0.4708 -0.5897
 2476TIP3   OH228842   3.045   1.058  11.135  0.2270  0.0791 -0.0115
 2476TIP3    H128843   3.063   0.976  11.182 -1.1083  0.6527  1.5697
 2476TIP3    H228844   3.012   1.030  11.050  0.0953 -1.0300  0.3925
 2477TIP3   OH228845   0.342   5.992   2.613 -0.1846 -0.0517 -0.0841
 2477TIP3    H128846   0.305   6.067   2.659 -0.2831 -0.4432  0.4883
 2477TIP3    H228847   0.317   5.917   2.667  0.1502 -0.4658 -0.5029
 2478TIP3   OH228848   4.922   5.212   4.334 -0.2162  0.6770  0.5109
 2478TIP3    H128849   4.888   5.297   4.305 -0.5824  0.0319 -1.0277
 2478TIP3    H228850   4.849   5.151   4.319  0.2476 -0.0057  1.0218
 2479TIP3   OH228851   3.292   1.776   2.304  0.5535 -0.1584  0.6204
 2479TIP3    H128852   3.260   1.690   2.276 -1.6327  0.4700  1.0987
 2479TIP3    H228853   3.243   1.839   2.250  2.4496  0.8029 -0.0532
 2480TIP3   OH228854   5.558   0.431  14.165  0.2111  0.2664 -0.0782
 2480TIP3    H128855   5.637   0.452  14.215 -1.1715  3.3171  0.9706
 2480TIP3    H228856   5.521   0.354  14.209  1.2217  0.4043  1.0397
 2481TIP3   OH228857   5.908   5.843   5.014 -0.3023 -0.3025  0.1063
 2481TIP3    H128858   5.934   5.925   5.056 -0.5553 -0.2404  0.1411
 2481TIP3    H228859   5.978   5.826   4.951 -1.2361  0.9983 -1.3325
 2482TIP3   OH228860   6.156   3.862   2.541  0.6967  0.2653 -0.8967
 2482TIP3    H128861   6.125   3.773   2.522  0.5892  0.6502 -2.6040
 2482TIP3    H228862   6.132   3.912   2.463  0.8233  1.7806  0.0265
 2483TIP3   OH228863   3.483   2.982   3.027  0.1447  0.5389 -0.1729
 2483TIP3    H128864   3.555   2.921   3.037 -0.6256 -0.6044 -1.5596
 2483TIP3    H228865   3.498   3.026   2.944 -2.1409 -1.6099 -1.7864
 2484TIP3   OH228866   2.612   5.774   0.194  0.1508  0.5028  0.4122
 2484TIP3    H128867   2.689   5.717   0.187 -0.4051 -0.1898 -0.2111
 2484TIP3    H228868   2.554   5.744   0.124 -1.0030  0.5262  1.3387
 2485TIP3   OH228869   1.526   5.027   2.240  0.2382 -0.5966  0.1180
 2485TIP3    H128870   1.600   4.980   2.277  2.6060  0.8272 -2.6377
 2485TIP3    H228871   1.458   4.961   2.231  2.3379 -2.7305 -0.4887
 2486TIP3   OH228872   3.688   5.829  13.582 -0.4279 -0.1472 -0.1652
 2486TIP3    H128873   3.632   5.821  13.505 -1.1486  1.5992  0.1626
 2486TIP3    H228874   3.731   5.744  13.589 -1.3928 -0.7808 -1.6884
 2487TIP3   OH228875   0.606   1.750  15.786 -0.1303  0.0834 -0.1247
 2487TIP3    H128876   0.626   1.733  15.694 -0.9613 -3.2985  0.2155
 2487TIP3    H228877   0.673   1.702  15.834 -1.3667 -0.5676  0.9937
 2488TIP3   OH228878   0.632   1.011   0.122 -0.6387  0.1159  0.5026
 2488TIP3    H128879   0.545   0.973   0.129 -0.6710  0.0393 -0.2168
 2488TIP3    H228880   0.617   1.098   0.084 -0.2253 -0.7899 -1.8401
 2489TIP3   OH228881   4.771   5.715   5.366  0.1168  0.4011 -0.3962
 2489TIP3    H128882   4.865   5.706   5.355 -0.0292  0.1942 -1.5364
 2489TIP3    H228883   4.749   5.798   5.323  0.1802  1.9646  2.4062
 2490TIP3   OH228884   0.444   4.020  16.761  0.0084 -0.6081 -0.4702
 2490TIP3    H128885   0.350   4.006  16.773 -0.0867  0.8877  0.7481
 2490TIP3    H228886   0.474   3.944  16.712 -1.9658 -0.7818 -1.4445
 2491TIP3   OH228887   2.967   4.143   4.616 -0.1885  0.1620 -0.0751
 2491TIP3    H128888   3.027   4.089   4.565 -1.4917 -0.0516 -1.4113
 2491TIP3    H228889   2.960   4.099   4.700  2.2597  0.7001  0.4445
 2492TIP3   OH228890   1.782   5.211   1.278 -0.1503 -0.0115 -0.1883
 2492TIP3    H128891   1.794   5.251   1.192  0.6686 -0.3239 -0.2222
 2492TIP3    H228892   1.813   5.277   1.339 -0.0886 -0.0591 -0.1687
 2493TIP3   OH228893   2.271   4.644   4.600 -0.6186  0.3118 -0.0583
 2493TIP3    H128894   2.250   4.579   4.533 -1.5064  0.9472 -0.4134
 2493TIP3    H228895   2.211   4.624   4.672  1.2135 -1.1785  1.0924
 2494TIP3   OH228896   6.588   2.330  14.288 -0.2649 -0.1496 -0.0490
 2494TIP3    H128897   6.529   2.289  14.225  1.3760 -0.0695 -1.6805
 2494TIP3    H228898   6.672   2.286  14.274  0.3822  0.6148  1.3542
 2495TIP3   OH228899   3.275   1.655   1.401 -0.4463  0.0800 -0.1809
 2495TIP3    H128900   3.314   1.680   1.317 -2.8641 -0.8081 -1.6210
 2495TIP3    H228901   3.252   1.738   1.442  1.8843  0.5761  0.2196
 2496TIP3   OH228902   0.689   6.160  16.959 -0.2282 -0.1585  0.0563
 2496TIP3    H128903   0.594   6.160  16.969 -0.1993 -2.4046  0.7418
 2496TIP3    H228904   0.723   6.140  17.046  0.9644  2.1209  0.1630
 2497TIP3   OH228905   1.283   4.277   0.634  0.4968  0.5141 -0.1050
 2497TIP3    H128906   1.357   4.337   0.634  0.6645  0.3085 -1.5018
 2497TIP3    H228907   1.256   4.272   0.726  0.9418  2.1413  0.1230
 2498TIP3   OH228908   2.708   1.307  15.825  0.1245 -0.4436 -0.2953
 2498TIP3    H128909   2.718   1.256  15.745 -1.6632 -0.7357 -0.3447
 2498TIP3    H228910   2.643   1.374  15.804  1.6963  1.2547  0.0788
 2499TIP3   OH228911   1.819   5.963  14.836 -0.5081 -0.1653 -0.9194
 2499TIP3    H128912   1.869   5.895  14.791 -0.0438  0.1430 -0.8727
 2499TIP3    H228913   1.799   5.926  14.922 -1.9932 -1.0269 -1.6103
 2500TIP3   OH228914   5.844   2.602  12.833 -0.2967  0.0224  0.4608
 2500TIP3    H128915   5.838   2.644  12.747  1.3009 -0.6279  0.0115
 2500TIP3    H228916   5.770   2.638  12.882 -0.6200  1.1942 -0.8381
 2501TIP3   OH228917   0.423   1.576  15.458  0.6664  0.1191  0.6607
 2501TIP3    H128918   0.451   1.508  15.520 -0.3842  0.2327  1.2624
 2501TIP3    H228919   0.505   1.610  15.422  1.3542  0.8282  2.8224
 2502TIP3   OH228920   3.534   0.390   1.421  0.0690 -0.3393  0.2042
 2502TIP3    H128921   3.616   0.363   1.380  0.3850  0.2184  0.4690
 2502TIP3    H228922   3.481   0.310   1.424 -0.4958 -0.1387 -2.5440
 2503TIP3   OH228923   3.851   1.450   0.432  0.4775  0.0784 -0.0238
 2503TIP3    H128924   3.760   1.453   0.463  0.3838 -0.0139 -0.2901
 2503TIP3    H228925   3.900   1.501   0.497  1.0026 -3.6521  2.6790
 2504TIP3   OH228926   0.800   6.259  15.005  0.1843 -0.1134  0.2262
 2504TIP3    H128927   0.820   6.345  15.043 -0.7314 -0.7477  2.2438
 2504TIP3    H228928   0.882   6.230  14.965  0.9849  0.9094  1.1034
 2505TIP3   OH228929   5.158   4.802  14.904  0.2905 -0.2370  0.5864
 2505TIP3    H128930   5.205   4.851  14.972  0.6574  0.0802  0.1098
 2505TIP3    H228931   5.225   4.781  14.839 -0.3979  1.0017 -0.5390
 2506TIP3   OH228932   2.868   4.154  16.398 -0.8631  0.5500 -0.0561
 2506TIP3    H128933   2.863   4.229  16.339 -0.2671  0.9110  0.3483
 2506TIP3    H228934   2.912   4.188  16.476  1.1574 -0.6829 -0.6210
 2507TIP3   OH228935   5.781   0.308   4.901  0.4515 -0.2516 -0.2331
 2507TIP3    H128936   5.720   0.375   4.871 -0.7483 -0.3864  1.7910
 2507TIP3    H228937   5.834   0.352   4.968 -0.4236 -1.3116  1.1992
 2508TIP3   OH228938   6.311   5.800  16.917 -0.3764 -0.2915 -0.1601
 2508TIP3    H128939   6.292   5.892  16.934 -1.4576 -0.3086 -1.2077
 2508TIP3    H228940   6.373   5.775  16.986  0.5507  1.4304 -0.3417
 2509TIP3   OH228941   0.913   4.477  11.933 -0.0180  0.0300 -0.4285
 2509TIP3    H128942   0.977   4.529  11.884  1.4053 -0.8475  0.4527
 2509TIP3    H228943   0.880   4.414  11.869 -0.0745  0.5421 -0.9138
 2510TIP3   OH228944   4.803   3.053   0.032  0.0030 -0.5223 -0.8089
 2510TIP3    H128945   4.713   3.029   0.010  0.6146 -1.4197 -2.4389
 2510TIP3    H228946   4.810   3.036   0.126 -1.1697 -1.6509 -0.9079
 2511TIP3   OH228947   1.815   3.659  10.701 -0.3810  0.3637 -0.2844
 2511TIP3    H128948   1.882   3.689  10.641 -0.6664  0.1528 -0.7129
 2511TIP3    H228949   1.828   3.564  10.705  0.4311  0.5146  0.9561
 2512TIP3   OH228950   6.029   2.292   5.515  0.1778 -0.3208 -0.1294
 2512TIP3    H128951   6.022   2.223   5.449  0.3864 -1.4184  1.0049
 2512TIP3    H228952   5.954   2.350   5.495  1.3570  0.4561 -2.5556
 2513TIP3   OH228953   2.808   5.188  11.787  0.1521 -0.0029  0.1367
 2513TIP3    H128954   2.839   5.233  11.866 -0.0760 -1.4701  1.0709
 2513TIP3    H228955   2.731   5.237  11.761  0.9920  1.3036  0.0508
 2514TIP3   OH228956   4.198   0.218   0.728  0.7348  0.3757  0.6351
 2514TIP3    H128957   4.289   0.201   0.750  0.2759 -4.4939 -0.7331
 2514TIP3    H228958   4.148   0.187   0.803  0.0403  0.3617  0.1799
 2515TIP3   OH228959   3.603   2.523  15.540 -0.8247  0.9160  0.0113
 2515TIP3    H128960   3.514   2.499  15.514 -0.5299  1.0966 -1.1825
 2515TIP3    H228961   3.632   2.584  15.473  1.0352 -0.9035 -0.9098
 2516TIP3   OH228962   2.517   0.757  11.822  0.1983 -0.3115  0.4771
 2516TIP3    H128963   2.552   0.822  11.762 -0.1736 -1.0669 -0.5832
 2516TIP3    H228964   2.539   0.790  11.909  0.5851  0.8912 -0.0624
 2517TIP3   OH228965   0.084   1.419  16.933 -0.5710  0.2213 -0.3214
 2517TIP3    H128966   0.108   1.455  17.019 -0.4335 -0.2644 -0.1576
 2517TIP3    H228967  -0.012   1.418  16.934 -0.5824  0.7848 -0.4129
 2518TIP3   OH228968   3.592   0.705   1.816 -0.0810 -0.3227  0.1083
 2518TIP3    H128969   3.603   0.799   1.830 -0.1812 -0.3248  0.2026
 2518TIP3    H228970   3.580   0.696   1.722 -1.0698 -0.1383  0.2124
 2519TIP3   OH228971   0.329   1.556   0.382 -0.5040  0.1622 -0.3515
 2519TIP3    H128972   0.309   1.462   0.375  0.2466 -0.0318  0.0329
 2519TIP3    H228973   0.404   1.560   0.441  1.1238  0.7877 -2.3931
 2520TIP3   OH228974   2.568   3.057  15.527 -0.4957 -0.3148  0.5028
 2520TIP3    H128975   2.642   3.115  15.544 -0.5277 -0.1502  0.0869
 2520TIP3    H228976   2.585   2.980  15.580 -2.0399  1.3723  3.6035
 2521TIP3   OH228977   1.022   5.698  16.025 -0.4595  0.5771 -0.2926
 2521TIP3    H128978   0.932   5.679  16.049 -0.2833  0.2857  0.1506
 2521TIP3    H228979   1.040   5.641  15.950 -0.3725 -0.0057  0.1645
 2522TIP3   OH228980   6.022   1.230   5.523 -0.2908  0.2157 -0.0468
 2522TIP3    H128981   6.005   1.265   5.611 -1.2762 -1.4196  0.4545
 2522TIP3    H228982   5.983   1.293   5.463 -0.0265  1.1160  0.7234
 2523TIP3   OH228983   0.748   5.938   3.595  0.7589 -0.0511  0.0990
 2523TIP3    H128984   0.766   5.954   3.688  1.4080  0.5392 -0.1256
 2523TIP3    H228985   0.735   6.025   3.558 -0.6115 -0.3445 -0.1508
 2524TIP3   OH228986   0.858   0.744   5.067 -0.7424 -0.0800 -0.2988
 2524TIP3    H128987   0.773   0.722   5.028 -0.2035  0.0434 -1.5589
 2524TIP3    H228988   0.914   0.669   5.047 -0.7545 -0.5017  1.1983
 2525TIP3   OH228989   4.243   0.890  16.359  0.3717 -0.0034  0.3071
 2525TIP3    H128990   4.163   0.860  16.316 -0.2698  1.4100  0.4841
 2525TIP3    H228991   4.228   0.873  16.452  0.3250  0.1252  0.3251
 2526TIP3   OH228992   2.136   3.392   3.762 -0.2131 -0.0134 -0.0316
 2526TIP3    H128993   2.060   3.390   3.704 -0.0288  1.1885 -0.3080
 2526TIP3    H228994   2.106   3.346   3.841 -0.1473 -2.5629 -1.4373
 2527TIP3   OH228995   5.330   3.767  14.680  0.0236 -0.0274  0.0907
 2527TIP3    H128996   5.258   3.754  14.619  1.0987  3.7468 -2.0931
 2527TIP3    H228997   5.289   3.763  14.767 -2.6224  1.0514 -1.0774
 2528TIP3   OH228998   6.720   0.316   1.797  0.2844 -0.0883  0.1277
 2528TIP3    H128999   6.643   0.302   1.851 -1.1687  3.7241 -0.7706
 2528TIP3    H229000   6.794   0.307   1.858 -1.0953  0.0395  1.8662
 2529TIP3   OH229001   1.090   4.857  11.336 -0.1710 -0.5171  0.1934
 2529TIP3    H129002   1.026   4.849  11.264  0.5224 -2.2705 -0.2545
 2529TIP3    H229003   1.078   4.946  11.368 -0.3349  0.3854 -2.2650
 2530TIP3   OH229004   4.998   4.463   5.365  0.6078  0.5010 -0.1314
 2530TIP3    H129005   5.086   4.493   5.388  0.9788  0.3089 -1.2601
 2530TIP3    H229006   5.013   4.382   5.315 -0.1554  0.9977 -1.1817
 2531TIP3   OH229007   5.622   1.678  13.337  0.1728  0.5538  0.1698
 2531TIP3    H129008   5.591   1.753  13.286 -2.0880 -0.0455  0.6037
 2531TIP3    H229009   5.699   1.711  13.383 -0.9062  2.7007  0.5097
 2532TIP3   OH229010   6.712   6.697   1.787 -0.7855 -0.3793 -0.3281
 2532TIP3    H129011   6.678   6.778   1.749 -0.0742 -0.1190 -0.4176
 2532TIP3    H229012   6.745   6.723   1.873  1.2265 -0.1580 -1.1217
 2533TIP3   OH229013   0.377   0.584  11.884 -0.3664 -0.0766  0.3971
 2533TIP3    H129014   0.371   0.567  11.790  0.3473  1.9161 -0.0305
 2533TIP3    H229015   0.286   0.598  11.911 -0.6176 -1.0609  0.1057
 2534TIP3   OH229016   1.277   2.029  14.102  0.1124 -0.5837 -0.6053
 2534TIP3    H129017   1.232   1.979  14.034 -1.1860  0.7736 -0.7731
 2534TIP3    H229018   1.356   2.063  14.059 -0.7963  0.4301 -1.5283
 2535TIP3   OH229019   1.731   5.674   5.866  0.9911 -0.7768 -0.4450
 2535TIP3    H129020   1.685   5.698   5.947  0.3244  1.3021 -1.3906
 2535TIP3    H229021   1.763   5.586   5.881 -1.4439 -1.4399  1.0926
 2536TIP3   OH229022   1.782   5.070   1.879 -0.1262 -0.0594  0.5672
 2536TIP3    H129023   1.845   5.053   1.810  0.0383  2.0599  0.1728
 2536TIP3    H229024   1.818   5.143   1.928 -1.3730 -0.0297  1.4828
 2537TIP3   OH229025   4.546   5.688   3.766  0.1199  0.4369  0.5055
 2537TIP3    H129026   4.537   5.659   3.675 -0.7056  0.7573  0.4815
 2537TIP3    H229027   4.618   5.751   3.764  0.2727  0.2512  0.1194
 2538TIP3   OH229028   2.037   2.047   1.282  0.0751 -0.0294 -0.6199
 2538TIP3    H129029   1.956   1.996   1.277  0.1249 -0.0724 -0.9999
 2538TIP3    H229030   2.008   2.137   1.299  0.0292 -0.3322  0.9428
 2539TIP3   OH229031   5.225   4.435   1.733 -0.6089  0.3642 -0.0081
 2539TIP3    H129032   5.164   4.363   1.722  0.3660 -0.7082  1.3884
 2539TIP3    H229033   5.180   4.496   1.793 -1.1569  0.6107 -0.6633
 2540TIP3   OH229034   4.205   0.847   5.986 -0.6221 -0.2675  0.2098
 2540TIP3    H129035   4.147   0.772   6.000  0.2010 -1.2501 -1.5533
 2540TIP3    H229036   4.283   0.811   5.944  0.2430  1.4202  0.2988
 2541TIP3   OH229037   2.251   1.039  12.313  0.0250  0.0589 -0.2385
 2541TIP3    H129038   2.302   1.120  12.322 -0.0141 -0.0483  1.0781
 2541TIP3    H229039   2.170   1.057  12.361 -0.2087 -0.5789 -0.3944
 2542TIP3   OH229040   6.185   3.030  14.660  0.0455  0.2336 -0.3567
 2542TIP3    H129041   6.136   2.976  14.599 -0.6430  1.5423 -0.9881
 2542TIP3    H229042   6.258   3.064  14.609  1.5875 -1.6319  0.5526
 2543TIP3   OH229043   2.700   3.717  12.952  0.5192  0.0343 -0.0615
 2543TIP3    H129044   2.731   3.636  12.912  0.6094  0.2932 -0.5142
 2543TIP3    H229045   2.605   3.708  12.953  0.4405  0.6285 -1.6079
 2544TIP3   OH229046   3.622   3.359   6.118 -0.2477 -0.8730  0.5828
 2544TIP3    H129047   3.585   3.272   6.131 -0.2408 -0.8863  0.5123
 2544TIP3    H229048   3.585   3.412   6.189 -0.0318 -1.0022  0.7907
 2545TIP3   OH229049   6.538   5.039  11.817  0.0326 -0.3998 -0.6377
 2545TIP3    H129050   6.566   4.989  11.740  2.8256  1.2610 -0.7744
 2545TIP3    H229051   6.504   4.972  11.877  0.7261 -2.0842 -2.0617
 2546TIP3   OH229052   3.794   6.066   3.410  0.0736 -0.2035 -0.5409
 2546TIP3    H129053   3.726   6.055   3.345 -0.9293  1.3145  0.2041
 2546TIP3    H229054   3.789   5.988   3.465 -1.1529 -0.0567 -0.4351
 2547TIP3   OH229055   3.660   1.979   6.079 -0.0018  0.1905  0.2626
 2547TIP3    H129056   3.653   1.958   5.986  0.8765  0.8381  0.0530
 2547TIP3    H229057   3.594   2.046   6.093  1.5811  1.9405 -0.4466
 2548TIP3   OH229058   0.400   4.604  16.424 -0.1465  0.2347 -0.7367
 2548TIP3    H129059   0.317   4.647  16.444  0.3411  1.0343 -0.4422
 2548TIP3    H229060   0.432   4.648  16.345  1.6558  2.2455  1.0667
 2549TIP3   OH229061   0.602   5.446   2.816  0.3419 -0.1914 -0.1171
 2549TIP3    H129062   0.632   5.532   2.788  1.3782  0.3226  2.3676
 2549TIP3    H229063   0.507   5.449   2.807  0.6030  0.0316 -3.1339
 2550TIP3   OH229064   0.523   1.138  16.229 -0.7810 -0.6235  0.4473
 2550TIP3    H129065   0.465   1.065  16.207 -2.1215  0.3319  0.7175
 2550TIP3    H229066   0.581   1.147  16.153 -1.3860 -1.2157 -0.0903
 2551TIP3   OH229067   5.618   4.610  17.056  0.4114  0.6122  0.2950
 2551TIP3    H129068   5.667   4.582  17.133 -0.4229  1.6090  1.2111
 2551TIP3    H229069   5.550   4.667  17.091  0.3696  1.5318 -1.2448
 2552TIP3   OH229070   5.751   0.620  16.671 -0.3078  0.6715 -0.1693
 2552TIP3    H129071   5.751   0.686  16.601 -1.2393  0.6438 -0.2079
 2552TIP3    H229072   5.841   0.588  16.674  0.1490  1.9333 -0.1648
 2553TIP3   OH229073   0.958   5.876  13.377 -0.0185  0.4779 -0.6535
 2553TIP3    H129074   0.929   5.807  13.317 -1.2598  1.6005 -1.3952
 2553TIP3    H229075   0.895   5.947  13.362 -0.0941  0.9210  1.6979
 2554TIP3   OH229076   2.219   5.967   2.255  0.1505 -0.1807  0.3934
 2554TIP3    H129077   2.193   5.890   2.204  0.6686 -0.7259  0.9538
 2554TIP3    H229078   2.271   5.932   2.327 -1.1352  0.5123  1.6974
 2555TIP3   OH229079   0.229   1.295   4.137  0.1408 -0.0572  0.5680
 2555TIP3    H129080   0.217   1.258   4.224 -0.7965 -2.3250 -0.4793
 2555TIP3    H229081   0.147   1.341   4.118 -0.6728 -1.7258 -0.0930
 2556TIP3   OH229082   2.356   6.124   1.935  0.0436  0.1252  0.3224
 2556TIP3    H129083   2.263   6.110   1.953  0.3056  0.3617  1.9080
 2556TIP3    H229084   2.360   6.214   1.903 -0.2627  0.1537  0.3623
 2557TIP3   OH229085   1.489   1.803   2.909 -0.2603  0.6579 -0.0017
 2557TIP3    H129086   1.555   1.869   2.892  0.1695  0.9773  2.6397
 2557TIP3    H229087   1.475   1.807   3.004 -2.0342 -1.3162 -0.1343
 2558TIP3   OH229088   0.772   4.328   4.276 -0.1489  0.6557  0.0214
 2558TIP3    H129089   0.706   4.384   4.234 -0.8583  0.6321  1.0624
 2558TIP3    H229090   0.780   4.364   4.365  0.1190 -0.2765  0.3850
 2559TIP3   OH229091   5.676   3.154  16.015 -0.0563  0.0457  0.2877
 2559TIP3    H129092   5.730   3.228  15.987 -0.2111 -0.5978 -1.8004
 2559TIP3    H229093   5.618   3.137  15.941 -0.5375 -1.6962  1.0385
 2560TIP3   OH229094   2.427   0.019   6.035  0.2632  0.1125 -0.0950
 2560TIP3    H129095   2.457   0.106   6.010 -2.3991  1.2876  0.6257
 2560TIP3    H229096   2.382   0.033   6.118  1.2091 -2.2440  0.8667
 2561TIP3   OH229097   2.916   3.571   4.104  0.2465  0.1881 -0.6337
 2561TIP3    H129098   3.011   3.575   4.111  0.2744 -0.6594 -0.5006
 2561TIP3    H229099   2.892   3.489   4.147 -0.5988  0.7021 -0.1125
 2562TIP3   OH229100   2.945   0.067   6.336  0.5251  0.2383 -0.6370
 2562TIP3    H129101   2.913   0.149   6.373  1.4058 -0.0014  0.6936
 2562TIP3    H229102   2.965   0.088   6.244  0.5739  1.4580 -0.3533
 2563TIP3   OH229103   4.691   2.719   1.494  0.3090 -0.1159 -0.1018
 2563TIP3    H129104   4.727   2.805   1.473 -0.0239  0.1216  0.3039
 2563TIP3    H229105   4.728   2.661   1.427 -0.1800  0.5015 -0.9136
 2564TIP3   OH229106   1.789   1.333  12.819 -0.0839  0.2005  0.1069
 2564TIP3    H129107   1.804   1.269  12.889 -2.5168 -0.8194 -0.2712
 2564TIP3    H229108   1.783   1.281  12.740 -1.4003  0.9562 -0.3053
 2565TIP3   OH229109   4.458   1.858  11.142  0.0217  0.2506 -0.1242
 2565TIP3    H129110   4.549   1.889  11.145  0.2362 -0.3882 -0.0983
 2565TIP3    H229111   4.456   1.797  11.068  0.1252 -1.3804  1.1857
 2566TIP3   OH229112   1.137   4.136  13.163 -0.2630 -0.0353  0.4949
 2566TIP3    H129113   1.141   4.218  13.212  1.4614 -1.0074  2.0590
 2566TIP3    H229114   1.044   4.112  13.163 -0.2106 -0.4072  3.9945
 2567TIP3   OH229115   2.719   0.880  16.027  0.6628 -0.4548  0.2371
 2567TIP3    H129116   2.655   0.815  16.056  1.0392 -0.9217  0.0306
 2567TIP3    H229117   2.777   0.832  15.968  0.2046  0.3619 -0.8900
 2568TIP3   OH229118   3.188   3.290  13.601  0.2636 -0.2280  0.2143
 2568TIP3    H129119   3.249   3.284  13.527 -0.5338 -2.5189 -0.2876
 2568TIP3    H229120   3.244   3.302  13.677  1.3726 -2.3587 -0.2385
 2569TIP3   OH229121   1.839   3.913  11.304 -0.0942 -1.1046  0.6752
 2569TIP3    H129122   1.861   3.827  11.340  0.0996 -0.8863  1.0794
 2569TIP3    H229123   1.924   3.956  11.292 -0.0242 -1.8287 -1.6943
 2570TIP3   OH229124   0.378   3.628  12.198  0.1147  0.1641 -0.0971
 2570TIP3    H129125   0.366   3.630  12.103 -0.5836  0.0888 -0.0093
 2570TIP3    H229126   0.322   3.699  12.231 -0.8549 -0.8218  0.3948
 2571TIP3   OH229127   4.936   0.069   1.775  0.5004 -0.8217  0.0489
 2571TIP3    H129128   4.985   0.020   1.709  0.1503 -1.4873  0.2772
 2571TIP3    H229129   4.856   0.018   1.788 -0.5309  0.5701 -0.7362
 2572TIP3   OH229130   2.258   0.791  16.755  0.3266  0.5428  0.3733
 2572TIP3    H129131   2.334   0.799  16.698 -1.1207 -0.1086 -1.6865
 2572TIP3    H229132   2.191   0.847  16.715 -1.3301 -1.4276  0.3206
 2573TIP3   OH229133   0.824   1.380  13.318  0.2587  0.4162 -0.3110
 2573TIP3    H129134   0.777   1.464  13.316 -1.5286 -0.5879 -2.8802
 2573TIP3    H229135   0.916   1.404  13.310 -0.1649  2.1800 -0.2174
 2574TIP3   OH229136   5.027   4.787   2.117 -0.0129 -0.6404  0.1426
 2574TIP3    H129137   5.029   4.809   2.210  0.7318  0.5770 -0.1598
 2574TIP3    H229138   4.934   4.775   2.098 -0.3524  1.2082  0.5585
 2575TIP3   OH229139   3.260   5.779   2.579 -0.1684 -0.0912  0.3697
 2575TIP3    H129140   3.327   5.712   2.564 -0.8639 -0.8414  0.6064
 2575TIP3    H229141   3.257   5.829   2.497 -0.1584 -0.7939 -0.0573
 2576TIP3   OH229142   4.259   5.452   0.654 -0.7330  0.1076  0.4502
 2576TIP3    H129143   4.345   5.417   0.677  0.6658  1.1407 -2.8615
 2576TIP3    H229144   4.223   5.389   0.591 -1.6962  0.5511  0.5375
 2577TIP3   OH229145   3.357   4.053  16.348  0.4418  0.2802 -0.1408
 2577TIP3    H129146   3.419   4.066  16.277  1.4610 -1.9386  0.2870
 2577TIP3    H229147   3.323   4.141  16.368  2.6025  1.3644 -1.1419
 2578TIP3   OH229148   6.069   3.498   6.441 -0.1446 -0.3295  0.3077
 2578TIP3    H129149   6.023   3.414   6.431  1.9661 -1.3642 -1.0360
 2578TIP3    H229150   6.006   3.563   6.409 -0.1156 -1.8844 -3.1827
 2579TIP3   OH229151   4.726   5.938  17.029 -0.2943  0.0790 -0.2678
 2579TIP3    H129152   4.773   5.865  17.071 -0.2232  0.1147 -0.2836
 2579TIP3    H229153   4.774   6.016  17.056  0.1536  0.0474 -0.9436
 2580TIP3   OH229154   2.957   6.521   6.014 -1.2011  0.1600  0.4654
 2580TIP3    H129155   2.947   6.547   6.105 -2.2676 -0.8858  0.6580
 2580TIP3    H229156   2.867   6.507   5.983 -0.8099 -0.1961 -0.5243
 2581TIP3   OH229157   6.219   2.507   4.428  0.7382  0.4319 -0.0268
 2581TIP3    H129158   6.236   2.557   4.508  0.7806  0.7306 -0.2247
 2581TIP3    H229159   6.125   2.518   4.413  0.7972  0.6688 -0.2187
 2582TIP3   OH229160   3.638   0.883  14.793 -0.5840 -0.5910  0.4055
 2582TIP3    H129161   3.675   0.945  14.729 -3.3252 -1.2995 -1.9718
 2582TIP3    H229162   3.581   0.936  14.848 -0.0946 -0.3843  0.7153
 2583TIP3   OH229163   2.354   3.672  16.829  0.1852  0.3367 -0.3715
 2583TIP3    H129164   2.429   3.682  16.771  1.0759 -2.2037  0.2771
 2583TIP3    H229165   2.391   3.636  16.910 -1.5298  0.4181  0.4784
 2584TIP3   OH229166   1.984   3.214  14.662  0.1381 -0.3442  0.4694
 2584TIP3    H129167   1.904   3.201  14.713 -0.2545 -0.1423 -0.0972
 2584TIP3    H229168   2.046   3.150  14.698 -0.8552 -1.7778 -0.3305
 2585TIP3   OH229169   0.239   3.602  15.546  0.1354  0.0983  0.3237
 2585TIP3    H129170   0.284   3.662  15.605  0.3179  1.1806 -0.9064
 2585TIP3    H229171   0.295   3.524  15.544  1.5852  1.1437 -0.6062
 2586TIP3   OH229172   6.270   1.824   2.844  0.4678 -0.0465 -0.3056
 2586TIP3    H129173   6.177   1.835   2.824  0.2702 -2.4339 -0.8439
 2586TIP3    H229174   6.271   1.764   2.919  1.5769 -0.0671 -0.3378
 2587TIP3   OH229175   4.067   0.608   3.533 -0.0966 -0.0284 -0.2900
 2587TIP3    H129176   4.091   0.700   3.522 -0.7567 -0.1021 -2.5291
 2587TIP3    H229177   4.149   0.560   3.520  0.3425  0.2575  1.3509
 2588TIP3   OH229178   2.909   3.987   3.867 -0.0059  0.1478  0.1433
 2588TIP3    H129179   2.885   3.987   3.774  1.8139  0.9645 -0.3478
 2588TIP3    H229180   2.888   4.075   3.897 -2.1449 -0.6090  0.9496
 2589TIP3   OH229181   5.468   4.069   5.511 -0.0468 -0.6984 -0.0091
 2589TIP3    H129182   5.441   3.978   5.502 -0.6443 -0.5233 -0.0744
 2589TIP3    H229183   5.387   4.115   5.535  0.4022 -0.3045  0.7842
 2590TIP3   OH229184   5.382   6.373  17.187  0.0346  0.4992  0.1448
 2590TIP3    H129185   5.350   6.284  17.172 -1.6782  0.9190  1.2141
 2590TIP3    H229186   5.406   6.374  17.280  0.3492  1.0751  0.0553
 2591TIP3   OH229187   5.545   2.098   1.258 -0.7421 -0.0497 -0.2288
 2591TIP3    H129188   5.573   2.186   1.232  0.4252 -0.5905 -0.8655
 2591TIP3    H229189   5.526   2.105   1.351 -0.9219  0.9457 -0.3347
 2592TIP3   OH229190   0.921   0.787  16.022 -0.1417 -0.1097 -0.6086
 2592TIP3    H129191   0.833   0.813  16.048  0.5382  0.0905  1.6303
 2592TIP3    H229192   0.935   0.704  16.067  1.5348  0.8333  0.6488
 2593TIP3   OH229193   2.199   2.668   3.007  0.1739 -0.0335 -0.5714
 2593TIP3    H129194   2.108   2.654   2.981  0.2529 -0.8544 -0.4203
 2593TIP3    H229195   2.210   2.763   3.004 -0.7179  0.0796 -0.4806
 2594TIP3   OH229196   3.341   2.754  15.247  0.4192  0.2740  0.2311
 2594TIP3    H129197   3.434   2.742  15.262  0.1749 -1.5888  0.3962
 2594TIP3    H229198   3.331   2.746  15.152  0.4221  0.4714  0.2130
 2595TIP3   OH229199   4.530   5.389   0.318 -0.3067  0.0257 -0.7758
 2595TIP3    H129200   4.440   5.421   0.314 -0.0617  0.5380 -2.3647
 2595TIP3    H229201   4.580   5.450   0.264  1.3126  0.7619  1.4713
 2596TIP3   OH229202   4.049   0.528  15.424  0.0185  0.0312 -1.1427
 2596TIP3    H129203   4.003   0.611  15.408  0.7900  0.1214 -2.9986
 2596TIP3    H229204   3.985   0.461  15.401 -0.2453  0.1216 -0.6762
 2597TIP3   OH229205   4.927   0.957  13.940 -0.0327 -0.4690  0.4681
 2597TIP3    H129206   4.874   1.033  13.914 -0.3937 -0.8555  0.0776
 2597TIP3    H229207   4.876   0.881  13.913 -1.1326 -0.9264  3.6820
 2598TIP3   OH229208   3.794   5.932  13.211  0.0643 -0.3089 -0.3439
 2598TIP3    H129209   3.886   5.959  13.215  0.5503 -1.9132 -0.1803
 2598TIP3    H229210   3.798   5.837  13.196 -1.5704 -0.2830 -1.0228
 2599TIP3   OH229211   2.845   4.133   4.106  0.3123 -0.0606 -0.1351
 2599TIP3    H129212   2.885   4.051   4.136 -3.0949 -3.1408 -3.4689
 2599TIP3    H229213   2.756   4.131   4.142 -0.5786  0.9408 -2.1911
 2600TIP3   OH229214   0.115   1.609   6.011  0.5050 -0.1336 -0.0212
 2600TIP3    H129215   0.069   1.534   6.047  1.1250 -0.3223  0.3966
 2600TIP3    H229216   0.117   1.673   6.082  1.3609 -0.3412  0.1499
 2601TIP3   OH229217   1.333   5.558   2.198  0.2042 -0.2810  0.8229
 2601TIP3    H129218   1.384   5.478   2.206  0.6097 -0.0435  0.6742
 2601TIP3    H229219   1.246   5.530   2.169  0.8682 -0.5121 -1.0023
 2602TIP3   OH229220   3.452   2.809  13.978 -1.0975  0.0642  0.3133
 2602TIP3    H129221   3.412   2.895  13.988  0.1137  0.5273  1.2592
 2602TIP3    H229222   3.414   2.757  14.049  1.0481  0.9277  2.1516
 2603TIP3   OH229223   5.832   5.418  12.621  0.2857  0.2115 -0.5230
 2603TIP3    H129224   5.786   5.483  12.568  0.5233  0.2287 -0.7092
 2603TIP3    H229225   5.846   5.345  12.561 -0.5567 -0.2796 -0.1371
 2604TIP3   OH229226   6.255   4.117  13.540 -0.2132 -0.1994 -0.2769
 2604TIP3    H129227   6.214   4.087  13.621 -1.7317 -1.1328 -1.3614
 2604TIP3    H229228   6.337   4.068  13.535  0.2023  0.3329  0.9882
 2605TIP3   OH229229   5.875   2.235   0.330 -0.0725 -0.4774 -0.0424
 2605TIP3    H129230   5.831   2.213   0.412 -0.1747 -2.0276 -0.4968
 2605TIP3    H229231   5.902   2.151   0.294  0.4630  0.2335 -1.3294
 2606TIP3   OH229232   4.692   2.229  14.103  0.4889 -0.3219 -0.0749
 2606TIP3    H129233   4.606   2.251  14.138  0.9943 -1.0183  1.6288
 2606TIP3    H229234   4.681   2.143  14.063  1.1298 -1.9476  3.0652
 2607TIP3   OH229235   5.077   2.817   2.268  0.0092 -0.0943  0.1794
 2607TIP3    H129236   4.996   2.868   2.259 -1.0804 -1.7249  0.4599
 2607TIP3    H229237   5.093   2.783   2.179  2.3003  2.9657 -0.6702
 2608TIP3   OH229238   1.107   3.910  11.426 -0.4734 -0.9106 -0.0567
 2608TIP3    H129239   1.186   3.953  11.456 -2.8935  3.1151  0.8820
 2608TIP3    H229240   1.086   3.846  11.494  0.1057  0.4048  1.3647
 2609TIP3   OH229241   6.531   4.158   4.455 -0.9090  0.3281  0.2088
 2609TIP3    H129242   6.542   4.192   4.366  1.6879 -0.0685  0.3530
 2609TIP3    H229243   6.531   4.063   4.445  0.0810  0.2749  0.7129
 2610TIP3   OH229244   2.618   4.037   4.492 -0.0668  0.2317 -0.1203
 2610TIP3    H129245   2.625   4.036   4.588  1.2185  1.6894 -0.1656
 2610TIP3    H229246   2.673   3.965   4.463  0.0309  0.1706  0.2133
 2611TIP3   OH229247   4.828   0.084  17.079  0.2139  0.0854  0.1851
 2611TIP3    H129248   4.829   0.107  17.172  1.4638 -0.4413  0.3075
 2611TIP3    H229249   4.746   0.121  17.046 -0.0684  0.5761  1.4184
 2612TIP3   OH229250   2.732   4.778   2.648  0.0643  0.1380  0.0558
 2612TIP3    H129251   2.815   4.740   2.617 -0.5818 -0.7012 -0.6747
 2612TIP3    H229252   2.699   4.828   2.574 -1.4592 -1.8315 -0.6445
 2613TIP3   OH229253   3.219   6.783  16.325  0.3017 -0.1154  0.3024
 2613TIP3    H129254   3.240   6.876  16.319 -0.5256  0.1776  1.6527
 2613TIP3    H229255   3.167   6.776  16.405 -1.8238 -1.3225 -1.1515
 2614TIP3   OH229256   4.209   2.473  12.780  0.0593  0.5707 -0.2991
 2614TIP3    H129257   4.279   2.429  12.827  0.6994  0.5523 -1.2625
 2614TIP3    H229258   4.232   2.566  12.782 -0.5639  0.7136  0.5086
 2615TIP3   OH229259   0.251   4.743  15.908 -0.1175 -0.1193 -0.2772
 2615TIP3    H129260   0.172   4.734  15.855 -0.9015  0.5833  0.7526
 2615TIP3    H229261   0.288   4.654  15.911 -1.1967 -0.5756 -0.2505
 2616TIP3   OH229262   0.324   3.590   4.751 -0.0878  0.2476  0.4535
 2616TIP3    H129263   0.397   3.529   4.759  0.4298  0.9312  0.9772
 2616TIP3    H229264   0.359   3.662   4.698  0.5692  1.9979  3.1592
 2617TIP3   OH229265   6.548   6.522   1.102 -0.3197  0.0599  0.1759
 2617TIP3    H129266   6.488   6.506   1.175 -1.0101  1.9632  0.0739
 2617TIP3    H229267   6.616   6.578   1.140  1.1430 -1.6540  0.1578
 2618TIP3   OH229268   1.495   2.866  12.900  0.5850  0.3960 -0.1678
 2618TIP3    H129269   1.498   2.774  12.875 -0.8251  0.9804 -2.6953
 2618TIP3    H229270   1.507   2.913  12.817  2.0697  2.5088  1.1847
 2619TIP3   OH229271   0.793   5.468  14.773  0.1578  0.2337 -0.1747
 2619TIP3    H129272   0.772   5.449  14.681 -0.1466  1.6978 -0.4187
 2619TIP3    H229273   0.719   5.432  14.822 -0.1980  0.3951 -0.5887
 2620TIP3   OH229274   1.327   1.250   6.369  0.4301  0.2832 -0.5510
 2620TIP3    H129275   1.312   1.161   6.336  1.2837 -0.4914  1.1373
 2620TIP3    H229276   1.371   1.295   6.296 -0.5867 -0.4543 -1.6510
 2621TIP3   OH229277   4.545   0.106  17.006 -0.5911  0.3195  0.1054
 2621TIP3    H129278   4.508   0.182  16.963 -1.5532 -0.6135 -0.7596
 2621TIP3    H229279   4.497   0.032  16.969  0.7984 -0.7614  0.4141
 2622TIP3   OH229280   5.472   2.825  16.817 -0.1155  0.7174  0.3678
 2622TIP3    H129281   5.560   2.843  16.782 -0.9770  1.6642 -1.3698
 2622TIP3    H229282   5.439   2.910  16.844 -0.5489  0.3800  0.9043
 2623TIP3   OH229283   3.308   5.675   5.015  0.3243  1.3374 -0.5770
 2623TIP3    H129284   3.320   5.694   5.108 -3.5190  0.4061  0.1818
 2623TIP3    H229285   3.292   5.760   4.975 -0.8075  1.4621  0.1140
 2624TIP3   OH229286   6.715   0.749   4.249  0.5598 -0.0306 -0.1966
 2624TIP3    H129287   6.660   0.797   4.187  0.7615  0.0914 -0.2861
 2624TIP3    H229288   6.654   0.708   4.309  0.3261 -0.9759 -1.0762
 2625TIP3   OH229289   0.610   2.573   5.978  0.4039  0.3126  0.8234
 2625TIP3    H129290   0.681   2.633   6.003 -0.3463  1.3271  0.5829
 2625TIP3    H229291   0.540   2.631   5.949  0.1364 -0.7208 -0.6863
 2626TIP3   OH229292   2.498   0.890   0.799 -0.2161  0.1821 -0.2180
 2626TIP3    H129293   2.583   0.848   0.786  0.6312  2.7257 -3.8187
 2626TIP3    H229294   2.497   0.914   0.891  1.6236 -2.6574  0.6104
 2627TIP3   OH229295   3.989   4.729  16.875 -0.4759  0.3114  0.6331
 2627TIP3    H129296   3.904   4.760  16.906 -1.0212  0.2754 -0.7883
 2627TIP3    H229297   3.969   4.649  16.827  0.1961  0.9465 -0.7337
 2628TIP3   OH229298   2.842   5.004   4.759 -0.5455  0.2735 -0.0468
 2628TIP3    H129299   2.878   5.050   4.834  0.5455  0.4098 -0.6401
 2628TIP3    H229300   2.797   5.072   4.708  1.8386  0.9109 -1.3977
 2629TIP3   OH229301   5.565   6.602   3.721 -0.0737  0.0053 -0.1285
 2629TIP3    H129302   5.649   6.580   3.681 -0.1322  1.6846 -1.2121
 2629TIP3    H229303   5.588   6.633   3.809  0.2289 -1.6751  0.4093
 2630TIP3   OH229304   1.122   4.516  14.727  0.1407 -0.1058  0.4453
 2630TIP3    H129305   1.105   4.605  14.697 -0.0516 -0.7722 -1.5281
 2630TIP3    H229306   1.212   4.518  14.759  0.0953  0.8247  0.5323
 2631TIP3   OH229307   2.874   1.294   5.668  0.0580  0.1676  0.4122
 2631TIP3    H129308   2.832   1.289   5.754 -0.7802  1.6489  0.1114
 2631TIP3    H229309   2.871   1.205   5.634  0.6302 -0.4822  2.0191
 2632TIP3   OH229310   5.350   5.961   2.119 -0.4558  0.0199  0.1242
 2632TIP3    H129311   5.438   5.990   2.097 -0.1676  1.0247  2.4906
 2632TIP3    H229312   5.346   5.870   2.089  1.1243  0.2198 -0.6934
 2633TIP3   OH229313   5.274   5.315  14.287  0.4162  0.6215  0.2159
 2633TIP3    H129314   5.334   5.388  14.270  2.6865 -0.8633  1.6246
 2633TIP3    H229315   5.325   5.237  14.268 -0.9567 -0.6941  1.7765
 2634TIP3   OH229316   4.172   2.628   0.025  0.0121 -0.7563  0.4491
 2634TIP3    H129317   4.144   2.557  -0.032  0.1634  1.1558 -2.1106
 2634TIP3    H229318   4.268   2.625   0.022  0.0191 -0.3991  0.2975
 2635TIP3   OH229319   2.379   1.351   3.229  0.1153  0.3255  0.3472
 2635TIP3    H129320   2.455   1.405   3.252  0.7066  0.1371 -1.0958
 2635TIP3    H229321   2.396   1.322   3.140  0.2903 -3.1315  1.4446
 2636TIP3   OH229322   2.577   0.151   4.034  0.1331  0.3341 -0.2137
 2636TIP3    H129323   2.630   0.218   3.990  0.8258 -1.7624 -2.6596
 2636TIP3    H229324   2.642   0.090   4.070 -0.5644 -0.9615 -1.1410
 2637TIP3   OH229325   6.161   0.325  11.869 -0.7691  0.0155  0.2902
 2637TIP3    H129326   6.229   0.391  11.877  0.6117 -1.1723 -1.2092
 2637TIP3    H229327   6.088   0.370  11.826  0.0949  0.6127 -0.5646
 2638TIP3   OH229328   2.666   0.512   4.259  0.5194  0.0301 -0.3495
 2638TIP3    H129329   2.642   0.428   4.299 -0.6463  0.4990 -0.0639
 2638TIP3    H229330   2.618   0.513   4.176  1.1587  0.0735 -0.7267
 2639TIP3   OH229331   5.514   1.375  13.828  0.2775  0.2336  0.1048
 2639TIP3    H129332   5.436   1.428  13.850 -0.2410  1.0393 -3.4310
 2639TIP3    H229333   5.481   1.285  13.823 -0.3045  0.4877 -0.7235
 2640TIP3   OH229334   1.333   0.018   4.730 -0.2807  0.2521 -0.2404
 2640TIP3    H129335   1.239  -0.002   4.730  0.0698 -1.4361 -1.1559
 2640TIP3    H229336   1.339   0.100   4.681 -1.2823  0.4481 -0.0612
 2641TIP3   OH229337   2.989   3.492  13.537 -0.4086 -0.0175 -0.3965
 2641TIP3    H129338   3.054   3.421  13.537  0.5712  0.8425  1.4609
 2641TIP3    H229339   3.034   3.565  13.580 -1.9320  1.2595 -0.9272
 2642TIP3   OH229340   2.801   4.960   2.105  0.0146  0.1287 -0.1849
 2642TIP3    H129341   2.860   4.978   2.033  0.4234 -0.8904 -0.1121
 2642TIP3    H229342   2.730   5.023   2.095  1.2110  1.4960 -0.1553
 2643TIP3   OH229343   4.880   1.852  13.795 -0.2336 -0.1780 -0.0427
 2643TIP3    H129344   4.811   1.850  13.861 -0.4009  0.1601 -0.2081
 2643TIP3    H229345   4.839   1.817  13.716 -0.0672 -0.4674 -0.0036
 2644TIP3   OH229346   6.061   1.065  14.688  0.1888 -0.4546 -0.1570
 2644TIP3    H129347   6.148   1.034  14.661 -0.3279 -1.5912 -0.5514
 2644TIP3    H229348   6.079   1.127  14.758  1.3678 -0.1432 -0.7134
 2645TIP3   OH229349   5.378   1.174   1.094 -0.6104 -0.3750 -0.0784
 2645TIP3    H129350   5.382   1.087   1.056 -2.0503 -0.0484 -1.0343
 2645TIP3    H229351   5.404   1.233   1.023  0.2486 -0.0152  0.5265
 2646TIP3   OH229352   5.414   3.788   2.623  0.1626 -0.2895 -0.0979
 2646TIP3    H129353   5.374   3.794   2.536  0.4449  1.3078 -0.1443
 2646TIP3    H229354   5.352   3.738   2.674 -0.2353 -0.8435 -1.1016
 2647TIP3   OH229355   2.224   3.778   5.013  0.1267  0.5502 -0.5823
 2647TIP3    H129356   2.296   3.813   5.066 -0.0671 -0.5964  0.4430
 2647TIP3    H229357   2.264   3.707   4.963 -0.0536  0.6244 -0.8344
 2648TIP3   OH229358   3.462   2.970   3.862  0.0018 -0.5300 -0.5186
 2648TIP3    H129359   3.406   3.004   3.792  0.6676 -0.8500 -1.2098
 2648TIP3    H229360   3.437   2.878   3.870  0.4088 -0.6647 -0.8059
 2649TIP3   OH229361   0.946   3.008  15.979  0.5088  0.3029 -0.4240
 2649TIP3    H129362   1.007   2.953  15.931  0.7110  0.4481 -0.3362
 2649TIP3    H229363   0.888   3.044  15.912  0.2541 -0.1679 -0.4571
 2650TIP3   OH229364   2.255   0.370  16.022 -0.2351 -0.1836 -0.0649
 2650TIP3    H129365   2.269   0.452  16.069  0.4756 -0.2075 -0.2310
 2650TIP3    H229366   2.166   0.377  15.988  1.2128  2.3193 -3.6132
 2651TIP3   OH229367   2.474   1.134  14.428  0.1407  0.3964 -0.2370
 2651TIP3    H129368   2.408   1.115  14.495 -0.2737 -0.6580 -0.9347
 2651TIP3    H229369   2.437   1.208  14.379 -0.1496  0.3383 -0.1116
 2652TIP3   OH229370   6.273   0.855  14.933  0.5965  0.2278  0.7070
 2652TIP3    H129371   6.245   0.770  14.968  0.3787  0.4809  1.1442
 2652TIP3    H229372   6.302   0.835  14.844 -1.6073  0.0805  0.0074
 2653TIP3   OH229373   1.714   3.926   1.172 -0.0261 -0.0843  0.0371
 2653TIP3    H129374   1.742   3.835   1.182  0.9474  0.0426 -1.3838
 2653TIP3    H229375   1.791   3.971   1.137 -1.0068  0.9486 -0.8142
 2654TIP3   OH229376   5.398   2.116  14.113  0.0405  0.0499  0.6338
 2654TIP3    H129377   5.425   2.101  14.203 -0.5443 -0.0090  0.8017
 2654TIP3    H229378   5.360   2.033  14.084  1.4443 -0.3542 -0.1161
 2655TIP3   OH229379   5.484   6.405  14.456 -0.1439  0.0553  0.5573
 2655TIP3    H129380   5.514   6.488  14.492  0.2180 -0.5086  1.6119
 2655TIP3    H229381   5.556   6.344  14.474 -0.9444 -0.7772  0.9953
 2656TIP3   OH229382   2.655   3.405   2.678  0.0832 -0.0228 -0.0750
 2656TIP3    H129383   2.607   3.416   2.759  1.7143  0.9971  0.7804
 2656TIP3    H229384   2.673   3.311   2.673 -0.2524 -0.1229  0.6140
 2657TIP3   OH229385   1.269   3.124   3.518  0.0933 -0.1049 -0.5895
 2657TIP3    H129386   1.245   3.104   3.427 -0.6506 -0.8364 -0.2403
 2657TIP3    H229387   1.186   3.121   3.566  0.6360 -0.8864  0.3146
 2658TIP3   OH229388   1.938   0.003   5.427  0.6875  0.1238  0.3831
 2658TIP3    H129389   1.858   0.008   5.374  0.4667 -1.3099  0.5691
 2658TIP3    H229390   1.986   0.083   5.406 -0.1026  0.2795 -0.8572
 2659TIP3   OH229391   5.420   3.776   6.130  0.0043  0.4989 -0.0871
 2659TIP3    H129392   5.381   3.703   6.178  1.7904  0.4124  1.3197
 2659TIP3    H229393   5.400   3.853   6.183  1.9412  0.4101  0.8453
 2660TIP3   OH229394   0.417   1.657   1.011  0.1227 -1.1905  0.4586
 2660TIP3    H129395   0.372   1.741   1.001 -0.0542 -1.3183  0.1800
 2660TIP3    H229396   0.371   1.614   1.083  0.3258 -0.9753  0.7180
 2661TIP3   OH229397   0.939   5.824  13.924  0.3166 -0.0497 -0.1182
 2661TIP3    H129398   0.858   5.868  13.950  0.4085  1.1769 -1.8334
 2661TIP3    H229399   0.937   5.740  13.970 -0.1098  1.5093  2.8177
 2662TIP3   OH229400   2.619   2.156  14.036  0.0264 -0.2820 -0.4011
 2662TIP3    H129401   2.576   2.118  13.959 -1.9330 -1.0934  1.0504
 2662TIP3    H229402   2.656   2.238  14.004 -1.6258 -0.1090 -1.9752
 2663TIP3   OH229403   3.030   2.292  12.712  0.1772 -0.2574 -0.3982
 2663TIP3    H129404   2.970   2.349  12.665 -1.7352  0.5843  2.8591
 2663TIP3    H229405   2.980   2.211  12.725  0.4555 -0.2848  0.5812
 2664TIP3   OH229406   2.095   5.878   2.597 -0.0959  0.0796  0.2759
 2664TIP3    H129407   2.152   5.955   2.596  2.3285 -1.6522 -0.7158
 2664TIP3    H229408   2.090   5.853   2.689  1.5536 -0.2931  0.2863
 2665TIP3   OH229409   4.548   3.281   3.211 -0.3776 -0.0352 -0.1797
 2665TIP3    H129410   4.584   3.303   3.297 -0.4216  0.4900 -0.2966
 2665TIP3    H229411   4.624   3.274   3.154 -0.5152  1.9022 -0.6146
 2666TIP3   OH229412   4.300   4.732   2.351 -0.6392  0.0759  0.2944
 2666TIP3    H129413   4.267   4.798   2.413 -0.8714 -0.6915  0.9919
 2666TIP3    H229414   4.255   4.752   2.269 -1.4016  0.2162  0.7415
 2667TIP3   OH229415   6.349   4.918  15.052 -0.4195 -0.1530  0.0253
 2667TIP3    H129416   6.406   4.844  15.033 -1.0457 -1.1535  1.9741
 2667TIP3    H229417   6.306   4.937  14.969  2.6476  0.5584 -1.4684
 2668TIP3   OH229418   4.813   3.872  16.750  0.1191  0.6448 -0.0283
 2668TIP3    H129419   4.893   3.861  16.699 -1.2045  1.8722 -2.5080
 2668TIP3    H229420   4.775   3.785  16.755 -0.4869  0.7142 -2.5518
 2669TIP3   OH229421   4.860   2.361   2.948  0.1592 -0.1829  0.7347
 2669TIP3    H129422   4.947   2.374   2.911  0.4990 -1.2102  1.1705
 2669TIP3    H229423   4.803   2.350   2.872  0.6903 -1.2563  0.4793
 2670TIP3   OH229424   3.319   2.534  15.470  0.2840 -0.0038 -0.2322
 2670TIP3    H129425   3.227   2.524  15.497  0.0163  2.4424 -0.1607
 2670TIP3    H229426   3.320   2.507  15.379 -0.9405  1.8844 -0.8359
 2671TIP3   OH229427   3.929   4.290  12.784  0.1819 -0.2175 -0.0527
 2671TIP3    H129428   3.988   4.225  12.745  1.0161 -0.3947  1.4722
 2671TIP3    H229429   3.845   4.275  12.740  0.7091 -1.4437 -0.6681
 2672TIP3   OH229430   1.421   2.923  15.462  0.1018 -0.1777  0.2343
 2672TIP3    H129431   1.381   2.885  15.540 -0.0810  0.8013  0.6202
 2672TIP3    H229432   1.476   2.994  15.495 -1.9802  1.9329 -0.7141
 2673TIP3   OH229433   1.414   0.895  15.960 -0.5974  0.7185  0.1459
 2673TIP3    H129434   1.457   0.842  16.028  0.7369 -0.5813 -1.6490
 2673TIP3    H229435   1.484   0.948  15.923 -1.6753  2.7880  0.9898
 2674TIP3   OH229436   6.210   0.697  11.886  0.0619 -0.0312 -0.8328
 2674TIP3    H129437   6.222   0.742  11.802  0.2207  0.3259 -0.6229
 2674TIP3    H229438   6.170   0.764  11.942 -0.5839 -0.4494 -0.8003
 2675TIP3   OH229439   1.963   6.061  11.449  0.1219  0.1593 -0.4060
 2675TIP3    H129440   1.937   5.970  11.437 -1.3614  0.2943  1.4507
 2675TIP3    H229441   1.940   6.104  11.367  0.6996 -1.1040 -1.2386
 2676TIP3   OH229442   1.194   3.308   0.563 -0.1732  0.1835 -0.5469
 2676TIP3    H129443   1.220   3.216   0.567 -0.6797  0.0936  1.1305
 2676TIP3    H229444   1.107   3.307   0.522 -1.4420 -0.3838  2.0845
 2677TIP3   OH229445   1.889   2.177   3.726  0.0962  0.0892  0.2083
 2677TIP3    H129446   1.891   2.230   3.646 -0.1286  1.1082  0.8709
 2677TIP3    H229447   1.915   2.089   3.697 -0.6966  0.2751 -1.1125
 2678TIP3   OH229448   0.677   0.326  11.348  0.0014  0.2086  0.2501
 2678TIP3    H129449   0.696   0.370  11.265 -2.5904 -1.3206 -1.2446
 2678TIP3    H229450   0.725   0.243  11.342  0.8080  0.6220  0.8508
 2679TIP3   OH229451   4.604   6.645   0.832  0.6797 -0.6004  0.2396
 2679TIP3    H129452   4.670   6.606   0.889  0.8285  1.0608  1.2173
 2679TIP3    H229453   4.521   6.610   0.864  0.7837  0.1616  1.3416
 2680TIP3   OH229454   6.754   6.451   3.933  0.3170  0.2201  0.3782
 2680TIP3    H129455   6.785   6.541   3.945 -3.8939  1.5732  1.9607
 2680TIP3    H229456   6.685   6.458   3.868 -0.0872 -1.9011  0.5448
 2681TIP3   OH229457   3.544   1.733  12.673  0.4390  0.4458  0.0627
 2681TIP3    H129458   3.524   1.744  12.766  1.5245 -0.8475  0.4567
 2681TIP3    H229459   3.526   1.641  12.654 -0.8500  0.9520 -1.2884
 2682TIP3   OH229460   4.844   1.840   3.354 -0.1945 -0.6626  0.4084
 2682TIP3    H129461   4.762   1.801   3.323 -1.2104  1.1202  0.7876
 2682TIP3    H229462   4.904   1.831   3.280 -0.6962 -2.0509  0.1486
 2683TIP3   OH229463   1.761   1.568  16.384  0.7169 -0.3584 -0.6527
 2683TIP3    H129464   1.841   1.620  16.377  1.2792 -1.0669  0.2831
 2683TIP3    H229465   1.767   1.507  16.311  0.5206  0.2732 -1.1962
 2684TIP3   OH229466   1.609   3.423   1.722 -0.0662  0.2895 -0.4666
 2684TIP3    H129467   1.573   3.339   1.750 -0.4123  0.4122 -0.5441
 2684TIP3    H229468   1.667   3.449   1.794 -0.3261  0.2154 -0.2291
 2685TIP3   OH229469   6.761   1.995   0.509  0.2476 -0.5038 -0.3951
 2685TIP3    H129470   6.684   1.985   0.565 -0.9248 -0.7581 -2.0021
 2685TIP3    H229471   6.726   2.024   0.425  1.8818 -0.8512 -1.2264
 2686TIP3   OH229472   2.415   3.755   3.607 -0.2909  0.0265 -0.3812
 2686TIP3    H129473   2.355   3.829   3.604  1.7004  1.6708 -1.5436
 2686TIP3    H229474   2.389   3.705   3.684 -2.2393  1.4393 -0.0882
 2687TIP3   OH229475   0.743   5.705   4.614 -0.5740 -0.3275  0.3878
 2687TIP3    H129476   0.763   5.649   4.689  1.9834  0.0606  0.0444
 2687TIP3    H229477   0.746   5.794   4.649 -0.1245 -0.1864  0.0025
 2688TIP3   OH229478   4.997   3.090   0.685  0.2432  0.1140 -0.0375
 2688TIP3    H129479   4.986   3.130   0.771  2.1762 -0.4182  0.5029
 2688TIP3    H229480   5.043   3.007   0.703 -3.1666 -2.1085 -1.1712
 2689TIP3   OH229481   1.482   1.267  16.468 -0.0271  0.5923  0.4608
 2689TIP3    H129482   1.498   1.361  16.463 -0.7416  0.7774  1.5262
 2689TIP3    H229483   1.438   1.254  16.552 -1.9752 -0.3746 -0.6496
 2690TIP3   OH229484   4.070   2.037   0.953  0.2245  0.1621 -0.0170
 2690TIP3    H129485   4.085   1.960   0.899  1.3359 -0.8766  1.6994
 2690TIP3    H229486   3.976   2.038   0.969 -0.0058  0.0705 -1.3493
 2691TIP3   OH229487   0.605   1.691   0.218 -0.0810  0.5503 -0.4057
 2691TIP3    H129488   0.636   1.781   0.208  0.8708  0.5623  2.3511
 2691TIP3    H229489   0.672   1.648   0.270 -1.5039 -1.2277  0.0088
 2692TIP3   OH229490   1.279   6.479   2.829  0.7798 -0.2491 -0.1777
 2692TIP3    H129491   1.341   6.544   2.798  1.0007 -0.1211  0.5124
 2692TIP3    H229492   1.264   6.503   2.921  0.4409 -0.8385 -0.0787
 2693TIP3   OH229493   5.221   0.223   6.429  0.8376 -0.7205 -0.3160
 2693TIP3    H129494   5.279   0.150   6.411 -1.1715 -2.3764 -0.2332
 2693TIP3    H229495   5.133   0.190   6.411 -0.2150  1.3004  0.8198
 2694TIP3   OH229496   2.232   5.154   2.817  0.0919 -0.6284  0.0228
 2694TIP3    H129497   2.272   5.210   2.884 -0.2856 -0.5532  0.1832
 2694TIP3    H229498   2.304   5.137   2.756  0.2866 -0.2009  0.1235
 2695TIP3   OH229499   6.331   1.243  15.536 -0.0595  0.5966 -0.6437
 2695TIP3    H129500   6.261   1.287  15.488 -0.2083  1.3117  0.2057
 2695TIP3    H229501   6.329   1.283  15.624  1.2573  0.4786 -0.5422
 2696TIP3   OH229502   2.518   6.455   2.248  1.0459 -0.6151  0.3734
 2696TIP3    H129503   2.605   6.495   2.252  1.5343 -1.6051  0.0430
 2696TIP3    H229504   2.512   6.420   2.159 -1.2051  2.6935 -0.8563
 2697TIP3   OH229505   1.071   2.241  14.076  0.0748 -0.1236 -0.3830
 2697TIP3    H129506   1.121   2.176  14.126  0.6216  0.6863  0.1180
 2697TIP3    H229507   0.985   2.241  14.118 -0.8850 -2.6195 -2.1855
 2698TIP3   OH229508   3.029   0.148  12.302 -0.4597 -0.1965 -0.7838
 2698TIP3    H129509   2.936   0.130  12.317 -0.3058 -1.8469 -1.7102
 2698TIP3    H229510   3.034   0.174  12.210 -0.0066  0.0090 -0.7025
 2699TIP3   OH229511   6.307   4.518   4.501  0.2479 -0.5451  0.3407
 2699TIP3    H129512   6.376   4.489   4.441  0.8996  0.6783  0.4828
 2699TIP3    H229513   6.324   4.470   4.582  2.2872  1.3811  1.0962
 2700TIP3   OH229514   6.764   2.715   3.015  0.3078  0.0626  0.1445
 2700TIP3    H129515   6.823   2.757   3.078  0.0661  0.8195 -0.1344
 2700TIP3    H229516   6.815   2.642   2.980  0.3895 -0.4750  1.3473
 2701TIP3   OH229517   4.306   3.729  10.554 -0.6190  0.1776 -0.2703
 2701TIP3    H129518   4.279   3.731  10.462  0.1105 -0.7362 -0.5172
 2701TIP3    H229519   4.238   3.676  10.598 -0.0699 -0.8199 -0.6058
 2702TIP3   OH229520   0.619   0.404  13.162 -0.2115  0.1801 -0.3060
 2702TIP3    H129521   0.651   0.316  13.178 -1.1090 -0.3655 -1.4286
 2702TIP3    H229522   0.622   0.414  13.066  0.2434  1.4963 -0.1695
 2703TIP3   OH229523   5.077   3.495   5.130  0.4441 -0.3529  0.1674
 2703TIP3    H129524   4.988   3.529   5.141  0.3802 -0.3750 -0.2746
 2703TIP3    H229525   5.076   3.451   5.045  0.3839 -1.9019  0.9517
 2704TIP3   OH229526   5.656   5.166  11.782  0.1076  0.2895 -0.0120
 2704TIP3    H129527   5.577   5.124  11.816  0.6626  0.5370  1.6622
 2704TIP3    H229528   5.645   5.259  11.804 -0.6964  0.9178 -2.8577
 2705TIP3   OH229529   3.453   5.927   6.134 -0.3597  0.1947 -0.4032
 2705TIP3    H129530   3.387   5.860   6.119 -1.2527  1.3854 -1.9540
 2705TIP3    H229531   3.448   5.946   6.228 -0.3402 -1.6356 -0.0174
 2706TIP3   OH229532   4.173   6.280   1.747  0.6295  0.3237 -0.2736
 2706TIP3    H129533   4.181   6.212   1.814 -1.3315 -0.4230 -0.7703
 2706TIP3    H229534   4.156   6.232   1.666 -2.1889  1.4250 -0.3978
 2707TIP3   OH229535   4.121   5.572   1.024 -0.3303  0.0339 -0.1237
 2707TIP3    H129536   4.044   5.619   1.058 -2.3260 -2.3072 -1.2350
 2707TIP3    H229537   4.182   5.569   1.098 -0.9256  2.6983  0.5188
 2708TIP3   OH229538   5.452   3.501  10.661 -0.7036 -0.9464  0.4830
 2708TIP3    H129539   5.500   3.541  10.589 -2.2866 -2.2365 -1.3439
 2708TIP3    H229540   5.494   3.415  10.673  0.2550 -0.3122  1.8661
 2709TIP3   OH229541   0.320   3.824   4.025 -0.4871  0.4063  0.3574
 2709TIP3    H129542   0.341   3.909   3.986 -1.1714  1.2529  1.7785
 2709TIP3    H229543   0.305   3.844   4.118  1.2920 -1.5777  1.1025
 2710TIP3   OH229544   1.117   6.281  16.311  0.1214  0.2182 -0.2629
 2710TIP3    H129545   1.115   6.313  16.402  0.0203 -0.3743 -0.0567
 2710TIP3    H229546   1.179   6.340  16.267 -0.4847  1.0452 -0.0246
 2711TIP3   OH229547   3.498   5.240  15.819 -0.3891  1.0267 -0.5415
 2711TIP3    H129548   3.489   5.311  15.756 -2.3760  2.5460  1.3786
 2711TIP3    H229549   3.530   5.282  15.899  2.0839 -0.8605 -0.4743
 2712TIP3   OH229550   4.505   3.029   1.911 -0.3315 -0.1738 -0.3176
 2712TIP3    H129551   4.474   3.059   1.996  1.3316  2.7748 -0.6857
 2712TIP3    H229552   4.472   2.939   1.903 -2.0326  0.1479  2.6184
 2713TIP3   OH229553   6.396   3.925   4.149  0.3312 -0.1709 -0.1463
 2713TIP3    H129554   6.470   3.980   4.123 -0.6286  1.0860 -0.3332
 2713TIP3    H229555   6.343   3.917   4.069 -0.8416  0.7844  0.5152
 2714TIP3   OH229556   1.345   4.560   6.034 -0.2404 -0.2219 -0.1650
 2714TIP3    H129557   1.429   4.544   6.076  0.2465 -1.2422 -1.4877
 2714TIP3    H229558   1.339   4.655   6.026  0.7435 -0.1468  0.0066
 2715TIP3   OH229559   0.926   4.703  10.485 -0.3586 -0.2264 -0.5026
 2715TIP3    H129560   0.950   4.684  10.394  1.2977 -0.8254  0.0304
 2715TIP3    H229561   0.950   4.623  10.533 -0.0860  0.5274  0.6349
 2716TIP3   OH229562   1.746   3.174  14.820 -0.0501 -0.6991  0.3022
 2716TIP3    H129563   1.692   3.098  14.842  0.1089 -1.1576 -0.8653
 2716TIP3    H229564   1.786   3.199  14.903 -4.0627  1.2546  1.7659
 2717TIP3   OH229565   6.244   0.480  14.192 -0.2175  0.2894 -0.0827
 2717TIP3    H129566   6.203   0.537  14.127  0.1255 -0.3791 -0.9034
 2717TIP3    H229567   6.338   0.485  14.172 -0.0183  0.8115  0.9597
 2718TIP3   OH229568   0.803   0.671  14.826 -0.2966  0.7674 -0.6933
 2718TIP3    H129569   0.814   0.760  14.791  2.6176  0.5106 -0.5614
 2718TIP3    H229570   0.809   0.614  14.750  1.1350  0.4962 -0.3826
 2719TIP3   OH229571   3.585   4.227   5.532  1.1601 -0.2618  0.0187
 2719TIP3    H129572   3.665   4.271   5.561  2.3828 -0.4542 -2.9776
 2719TIP3    H229573   3.614   4.143   5.499 -0.3986 -0.6769 -0.3464
 2720TIP3   OH229574   3.571   5.169  14.843 -0.4391 -0.4659  0.1833
 2720TIP3    H129575   3.599   5.106  14.909  1.8901 -1.6685 -1.8489
 2720TIP3    H229576   3.563   5.116  14.763 -0.7369  1.4079 -1.0404
 2721TIP3   OH229577   0.525   6.645  13.480 -0.0132  0.5592  0.1342
 2721TIP3    H129578   0.564   6.683  13.558 -0.2305 -0.6864  0.8725
 2721TIP3    H229579   0.577   6.679  13.408  2.1630 -0.6689  1.0645
 2722TIP3   OH229580   4.419   2.461  13.315  0.3241  0.0037  0.8164
 2722TIP3    H129581   4.403   2.471  13.409  0.7779  0.7257  0.8279
 2722TIP3    H229582   4.480   2.532  13.294  1.8060 -1.3992  0.3734
 2723TIP3   OH229583   0.918   6.724  11.950 -0.3462 -0.1656  0.7339
 2723TIP3    H129584   0.934   6.780  11.875 -0.8379  0.8480  1.3774
 2723TIP3    H229585   0.928   6.781  12.026 -0.3772 -1.0514  1.4189
 2724TIP3   OH229586   3.545   1.816   3.823  0.8119  0.2109  0.1712
 2724TIP3    H129587   3.470   1.859   3.783  0.5516 -0.8231 -0.4745
 2724TIP3    H229588   3.510   1.777   3.903  0.1451 -2.0554 -1.1697
 2725TIP3   OH229589   0.144   1.642  12.646  0.1196 -0.1293  0.4143
 2725TIP3    H129590   0.187   1.646  12.561  1.5837  0.0402  1.1464
 2725TIP3    H229591   0.158   1.729  12.684  0.0395 -0.4049  1.0911
 2726TIP3   OH229592   0.300   4.083  11.966 -0.0230  0.0653  0.0988
 2726TIP3    H129593   0.347   4.107  11.886 -0.3129 -0.0538 -0.1086
 2726TIP3    H229594   0.208   4.092  11.943 -0.0965  1.0298  0.7287
 2727TIP3   OH229595   1.295   2.145  12.365 -0.2824 -0.3044  0.2879
 2727TIP3    H129596   1.354   2.209  12.404 -0.2547 -0.1114 -0.0674
 2727TIP3    H229597   1.225   2.134  12.430 -0.6423  0.5970  0.0585
 2728TIP3   OH229598   2.091   5.537   5.712 -0.3216 -0.4102  0.3690
 2728TIP3    H129599   2.096   5.464   5.650  0.0512  0.4379 -0.6094
 2728TIP3    H229600   2.006   5.525   5.755  0.8717 -2.9335  2.1356
 2729TIP3   OH229601   0.855   4.932   1.082 -0.3563  0.3945 -0.0920
 2729TIP3    H129602   0.932   4.988   1.081  0.8838 -1.2627  0.5459
 2729TIP3    H229603   0.853   4.893   0.994  0.3301 -0.6108  0.3319
 2730TIP3   OH229604   1.434   1.755  11.085  0.1563 -0.3252 -0.4115
 2730TIP3    H129605   1.346   1.793  11.091  0.3059 -0.3211  2.4387
 2730TIP3    H229606   1.419   1.660  11.082 -0.0335 -0.2627 -3.3621
 2731TIP3   OH229607   3.251   5.124   3.450 -0.0600 -0.2173  0.1276
 2731TIP3    H129608   3.157   5.140   3.439  0.1720  1.2842  0.1520
 2731TIP3    H229609   3.280   5.193   3.509  1.1143 -0.5030 -0.0989
 2732TIP3   OH229610   1.840   3.412   5.430  0.0902  0.1428  0.5682
 2732TIP3    H129611   1.900   3.382   5.361 -0.7468 -1.7999  0.6487
 2732TIP3    H229612   1.754   3.412   5.388 -0.3883 -0.8377  1.5201
 2733TIP3   OH229613   0.702   5.233   2.991  0.7487 -0.3737  0.7259
 2733TIP3    H129614   0.663   5.310   2.948  1.8733  0.2115  0.7254
 2733TIP3    H229615   0.654   5.159   2.955 -1.0601  0.3921  1.4918
 2734TIP3   OH229616   1.247   5.171  13.037 -0.2614  0.1310 -0.5553
 2734TIP3    H129617   1.276   5.182  13.127  0.5272  0.2051 -0.8145
 2734TIP3    H229618   1.327   5.155  12.988 -0.4174  2.4630 -1.6113
 2735TIP3   OH229619   3.985   1.942  11.236  0.0293  0.1616 -0.0979
 2735TIP3    H129620   3.968   1.867  11.292  0.2994  0.6597  0.6659
 2735TIP3    H229621   4.067   1.921  11.191 -0.2257 -0.2693 -0.3579
 2736TIP3   OH229622   3.827   2.970   2.748  0.2960 -0.5156 -0.6441
 2736TIP3    H129623   3.736   2.994   2.764  0.8820  0.6443  1.1706
 2736TIP3    H229624   3.877   3.024   2.809  2.2334 -0.8666 -1.8678
 2737TIP3   OH229625   4.428   6.300   4.992  0.0994  0.2169  0.2667
 2737TIP3    H129626   4.334   6.306   5.010  0.1495 -1.1529  1.0594
 2737TIP3    H229627   4.437   6.325   4.900 -0.8911  1.4927  0.5056
 2738TIP3   OH229628   2.661   1.150   3.362  0.3395 -0.2685  0.3220
 2738TIP3    H129629   2.581   1.187   3.400  1.9279  1.1709  2.3892
 2738TIP3    H229630   2.680   1.074   3.417  0.1493 -0.8667 -0.4405
 2739TIP3   OH229631   0.724   0.762   3.509  0.2755 -0.3486  0.3224
 2739TIP3    H129632   0.809   0.737   3.475  0.5655  0.4936  0.4311
 2739TIP3    H229633   0.702   0.693   3.572  0.3815 -1.1390 -0.4967
 2740TIP3   OH229634   3.663   3.435  14.530 -0.3090  0.0741  0.3298
 2740TIP3    H129635   3.754   3.423  14.559  0.4725 -0.3517 -2.1897
 2740TIP3    H229636   3.613   3.373  14.583  0.7688  0.7194  2.1581
 2741TIP3   OH229637   3.682   1.431   2.846  0.4474 -0.6414 -0.1591
 2741TIP3    H129638   3.635   1.489   2.906  0.3711 -0.5016 -0.3517
 2741TIP3    H229639   3.628   1.353   2.840  0.9862 -1.0881  0.7780
 2742TIP3   OH229640   2.360   6.212   1.268 -0.2966 -0.4496  0.2001
 2742TIP3    H129641   2.313   6.128   1.271 -1.0003 -0.0339  1.1653
 2742TIP3    H229642   2.426   6.205   1.337  0.0074 -0.4155 -0.0862
 2743TIP3   OH229643   4.372   2.838  16.447  0.1947 -0.0917  0.1785
 2743TIP3    H129644   4.377   2.860  16.354  0.2876 -0.0816  0.1877
 2743TIP3    H229645   4.279   2.826  16.464  0.1767 -0.0793  0.0875
 2744TIP3   OH229646   5.163   1.206   5.574  0.5700 -0.2999 -0.2724
 2744TIP3    H129647   5.075   1.213   5.612  0.3023 -1.3697 -0.6830
 2744TIP3    H229648   5.154   1.142   5.503  2.0583 -1.8229  0.8566
 2745TIP3   OH229649   2.180   3.869   4.118 -0.0697 -0.3034 -0.2205
 2745TIP3    H129650   2.178   3.787   4.068 -2.8266 -0.1737 -0.4544
 2745TIP3    H229651   2.176   3.842   4.209 -1.8162 -0.4651 -0.3199
 2746TIP3   OH229652   2.508   1.740   1.746  0.0631  0.1240  0.0546
 2746TIP3    H129653   2.572   1.684   1.791 -1.4856 -0.7536  1.1995
 2746TIP3    H229654   2.445   1.764   1.814 -0.4687  1.5367 -0.9108
 2747TIP3   OH229655   6.634   0.501   2.744 -0.2239 -0.1328 -0.0538
 2747TIP3    H129656   6.664   0.411   2.749  0.8964  0.2967  1.4776
 2747TIP3    H229657   6.638   0.523   2.651 -0.3074 -1.5815 -0.4097
 2748TIP3   OH229658   4.546   5.155   0.956  0.2624 -0.0435 -0.1384
 2748TIP3    H129659   4.510   5.160   0.868  0.3309  0.3095 -0.1447
 2748TIP3    H229660   4.478   5.109   1.006  0.6086 -1.0463 -0.5731
 2749TIP3   OH229661   1.909   0.391  13.647 -0.0122  0.1334 -0.2312
 2749TIP3    H129662   1.821   0.429  13.640  0.6259  1.9882  1.2913
 2749TIP3    H229663   1.963   0.447  13.591  0.1893 -1.0547 -1.2257
 2750TIP3   OH229664   5.722   0.189  11.384 -0.4500 -0.1606  0.2921
 2750TIP3    H129665   5.660   0.256  11.414  1.0247  0.9870  0.7943
 2750TIP3    H229666   5.793   0.238  11.343  0.8011 -1.4145  0.9335
 2751TIP3   OH229667   1.824   3.749   1.512  0.0563 -0.5820  0.5205
 2751TIP3    H129668   1.880   3.746   1.435  0.1490 -0.5889  0.5868
 2751TIP3    H229669   1.735   3.743   1.478  0.1080 -0.8545  0.4324
 2752TIP3   OH229670   6.286   4.504   6.151 -0.5673 -0.2096 -0.1083
 2752TIP3    H129671   6.295   4.409   6.156  0.2029 -0.0749  1.1873
 2752TIP3    H229672   6.364   4.534   6.105 -0.4388 -0.1360  0.1578
 2753TIP3   OH229673   3.640   5.485  16.633  0.3756  0.1121  0.4738
 2753TIP3    H129674   3.635   5.391  16.614 -0.7887  0.6074 -1.9539
 2753TIP3    H229675   3.641   5.491  16.728 -0.5425 -2.3220  0.6681
 2754TIP3   OH229676   5.897   2.682  14.464 -0.2413 -0.3599 -0.0352
 2754TIP3    H129677   5.809   2.645  14.469  0.2029 -1.3273  1.0593
 2754TIP3    H229678   5.953   2.617  14.508  1.6255 -1.5830 -4.0393
 2755TIP3   OH229679   6.234   5.401   0.958 -0.1029  0.3389  0.1794
 2755TIP3    H129680   6.268   5.316   0.930 -2.4210 -0.6984  0.3450
 2755TIP3    H229681   6.255   5.460   0.885 -0.0088 -0.7790 -0.7216
 2756TIP3   OH229682   3.203   2.412  15.887 -0.7955 -0.3290 -0.2251
 2756TIP3    H129683   3.139   2.476  15.918  0.5358  1.1149 -0.3927
 2756TIP3    H229684   3.279   2.465  15.860 -0.1817 -1.8758 -1.6270
 2757TIP3   OH229685   5.462   0.591   5.271 -0.1454 -0.8011  0.0441
 2757TIP3    H129686   5.514   0.513   5.250 -0.1675 -0.6922 -0.4107
 2757TIP3    H229687   5.376   0.574   5.233  0.2395  0.0216 -1.2550
 2758TIP3   OH229688   2.307   3.004  15.111  0.3284 -0.2635  0.1542
 2758TIP3    H129689   2.239   3.062  15.079  0.3222  0.3800  1.2876
 2758TIP3    H229690   2.326   3.036  15.199  0.2157 -2.0767  0.8672
 2759TIP3   OH229691   4.969   4.867  12.802  0.9785 -0.5611  0.0258
 2759TIP3    H129692   5.046   4.869  12.745  0.3854 -1.2588 -0.8256
 2759TIP3    H229693   5.005   4.863  12.891  1.9126  2.5568 -0.1691
 2760TIP3   OH229694   3.160   3.995  13.396  0.7938  0.3523  0.4170
 2760TIP3    H129695   3.238   4.049  13.381  1.0729  0.3080  1.6234
 2760TIP3    H229696   3.101   4.051  13.447  1.2666 -0.6102  2.0554
 2761TIP3   OH229697   0.476   4.663   5.113 -0.0141 -0.6085 -0.2168
 2761TIP3    H129698   0.429   4.721   5.053 -1.4293 -2.3109 -0.8405
 2761TIP3    H229699   0.492   4.715   5.191 -1.3545  0.5630 -0.7125
 2762TIP3   OH229700   0.990   4.331   1.566  0.1776  0.2248  0.6506
 2762TIP3    H129701   0.982   4.256   1.506  0.9448 -0.0153  0.8446
 2762TIP3    H229702   0.912   4.324   1.622  0.8094 -1.0899  1.4012
 2763TIP3   OH229703   2.136   1.524   3.234  0.2367  0.1798 -0.6094
 2763TIP3    H129704   2.108   1.479   3.154 -0.7406 -0.6055  0.1563
 2763TIP3    H229705   2.210   1.473   3.266  1.2686  1.0774 -1.5470
 2764TIP3   OH229706   5.615   2.203  16.104  0.6696 -0.5930 -0.0422
 2764TIP3    H129707   5.560   2.142  16.152 -3.0755  2.3929 -0.2770
 2764TIP3    H229708   5.590   2.192  16.013  0.4146  0.7729 -0.1573
 2765TIP3   OH229709   0.633   1.436   5.511  0.0355 -0.6945 -0.3230
 2765TIP3    H129710   0.591   1.436   5.425  2.1681 -0.1555 -1.3819
 2765TIP3    H229711   0.718   1.477   5.497 -0.1032  0.5998  2.3013
 2766TIP3   OH229712   1.386   4.613   2.065  0.0236  0.4306  0.3153
 2766TIP3    H129713   1.363   4.703   2.087  0.3256  0.5917 -0.0258
 2766TIP3    H229714   1.303   4.566   2.067  0.1045  0.3369  2.2778
 2767TIP3   OH229715   4.163   0.302   6.370 -0.3007 -0.4597  0.6222
 2767TIP3    H129716   4.148   0.380   6.424  0.7509  0.2753 -0.1300
 2767TIP3    H229717   4.251   0.272   6.394  0.4787  0.3011 -1.1708
 2768TIP3   OH229718   5.829   3.972   0.399 -0.0531  0.6744  0.0866
 2768TIP3    H129719   5.752   3.942   0.352  1.0996 -1.0512 -0.7568
 2768TIP3    H229720   5.843   4.061   0.368 -1.4174  0.8341 -0.1039
 2769TIP3   OH229721   4.397   2.041   0.178  0.0219 -0.2264 -0.0345
 2769TIP3    H129722   4.430   2.118   0.133  0.1714 -0.3025 -0.0554
 2769TIP3    H229723   4.472   2.008   0.228 -0.9621  1.6339  2.7388
 2770TIP3   OH229724   6.647   1.703  12.098  1.1279 -0.0471 -0.1300
 2770TIP3    H129725   6.556   1.726  12.080  0.8288 -2.4604 -1.9230
 2770TIP3    H229726   6.662   1.734  12.187 -1.0963  1.3944 -0.2256
 2771TIP3   OH229727   4.084   1.840   0.084  0.8762 -0.0865 -0.2595
 2771TIP3    H129728   4.001   1.800   0.058  0.0168  2.7972 -2.0818
 2771TIP3    H229729   4.067   1.877   0.171  0.6717 -0.6816 -0.0425
 2772TIP3   OH229730   1.916   6.199   1.758  0.0303 -0.1352  0.3665
 2772TIP3    H129731   1.828   6.237   1.765  0.7050  1.3749  0.6699
 2772TIP3    H229732   1.975   6.272   1.771  1.3559 -1.4551  2.0721
 2773TIP3   OH229733   2.340   1.603   4.377  0.4551  0.1151 -0.1244
 2773TIP3    H129734   2.422   1.577   4.336  0.8438 -0.9603  1.3219
 2773TIP3    H229735   2.325   1.538   4.445 -1.8609 -0.0037 -0.7051
 2774TIP3   OH229736   0.856   4.153   1.378  0.1307 -0.4595 -0.2497
 2774TIP3    H129737   0.857   4.093   1.303 -0.0943  0.0611 -0.6718
 2774TIP3    H229738   0.781   4.210   1.362  1.2721  0.9629 -0.6759
 2775TIP3   OH229739   5.444   0.956  15.092  0.7523 -0.6511 -0.3831
 2775TIP3    H129740   5.481   1.039  15.122  0.4142 -0.6415  0.0125
 2775TIP3    H229741   5.357   0.953  15.131 -0.1699 -0.1011 -2.3267
 2776TIP3   OH229742   2.834   5.573  16.855  0.2864  0.2638 -0.3791
 2776TIP3    H129743   2.792   5.607  16.777  0.0113  1.0118  0.0912
 2776TIP3    H229744   2.800   5.627  16.926 -0.2170 -1.0439  0.3830
 2777TIP3   OH229745   2.884   0.066   5.997 -0.2418  0.2379  0.4353
 2777TIP3    H129746   2.950   0.128   6.029 -1.1200  1.2413  0.3477
 2777TIP3    H229747   2.820   0.059   6.068 -1.2465  1.0752 -0.3647
 2778TIP3   OH229748   3.547   1.322   3.753  0.3619 -0.1645 -0.0775
 2778TIP3    H129749   3.524   1.297   3.842 -1.3320  0.2619 -0.3934
 2778TIP3    H229750   3.478   1.381   3.725 -0.8015 -2.6855 -2.7736
 2779TIP3   OH229751   4.562   1.894   1.295  0.4015  0.1870 -0.3609
 2779TIP3    H129752   4.477   1.924   1.326  0.2576 -1.0601  0.4555
 2779TIP3    H229753   4.625   1.931   1.358  0.6596  2.5845 -1.9464
 2780TIP3   OH229754   5.077   1.792  10.565 -0.3108 -1.1218 -0.0251
 2780TIP3    H129755   5.160   1.782  10.520  0.9322  0.1042  1.9030
 2780TIP3    H229756   5.030   1.709  10.549  0.4342 -1.0392 -2.7462
 2781TIP3   OH229757   5.966   2.959   6.127  0.0445  0.1183  0.2085
 2781TIP3    H129758   5.905   2.897   6.166  1.6662 -2.4080 -1.2009
 2781TIP3    H229759   6.003   3.007   6.202 -1.9820  0.1468  1.2187
 2782TIP3   OH229760   4.562   5.689   5.004  0.0048 -0.1582 -0.1709
 2782TIP3    H129761   4.622   5.761   5.022 -0.9365  0.3112  1.0885
 2782TIP3    H229762   4.513   5.717   4.927 -1.9705  1.5682  1.6747
 2783TIP3   OH229763   6.416   1.081  12.758  0.1402 -0.1522  0.4762
 2783TIP3    H129764   6.375   0.994  12.760  2.6932 -1.4232  0.3258
 2783TIP3    H229765   6.444   1.096  12.848  0.7485 -0.0037  0.2631
 2784TIP3   OH229766   1.267   3.146  12.393 -0.0615 -0.0739 -0.2274
 2784TIP3    H129767   1.211   3.090  12.447 -0.1664 -0.7168 -0.9830
 2784TIP3    H229768   1.206   3.202  12.345 -0.1184 -1.2319 -1.5551
 2785TIP3   OH229769   3.965   3.723   3.676  0.3776 -0.1237 -0.3699
 2785TIP3    H129770   3.942   3.751   3.765  0.0300 -0.6779 -0.2802
 2785TIP3    H229771   3.942   3.797   3.620 -0.2169 -0.1013 -0.1008
 2786TIP3   OH229772   4.983   5.999  11.759 -1.1268  0.0071  0.4456
 2786TIP3    H129773   4.968   6.094  11.758 -0.0899  0.1787  1.1919
 2786TIP3    H229774   4.903   5.962  11.721 -1.6087  1.1694  0.3167
 2787TIP3   OH229775   1.580   4.538  10.587  0.1484  0.3512 -0.0556
 2787TIP3    H129776   1.546   4.453  10.559  0.6486  0.4805 -1.1029
 2787TIP3    H229777   1.645   4.560  10.520  0.8116  1.0481  0.8081
 2788TIP3   OH229778   5.758   5.095   5.035  1.1212 -0.4666  0.1552
 2788TIP3    H129779   5.790   5.021   5.086  1.2109 -1.0869 -0.8008
 2788TIP3    H229780   5.749   5.165   5.099 -0.2934 -1.6973  1.3330
 2789TIP3   OH229781   2.919   3.108   3.356  0.0805  0.4419 -1.0485
 2789TIP3    H129782   2.982   3.096   3.427 -0.3942 -0.0118 -0.6990
 2789TIP3    H229783   2.917   3.203   3.342 -1.4468  0.7572  1.0497
 2790TIP3   OH229784   3.206   4.330  11.702  0.3008  0.0281  0.1349
 2790TIP3    H129785   3.213   4.247  11.654  0.6487 -1.1600  2.2156
 2790TIP3    H229786   3.144   4.381  11.650 -2.7724 -2.8954  0.7396
 2791TIP3   OH229787   4.946   5.466  12.562 -0.0479  0.4424  0.8116
 2791TIP3    H129788   5.011   5.495  12.498  0.6085  0.6487  1.5509
 2791TIP3    H229789   4.981   5.383  12.596  0.9003  1.5591  2.6909
 2792TIP3   OH229790   2.449   1.042   3.107  0.1949  0.1980 -0.1184
 2792TIP3    H129791   2.454   0.947   3.121 -1.3306  0.0686 -0.4187
 2792TIP3    H229792   2.540   1.072   3.117  0.7427 -1.3299 -0.3152
 2793TIP3   OH229793   0.755   6.585   0.289  0.2901 -0.3738  0.5743
 2793TIP3    H129794   0.702   6.525   0.238 -0.2654  0.3820  0.2568
 2793TIP3    H229795   0.708   6.595   0.372  0.0829  0.0764  0.4020
 2794TIP3   OH229796   3.838   3.005   5.147 -0.0854 -0.4295 -0.2609
 2794TIP3    H129797   3.857   3.063   5.221  0.8778 -2.4119  1.0970
 2794TIP3    H229798   3.804   3.063   5.079  0.2702  1.6265  1.2654
 2795TIP3   OH229799   1.218   3.835   0.310 -0.3519 -0.0996  0.3362
 2795TIP3    H129800   1.218   3.841   0.214 -1.4081 -3.3272  0.0700
 2795TIP3    H229801   1.206   3.741   0.328 -0.2616  0.4653  3.6366
 2796TIP3   OH229802   0.332   5.340  11.838  0.0438 -0.0840 -0.4585
 2796TIP3    H129803   0.352   5.314  11.928 -0.0227 -0.3825 -0.5282
 2796TIP3    H229804   0.416   5.334  11.792  0.2700  0.9992 -0.1966
 2797TIP3   OH229805   0.077   5.640  16.661 -0.1514  0.1918  0.2733
 2797TIP3    H129806  -0.018   5.641  16.675 -0.2018  1.8547 -0.1285
 2797TIP3    H229807   0.115   5.665  16.745 -0.0905  0.2092  0.2401
 2798TIP3   OH229808   5.862   1.840  16.218  0.4250 -0.3624 -0.5398
 2798TIP3    H129809   5.786   1.786  16.195 -1.4292  2.0323 -0.1922
 2798TIP3    H229810   5.866   1.907  16.150  2.3548 -0.5669 -0.6469
 2799TIP3   OH229811   1.081   1.311   3.210 -0.3393 -0.8117 -0.0322
 2799TIP3    H129812   1.158   1.319   3.266  0.3866 -0.3493 -1.0665
 2799TIP3    H229813   1.016   1.265   3.263  0.5783 -1.0039  0.9265
 2800TIP3   OH229814   0.988   0.944  15.634  0.0340  0.6462  0.2774
 2800TIP3    H129815   1.053   0.899  15.689  0.5994  0.4410 -0.5361
 2800TIP3    H229816   1.029   0.946  15.547 -1.2566  0.0958 -0.3509
 2801TIP3   OH229817   2.500   4.851  16.264 -0.6898  0.8856  0.0191
 2801TIP3    H129818   2.461   4.900  16.191 -1.2449  1.2467  0.5510
 2801TIP3    H229819   2.593   4.846  16.242 -1.1643 -0.7117 -1.6746
 2802TIP3   OH229820   0.598   2.556   6.390 -0.4894  0.2011 -0.8918
 2802TIP3    H129821   0.615   2.477   6.441  0.5572 -0.8600 -2.8323
 2802TIP3    H229822   0.662   2.553   6.319 -0.0988  3.0540 -0.7288
 2803TIP3   OH229823   5.791   1.015   0.624  0.4414  0.1846 -0.0616
 2803TIP3    H129824   5.702   0.980   0.615  0.2421  0.6170  0.2015
 2803TIP3    H229825   5.802   1.072   0.548  0.4600  0.2023 -0.0459
 2804TIP3   OH229826   3.584   1.240  12.771  0.1109 -0.3133  0.8600
 2804TIP3    H129827   3.610   1.149  12.781 -0.0715 -0.8287 -2.5723
 2804TIP3    H229828   3.488   1.239  12.775  0.1029 -0.3181  0.6966
 2805TIP3   OH229829   2.198   2.464  15.187 -0.4894  0.4272 -0.0114
 2805TIP3    H129830   2.228   2.405  15.117 -0.8149  1.2551 -0.8565
 2805TIP3    H229831   2.105   2.478  15.168 -0.3692  1.3688  0.0697
 2806TIP3   OH229832   3.314   3.263  12.474  0.0452 -0.0977  0.0238
 2806TIP3    H129833   3.346   3.353  12.480  0.1700 -0.1412 -0.0021
 2806TIP3    H229834   3.388   3.213  12.442  0.0973 -0.2807  0.4350
 2807TIP3   OH229835   2.625   3.850  16.964 -0.2035  0.4905  0.3279
 2807TIP3    H129836   2.636   3.756  16.948 -1.4018  0.3296  0.3782
 2807TIP3    H229837   2.713   3.882  16.978  0.3601 -0.3720 -1.0949
 2808TIP3   OH229838   4.571   6.704  12.882 -0.4322  0.4817  0.1122
 2808TIP3    H129839   4.496   6.689  12.825 -2.1257 -0.6898  2.5807
 2808TIP3    H229840   4.592   6.797  12.870 -2.3183  0.8443 -0.5568
 2809TIP3   OH229841   4.001   5.274  10.842 -0.2001 -0.3428 -0.0255
 2809TIP3    H129842   3.996   5.327  10.763  0.1378 -0.6894 -0.2806
 2809TIP3    H229843   3.943   5.319  10.904 -1.2754 -0.6324 -0.7957
 2810TIP3   OH229844   6.440   4.593  16.404 -0.6200  0.5662 -0.0948
 2810TIP3    H129845   6.365   4.593  16.345  0.3529 -0.4077 -1.3583
 2810TIP3    H229846   6.516   4.577  16.347  0.5481  1.4519  1.1661
 2811TIP3   OH229847   0.660   3.685   1.605 -0.3748 -0.2394 -0.0745
 2811TIP3    H129848   0.747   3.646   1.601  1.1794  3.0817  0.5238
 2811TIP3    H229849   0.659   3.736   1.686 -2.5780  0.4837 -0.5124
 2812TIP3   OH229850   1.362   6.390  16.983  0.5683  0.6916  0.6841
 2812TIP3    H129851   1.384   6.329  16.912  0.4043  0.5570  0.7488
 2812TIP3    H229852   1.378   6.477  16.945 -0.1741  0.6426  0.2529
 2813TIP3   OH229853   6.047   2.352  16.430  0.4115 -0.2633 -0.3606
 2813TIP3    H129854   6.026   2.261  16.453  2.0334 -0.5857 -0.0920
 2813TIP3    H229855   6.119   2.344  16.367  0.7596  0.8542 -0.1008
 2814TIP3   OH229856   6.592   5.056  14.441 -0.8328 -0.1842 -0.0092
 2814TIP3    H129857   6.557   4.998  14.509  0.1658 -1.3201 -0.4476
 2814TIP3    H229858   6.652   5.114  14.489 -0.4117 -0.7407  0.1449
 2815TIP3   OH229859   6.478   3.261  12.957  0.2844 -0.5572 -0.5486
 2815TIP3    H129860   6.518   3.194  13.013 -0.1640  0.5027  1.0489
 2815TIP3    H229861   6.385   3.257  12.978  0.3538  1.0520  0.0576
 2816TIP3   OH229862   6.215   3.012   2.074  0.2199  0.0649  0.0501
 2816TIP3    H129863   6.170   3.046   2.151  1.0273 -1.0523  1.0396
 2816TIP3    H229864   6.153   2.950   2.035  0.4392 -0.6199  0.7664
 2817TIP3   OH229865   2.562   1.803  15.765 -0.1062  0.3591  0.2428
 2817TIP3    H129866   2.572   1.781  15.858  0.7700  1.3216  0.3854
 2817TIP3    H229867   2.492   1.868  15.763  0.8138  1.3609  0.3850
 2818TIP3   OH229868   1.609   3.501   0.043 -0.1325 -0.2371  0.2372
 2818TIP3    H129869   1.539   3.566   0.045 -0.6386 -0.7445 -0.6824
 2818TIP3    H229870   1.581   3.437  -0.021 -0.4207 -2.2559  2.2997
 2819TIP3   OH229871   4.928   6.144   0.525  0.5464  0.3089 -0.5847
 2819TIP3    H129872   4.950   6.131   0.433 -0.5051  0.4785 -0.8635
 2819TIP3    H229873   4.838   6.177   0.524 -0.1683 -1.5748  0.6141
 2820TIP3   OH229874   0.664   1.597  13.500  0.0948 -0.9238 -0.4946
 2820TIP3    H129875   0.686   1.606  13.593  1.0702 -1.9193 -0.6170
 2820TIP3    H229876   0.607   1.520  13.497 -0.7420 -0.2985 -0.5935
 2821TIP3   OH229877   4.709   0.956   5.617 -0.0066 -0.4271 -0.3111
 2821TIP3    H129878   4.683   0.943   5.708  1.3498  1.1566  0.3224
 2821TIP3    H229879   4.638   1.007   5.579 -1.0095 -1.8667 -0.3932
 2822TIP3   OH229880   0.584   1.990  14.095 -0.6971  0.4820  0.0471
 2822TIP3    H129881   0.624   1.993  14.008 -1.0611  1.3988 -0.1000
 2822TIP3    H229882   0.645   1.939  14.148  0.2305  1.1009 -0.4008
 2823TIP3   OH229883   6.324   6.082  11.991  0.8077  0.3536  0.2748
 2823TIP3    H129884   6.371   6.160  11.964 -0.7355  1.3776  0.4793
 2823TIP3    H229885   6.346   6.072  12.084 -0.4507  1.6197  0.7192
 2824TIP3   OH229886   6.401   4.299  12.687  0.3856  0.0244 -0.3219
 2824TIP3    H129887   6.417   4.222  12.741 -1.8407  1.7597  2.9526
 2824TIP3    H229888   6.344   4.268  12.616 -1.5367 -1.1127  1.6881
 2825TIP3   OH229889   0.732   3.301  14.935  0.4987  0.5997 -0.0067
 2825TIP3    H129890   0.723   3.220  14.884 -2.6829  2.0185 -1.8117
 2825TIP3    H229891   0.702   3.277  15.022 -0.4504 -0.1673 -0.5324
 2826TIP3   OH229892   6.162   1.611  13.133  0.3946  0.5837  0.8471
 2826TIP3    H129893   6.227   1.664  13.086 -0.2076  0.6725  0.1201
 2826TIP3    H229894   6.173   1.523  13.098 -1.8305  1.1331 -1.3933
 2827TIP3   OH229895   6.688   2.558   0.023 -0.7675 -0.3082  0.3961
 2827TIP3    H129896   6.702   2.649  -0.002  0.8492 -0.5129  0.4875
 2827TIP3    H229897   6.640   2.520  -0.051  0.7189  0.0225 -0.7821
 2828TIP3   OH229898   1.205   6.770   2.122  0.1905  0.0768  0.1240
 2828TIP3    H129899   1.257   6.831   2.070 -0.7477  1.0397  0.3106
 2828TIP3    H229900   1.227   6.790   2.213 -2.7173  2.5612  0.3603
 2829TIP3   OH229901   3.869   2.319   3.345 -0.2287 -0.5337 -0.3096
 2829TIP3    H129902   3.911   2.405   3.336  1.8218 -1.6028 -1.3673
 2829TIP3    H229903   3.777   2.339   3.361  0.7049  1.9086  2.4489
 2830TIP3   OH229904   3.602   4.512  13.876 -0.1508  0.1201 -0.2519
 2830TIP3    H129905   3.617   4.483  13.786 -1.3472 -0.0862 -0.3940
 2830TIP3    H229906   3.593   4.431  13.926 -3.0175  0.1725 -0.5675
 2831TIP3   OH229907   4.227   2.691  13.278  0.4907 -0.6417  0.7621
 2831TIP3    H129908   4.309   2.673  13.232 -0.6557 -1.4134 -0.9980
 2831TIP3    H229909   4.186   2.761  13.228 -1.0728 -1.9314  0.1932
 2832TIP3   OH229910   1.986   4.237  16.160  0.3665 -0.1225 -0.6388
 2832TIP3    H129911   2.067   4.232  16.108  0.7796  0.7420 -0.1001
 2832TIP3    H229912   2.016   4.257  16.249 -0.4321  0.1171 -0.4211
 2833TIP3   OH229913   3.863   3.896  13.370 -0.0264 -0.2493 -0.5576
 2833TIP3    H129914   3.867   3.947  13.289  1.0565  1.4919  0.5623
 2833TIP3    H229915   3.773   3.905  13.400  0.5476  2.4455  0.4991
 2834TIP3   OH229916   2.879   5.281   5.738 -0.3353  0.0358  0.0439
 2834TIP3    H129917   2.823   5.334   5.794 -0.2290 -0.8932  1.0401
 2834TIP3    H229918   2.934   5.232   5.798  1.5389  0.8863 -0.9089
 2835TIP3   OH229919   1.471   3.237   5.352  0.1658  0.1688 -0.4219
 2835TIP3    H129920   1.432   3.263   5.435 -1.2067 -0.2593 -0.9177
 2835TIP3    H229921   1.437   3.301   5.289  0.6854  0.1006 -0.7743
 2836TIP3   OH229922   1.965   2.445  13.983  0.0093  0.3595 -0.5348
 2836TIP3    H129923   2.007   2.531  13.985  2.4967 -0.7658 -2.0284
 2836TIP3    H229924   1.935   2.431  14.073  1.0601  2.0657  0.1113
 2837TIP3   OH229925   2.596   4.330   1.163 -0.7389  0.0243  0.0765
 2837TIP3    H129926   2.523   4.389   1.183 -0.5877  0.3521 -0.3491
 2837TIP3    H229927   2.672   4.387   1.156 -1.0200  0.1012 -2.7838
 2838TIP3   OH229928   0.906   0.962   5.242 -0.2727  0.1135 -0.3158
 2838TIP3    H129929   0.866   0.905   5.307  1.0212 -0.2620  0.1607
 2838TIP3    H229930   0.897   0.914   5.159 -0.4316 -0.1549 -0.1426
 2839TIP3   OH229931   0.671   6.766  14.496  0.2488  0.0235 -0.4579
 2839TIP3    H129932   0.621   6.703  14.444  3.1504 -3.2835  0.5630
 2839TIP3    H229933   0.693   6.836  14.435 -1.0630 -1.0957 -2.2476
 2840TIP3   OH229934   4.546   0.748  15.411 -0.2555  0.1059  0.1945
 2840TIP3    H129935   4.604   0.707  15.476 -0.6364 -0.1099  0.3966
 2840TIP3    H229936   4.465   0.697  15.416 -0.6549  0.7493  0.2926
 2841TIP3   OH229937   4.861   0.192   1.019  0.3312 -0.3849  0.4739
 2841TIP3    H129938   4.866   0.173   0.925 -0.2614  0.5747  0.2417
 2841TIP3    H229939   4.899   0.114   1.061  0.0970 -1.0606 -0.5378
 2842TIP3   OH229940   0.798   4.289   5.583  0.1498  0.0491 -0.5251
 2842TIP3    H129941   0.843   4.359   5.536 -1.4548  2.2761  1.1220
 2842TIP3    H229942   0.842   4.286   5.669 -0.1275 -0.6276 -0.4029
 2843TIP3   OH229943   4.149   4.431  13.961 -0.1633 -0.3839 -0.3355
 2843TIP3    H129944   4.189   4.384  13.887  1.1459  0.6393 -0.2909
 2843TIP3    H229945   4.056   4.407  13.956 -0.0573 -0.5409 -2.1489
 2844TIP3   OH229946   4.549   0.470  16.838 -0.1141 -0.4743 -0.1854
 2844TIP3    H129947   4.607   0.497  16.910 -0.4922 -1.1395  0.3789
 2844TIP3    H229948   4.463   0.503  16.864 -0.4235 -1.5069  0.1115
 2845TIP3   OH229949   4.851   6.624   2.390  0.5083 -0.0972  0.2047
 2845TIP3    H129950   4.876   6.637   2.481 -1.8419 -1.5615  1.0964
 2845TIP3    H229951   4.841   6.713   2.355  0.6453  0.4705  1.6018
 2846TIP3   OH229952   3.137   6.786   8.602 -0.0345  0.0099 -0.4356
 2846TIP3    H129953   3.228   6.772   8.577 -0.1249  0.8827 -1.3051
 2846TIP3    H229954   3.096   6.824   8.524 -0.3121  2.9440  1.0729
 2847TIP3   OH229955   5.850   3.206  14.095  0.1654 -0.2627 -0.4320
 2847TIP3    H129956   5.945   3.198  14.092  0.0141 -1.7426 -2.2318
 2847TIP3    H229957   5.821   3.130  14.145 -0.0259  0.8522  1.1970
 2848TIP3   OH229958   5.389   0.273   1.517 -0.1088  0.1107  0.2380
 2848TIP3    H129959   5.394   0.364   1.486 -0.7006  0.3350  0.7805
 2848TIP3    H229960   5.345   0.280   1.602 -0.0371 -0.6754  0.3380
 2849TIP3   OH229961   6.036   5.163  16.883  0.5706  0.3156 -0.5134
 2849TIP3    H129962   5.989   5.152  16.965 -0.3720 -0.6156 -1.1660
 2849TIP3    H229963   5.990   5.234  16.838  0.4449  0.1294 -0.6799
 2850TIP3   OH229964   1.861   2.465  11.224  0.1192 -0.5239 -0.4177
 2850TIP3    H129965   1.831   2.435  11.311  0.4955 -0.8522 -0.3999
 2850TIP3    H229966   1.791   2.438  11.165  0.4264 -1.3829 -0.3903
 2851TIP3   OH229967   0.162   3.368   2.169 -0.0461 -0.0552 -0.3717
 2851TIP3    H129968   0.258   3.361   2.167 -0.0266 -0.0909  0.3743
 2851TIP3    H229969   0.145   3.463   2.173 -0.0620 -0.0216 -1.2534
 2852TIP3   OH229970   2.983   3.033  15.151  0.2200 -0.0960 -0.4976
 2852TIP3    H129971   3.019   2.973  15.086 -0.1756 -1.3685  0.4460
 2852TIP3    H229972   2.891   3.007  15.161  0.1029  0.5101  0.0895
 2853TIP3   OH229973   1.973   5.772  13.866 -0.2104  0.1748 -0.1931
 2853TIP3    H129974   1.985   5.738  13.955  0.1591 -0.8832 -0.6387
 2853TIP3    H229975   1.923   5.852  13.878  1.5617  1.1123  1.1255
 2854TIP3   OH229976   0.077   6.735  16.256  0.0300 -0.3235 -0.2801
 2854TIP3    H129977  -0.005   6.780  16.276 -0.4777 -1.0616 -0.6565
 2854TIP3    H229978   0.135   6.757  16.329  0.6172  2.9030 -1.6332
 2855TIP3   OH229979   3.294   5.947  11.296  0.2367 -0.3316 -0.3647
 2855TIP3    H129980   3.377   5.905  11.273 -0.1525 -0.8697 -0.7933
 2855TIP3    H229981   3.267   5.907  11.378 -1.1336 -2.3755 -1.7714
 2856TIP3   OH229982   6.000   0.856   1.259 -0.0965  0.0355 -0.1563
 2856TIP3    H129983   6.060   0.930   1.266 -0.5324  0.2930  1.0647
 2856TIP3    H229984   5.925   0.881   1.314  0.0567 -1.5889  0.8393
 2857TIP3   OH229985   5.397   3.904  11.840  0.8297 -0.3016  0.0393
 2857TIP3    H129986   5.425   3.979  11.787 -1.2502 -0.3463 -1.1751
 2857TIP3    H229987   5.418   3.827  11.786  0.6079 -0.4632  0.1819
 2858TIP3   OH229988   1.648   2.135  15.769 -0.1963 -0.5430  0.1420
 2858TIP3    H129989   1.635   2.121  15.863  1.7830  0.2256  0.5684
 2858TIP3    H229990   1.744   2.140  15.759 -0.4232  0.6066 -1.7247
 2859TIP3   OH229991   1.729   3.330  11.088  0.2012 -0.1320 -0.0708
 2859TIP3    H129992   1.684   3.247  11.073 -0.7465 -0.0113  1.9270
 2859TIP3    H229993   1.667   3.397  11.061  0.5143 -0.0390 -0.5685
 2860TIP3   OH229994   6.316   2.258  11.359 -0.3348 -0.2482  0.2379
 2860TIP3    H129995   6.283   2.325  11.417 -1.3882  0.1835 -0.8395
 2860TIP3    H229996   6.245   2.242  11.297  0.5815 -1.0240 -0.6439
 2861TIP3   OH229997   2.739   1.104   0.027  0.2812 -0.1763 -0.1128
 2861TIP3    H129998   2.698   1.027   0.066  0.9502 -0.5036 -0.0480
 2861TIP3    H229999   2.770   1.075  -0.059 -0.8547  0.4438 -0.7495
 2862TIP3   OH230000   4.506   5.795  12.028 -0.7067  0.0446 -0.3703
 2862TIP3    H130001   4.567   5.768  12.097 -0.6046  0.5872 -0.2473
 2862TIP3    H230002   4.561   5.804  11.950 -0.4522  1.4670 -0.0397
 2863TIP3   OH230003   0.624   1.985  14.858  0.2094 -0.2674 -0.0083
 2863TIP3    H130004   0.617   1.986  14.762 -0.7335  0.8710  0.0522
 2863TIP3    H230005   0.702   2.037  14.876 -0.9653  1.5914 -0.0956
 2864TIP3   OH230006   6.646   3.168  13.446 -0.6797 -0.0022 -0.0652
 2864TIP3    H130007   6.689   3.172  13.531  0.4005  1.2256 -0.6643
 2864TIP3    H230008   6.560   3.129  13.465  0.5316 -2.1682  1.1740
 2865TIP3   OH230009   1.011   6.360   0.103 -0.4488  0.1336 -0.1715
 2865TIP3    H130010   1.015   6.421   0.178  0.2056 -1.2100  0.9017
 2865TIP3    H230011   1.092   6.377   0.055  1.0671 -1.7963  1.6498
 2866TIP3   OH230012   2.411   1.241  15.451  0.0283  0.3301 -0.0398
 2866TIP3    H130013   2.487   1.239  15.392 -0.4259 -0.5079 -0.6064
 2866TIP3    H230014   2.416   1.159  15.500  0.7676  1.3134  1.5860
 2867TIP3   OH230015   4.826   6.324  14.790  0.4447 -0.6695  0.3378
 2867TIP3    H130016   4.897   6.380  14.821  1.0243 -1.1484 -0.0998
 2867TIP3    H230017   4.767   6.315  14.865  0.6862 -0.0129  0.6054
 2868TIP3   OH230018   4.121   3.937   4.961  0.3497 -0.0725  0.6758
 2868TIP3    H130019   4.154   3.990   4.888 -0.8414 -1.0104 -0.5664
 2868TIP3    H230020   4.198   3.924   5.017  1.2805  0.7107 -0.3869
 2869TIP3   OH230021   6.626   4.883   1.731 -0.1267  0.1820 -0.2192
 2869TIP3    H130022   6.587   4.875   1.644  2.1445  0.1276 -1.2708
 2869TIP3    H230023   6.712   4.923   1.715 -0.6259  2.3486  2.2512
 2870TIP3   OH230024   6.113   3.369  11.890  0.2179  0.3106  0.1835
 2870TIP3    H130025   6.023   3.339  11.908  1.6590 -2.7884  2.7890
 2870TIP3    H230026   6.131   3.431  11.960  0.2220  0.6564 -0.1272
 2871TIP3   OH230027   1.566   5.027  10.977  0.9547 -0.3202 -0.4574
 2871TIP3    H130028   1.536   5.097  11.035 -0.3753 -0.4885 -0.9429
 2871TIP3    H230029   1.510   4.953  10.998  0.9881 -0.6214 -1.4168
 2872TIP3   OH230030   6.501   4.759   3.891  0.0988  0.5343  0.3116
 2872TIP3    H130031   6.439   4.819   3.935  1.0098  1.5746  0.2056
 2872TIP3    H230032   6.522   4.804   3.809 -0.5234 -0.7515 -0.5663
 2873TIP3   OH230033   4.370   4.615  12.039 -0.2468  0.4237 -0.3550
 2873TIP3    H130034   4.450   4.665  12.055 -0.3754  0.0090  1.7471
 2873TIP3    H230035   4.390   4.561  11.962  2.1338 -0.9450  1.1753
 2874TIP3   OH230036   2.450   1.249  12.557 -0.0706 -0.2393  0.8458
 2874TIP3    H130037   2.469   1.195  12.633 -1.1373  0.3947  1.5774
 2874TIP3    H230038   2.525   1.307  12.550 -1.2580  1.6916  3.2153
 2875TIP3   OH230039   2.179   2.189  13.074  0.4088 -0.3372  0.2058
 2875TIP3    H130040   2.255   2.215  13.021  0.9798  3.6292  2.7092
 2875TIP3    H230041   2.191   2.095  13.088  3.5896 -0.2682 -1.4072
 2876TIP3   OH230042   6.736   4.964  11.421  0.4606 -0.4008 -0.6394
 2876TIP3    H130043   6.700   4.918  11.497  0.3421 -2.6621 -2.0313
 2876TIP3    H230044   6.810   5.014  11.456 -1.6010  1.2079  1.5413
 2877TIP3   OH230045   4.869   6.578  11.739  0.1861  0.2920 -0.1626
 2877TIP3    H130046   4.901   6.547  11.823  0.3996 -1.5158 -0.8885
 2877TIP3    H230047   4.945   6.622  11.699  0.2513  0.6313  0.3344
 2878TIP3   OH230048   2.299   5.300  15.200  0.5873  0.4648 -0.1284
 2878TIP3    H130049   2.361   5.369  15.175  1.5162 -0.4161 -0.3199
 2878TIP3    H230050   2.355   5.231  15.236 -0.1910 -0.8522 -1.4215
 2879TIP3   OH230051   0.161   0.042   2.661  0.0466  0.2226  0.1838
 2879TIP3    H130052   0.135  -0.023   2.595 -1.0661  0.1429  0.6861
 2879TIP3    H230053   0.255   0.031   2.669 -0.1295 -1.3957  0.3093
 2880TIP3   OH230054   5.543   4.214  17.205  0.2380  0.5921  0.3121
 2880TIP3    H130055   5.519   4.277  17.138  0.3299  1.2841  0.9287
 2880TIP3    H230056   5.606   4.156  17.162  1.2175  1.7580  0.1458
 2881TIP3   OH230057   5.300   5.710   3.501  0.2292  0.2834 -0.1138
 2881TIP3    H130058   5.342   5.646   3.559 -1.2307  0.9145  1.6910
 2881TIP3    H230059   5.222   5.665   3.469  0.9312  0.0082 -1.4702
 2882TIP3   OH230060   5.819   3.084   5.881  0.0734  0.2108 -0.0846
 2882TIP3    H130061   5.784   3.003   5.843  0.8695  0.9216 -2.3707
 2882TIP3    H230062   5.913   3.067   5.889 -0.0101  0.2799  1.0612
 2883TIP3   OH230063   2.650   5.653   0.992 -0.0446  0.5577  0.2679
 2883TIP3    H130064   2.624   5.639   1.083 -0.3976  0.6231  0.1794
 2883TIP3    H230065   2.582   5.709   0.956 -0.8612 -0.9104 -0.5323
 2884TIP3   OH230066   5.651   1.828   0.208  0.1060  0.1681  0.1370
 2884TIP3    H130067   5.612   1.765   0.147  1.4069 -1.4994  0.9895
 2884TIP3    H230068   5.696   1.891   0.152 -0.5968 -0.0507 -0.6967
 2885TIP3   OH230069   1.755   0.367  16.828 -0.2736 -0.1159  0.0061
 2885TIP3    H130070   1.693   0.369  16.755  0.1341  0.4416 -0.3259
 2885TIP3    H230071   1.834   0.327  16.791  0.3305  1.2099 -0.1730
 2886TIP3   OH230072   6.505   3.462   0.739  0.1190  0.2191 -0.0616
 2886TIP3    H130073   6.441   3.529   0.718  0.1971  0.7183  1.2260
 2886TIP3    H230074   6.511   3.464   0.835  0.5281 -1.2398 -0.0375
 2887TIP3   OH230075   2.185   2.325  13.330  0.3291  0.5634 -0.2376
 2887TIP3    H130076   2.275   2.309  13.304  0.2653  1.4237 -0.9990
 2887TIP3    H230077   2.143   2.363  13.253 -0.6582  0.2614  0.1355
 2888TIP3   OH230078   4.076   5.991  12.084  0.0189 -0.1241  0.7485
 2888TIP3    H130079   4.136   5.918  12.078  1.0067  0.5803  1.7461
 2888TIP3    H230080   4.097   6.047  12.009 -1.5538 -1.4272 -0.7075
 2889TIP3   OH230081   2.024   0.902  16.649 -0.3042  0.1787 -0.1714
 2889TIP3    H130082   1.969   0.829  16.620  2.0615 -0.9742 -1.8896
 2889TIP3    H230083   2.001   0.974  16.590 -2.1437  0.6741  1.0864
 2890TIP3   OH230084   5.777   6.461   1.469  0.0729 -0.0917  0.4096
 2890TIP3    H130085   5.721   6.509   1.531 -0.3211 -0.8955  0.6839
 2890TIP3    H230086   5.715   6.419   1.409  0.4838  2.1057 -1.6467
 2891TIP3   OH230087   1.894   0.970   1.149 -0.7316 -0.4254 -0.6041
 2891TIP3    H130088   1.961   0.967   1.217 -1.3901 -3.4356 -0.0656
 2891TIP3    H230089   1.816   1.002   1.193 -0.6458 -0.4891 -0.4061
 2892TIP3   OH230090   4.225   3.631   3.845  0.3441 -0.6248 -0.3008
 2892TIP3    H130091   4.199   3.714   3.884  0.4641  0.3507 -2.2761
 2892TIP3    H230092   4.150   3.573   3.859 -0.2243  0.1817 -0.0222
 2893TIP3   OH230093   5.822   3.642  12.783 -0.5180  0.1175  0.2360
 2893TIP3    H130094   5.808   3.662  12.876  0.6426  0.8119  0.2621
 2893TIP3    H230095   5.780   3.557  12.771 -2.2959  0.8469  0.9680
 2894TIP3   OH230096   0.937   5.605   3.369 -0.2986 -0.3171 -0.6724
 2894TIP3    H130097   0.853   5.591   3.326 -0.7442  0.8012 -0.1886
 2894TIP3    H230098   0.931   5.694   3.404  0.8212 -0.4853 -0.0439
 2895TIP3   OH230099   5.989   4.857   3.622 -0.7876  0.0883 -0.4556
 2895TIP3    H130100   5.937   4.907   3.685 -1.8976 -2.7775  1.0220
 2895TIP3    H230101   5.969   4.896   3.537 -1.3500  2.3133  0.6570
 2896TIP3   OH230102   3.378   1.049   0.488 -0.1635 -0.0455 -0.4459
 2896TIP3    H130103   3.373   0.997   0.568  2.9319  3.0498  1.8902
 2896TIP3    H230104   3.291   1.088   0.479 -1.2103 -2.1727  0.1048
 2897TIP3   OH230105   4.737   2.377  11.146  0.0505 -1.0512 -0.3779
 2897TIP3    H130106   4.714   2.314  11.215 -1.2440  0.1168  0.2693
 2897TIP3    H230107   4.811   2.426  11.181  0.4430 -1.5542 -0.4937
 2898TIP3   OH230108   0.004   3.700  13.763 -0.4774 -0.2899  0.8606
 2898TIP3    H130109   0.096   3.688  13.789  0.2054  1.1535 -0.7892
 2898TIP3    H230110  -0.023   3.780  13.809  0.0728  1.0408 -1.0553
 2899TIP3   OH230111   0.377   3.120  12.374 -0.1065  0.0909 -0.6076
 2899TIP3    H130112   0.290   3.114  12.412 -0.3910 -1.0437 -1.4002
 2899TIP3    H230113   0.410   3.030  12.376  0.2472  0.1738 -2.1502
 2900TIP3   OH230114   2.012   4.036  17.223 -0.5872 -0.0303  0.2593
 2900TIP3    H130115   2.096   4.081  17.231 -0.3767 -0.1338 -1.2803
 2900TIP3    H230116   2.016   3.994  17.137 -1.5436 -1.4080  0.8815
 2901TIP3   OH230117   4.641   0.143  15.491  0.4610  0.2248  0.0916
 2901TIP3    H130118   4.644   0.106  15.402  0.9891  0.6901 -0.0829
 2901TIP3    H230119   4.723   0.116  15.531  1.2103  1.8837 -0.3042
 2902TIP3   OH230120   4.549   2.357  12.140 -0.0077  0.0865  0.2784
 2902TIP3    H130121   4.494   2.284  12.167 -0.8388  0.3604 -0.6566
 2902TIP3    H230122   4.529   2.427  12.203 -1.4864  0.5227 -0.6509
 2903TIP3   OH230123   4.979   3.802   3.856 -0.1357 -0.1621  0.1222
 2903TIP3    H130124   4.971   3.792   3.951  2.5434  0.8305  0.4834
 2903TIP3    H230125   4.911   3.865   3.833 -1.2398 -0.9114  1.2713
 2904TIP3   OH230126   3.653   4.604  10.949  0.3896  0.1795  0.2764
 2904TIP3    H130127   3.560   4.612  10.972  0.2295 -0.3886 -0.1422
 2904TIP3    H230128   3.680   4.522  10.991  0.4809 -0.0895 -0.3048
 2905TIP3   OH230129   4.657   2.156  14.443 -0.1213  0.4425 -0.1470
 2905TIP3    H130130   4.703   2.195  14.369  0.2403  1.0391  0.3844
 2905TIP3    H230131   4.564   2.167  14.422 -0.0231 -0.0294 -0.8385
 2906TIP3   OH230132   4.147   1.361   6.090  0.5798  0.6199  0.0258
 2906TIP3    H130133   4.102   1.444   6.074  0.2611  0.4483  0.0373
 2906TIP3    H230134   4.116   1.333   6.176 -1.2250 -0.7515 -1.0459
 2907TIP3   OH230135   2.405   4.866   4.445 -0.2729  0.0755 -0.2270
 2907TIP3    H130136   2.394   4.822   4.530  0.1379  0.4954  0.0472
 2907TIP3    H230137   2.317   4.893   4.421 -0.5354 -0.9039 -0.4055
 2908TIP3   OH230138   0.541   3.083  14.887  0.0001  0.4378 -0.4377
 2908TIP3    H130139   0.504   2.996  14.898 -1.1545  0.9122 -0.5354
 2908TIP3    H230140   0.467   3.143  14.898  0.8841  1.4404  0.2143
 2909TIP3   OH230141   0.079   6.721   5.248 -0.1423 -0.2690  0.0085
 2909TIP3    H130142   0.018   6.790   5.274 -0.1552 -0.3487  0.1881
 2909TIP3    H230143   0.048   6.693   5.161  0.2976  0.4530 -0.3864
 2910TIP3   OH230144   6.303   3.062  17.031  0.0093 -0.8273  0.3768
 2910TIP3    H130145   6.292   3.104  17.117 -1.3339 -0.4735  0.0419
 2910TIP3    H230146   6.387   3.016  17.038  0.9884  1.0041  1.1221
 2911TIP3   OH230147   3.656   3.102  12.956 -0.2527 -0.5330  0.2588
 2911TIP3    H130148   3.656   3.083  13.049 -1.9314 -1.5479  0.0658
 2911TIP3    H230149   3.661   3.198  12.951  0.2354 -0.4980  1.3675
 2912TIP3   OH230150   1.135   0.599   0.897  0.0240 -0.3359 -0.8341
 2912TIP3    H130151   1.183   0.529   0.855  0.7089  0.5674 -1.5852
 2912TIP3    H230152   1.198   0.640   0.956 -0.2249 -0.0584 -0.7559
 2913TIP3   OH230153   5.869   6.534  13.128 -0.3076 -0.1120 -0.1782
 2913TIP3    H130154   5.780   6.547  13.162  0.0309 -1.4197  1.2599
 2913TIP3    H230155   5.902   6.458  13.176  2.3884  1.6627  0.9143
 2914TIP3   OH230156   3.692   5.285   3.735  0.1223  0.1886  0.2043
 2914TIP3    H130157   3.719   5.213   3.792 -2.1324 -2.2095 -1.5797
 2914TIP3    H230158   3.616   5.323   3.779  0.0813  0.1295  0.1867
 2915TIP3   OH230159   1.718   3.031   1.234 -0.3847  0.0856 -0.3437
 2915TIP3    H130160   1.644   3.089   1.214  0.7199  2.0804  1.1660
 2915TIP3    H230161   1.790   3.065   1.181 -0.1412 -0.8911 -0.6424
 2916TIP3   OH230162   5.446   5.284   2.387  0.0819  0.4181  0.2219
 2916TIP3    H130163   5.383   5.236   2.440  0.5733 -0.4951 -0.0060
 2916TIP3    H230164   5.498   5.216   2.344 -0.1941  1.1310 -1.2895
 2917TIP3   OH230165   4.373   0.818   0.631  0.0992 -0.3650  0.4627
 2917TIP3    H130166   4.413   0.742   0.589 -1.0531 -0.3047 -0.7975
 2917TIP3    H230167   4.347   0.788   0.718  0.5386 -1.1327  0.3273
 2918TIP3   OH230168   2.071   0.749  12.891  0.0200  0.0434  0.1147
 2918TIP3    H130169   2.132   0.822  12.902 -0.2402  0.1056  1.2459
 2918TIP3    H230170   2.046   0.752  12.799  1.2348  0.4069 -0.2174
 2919TIP3   OH230171   1.186   6.358  11.604  0.0340  0.1937 -0.0255
 2919TIP3    H130172   1.220   6.305  11.677  0.4772 -0.0397 -0.4022
 2919TIP3    H230173   1.105   6.314  11.578  2.5264 -2.8381 -3.1567
 2920TIP3   OH230174   5.280   0.977   0.615  1.0731  0.5869 -0.2020
 2920TIP3    H130175   5.316   1.042   0.676 -0.0885  1.1293 -0.0944
 2920TIP3    H230176   5.226   0.921   0.670  1.3606  0.0652 -0.4532
 2921TIP3   OH230177   1.916   4.031   0.245  0.3031 -0.1589 -0.0647
 2921TIP3    H130178   1.917   4.114   0.293  1.0931  0.2075 -0.7022
 2921TIP3    H230179   1.965   4.049   0.165 -2.0659 -0.4245 -1.6137
 2922TIP3   OH230180   0.005   0.952   0.002  0.4862 -0.6505  0.9549
 2922TIP3    H130181   0.001   0.857  -0.001 -0.9096 -0.6649  2.4785
 2922TIP3    H230182   0.046   0.972   0.086  0.2529  0.0871  0.9005
 2923TIP3   OH230183   4.894   1.325   1.573  0.4180 -0.2439  0.8958
 2923TIP3    H130184   4.813   1.329   1.524  0.0552 -1.0359  1.4102
 2923TIP3    H230185   4.957   1.285   1.513  0.3861  0.2370  0.5471
 2924TIP3   OH230186   6.666   0.916   3.109 -0.2172  0.0624  0.1634
 2924TIP3    H130187   6.659   1.006   3.079  0.7243  0.5247  1.2932
 2924TIP3    H230188   6.682   0.865   3.030  5.4140  1.6108  0.1427
 2925TIP3   OH230189   5.369   2.682   0.516 -0.0938 -0.3300 -0.3362
 2925TIP3    H130190   5.301   2.615   0.526  1.3395 -1.5897  1.2898
 2925TIP3    H230191   5.403   2.667   0.428 -1.7866  0.2122 -1.1092
 2926TIP3   OH230192   4.876   3.705  15.163 -0.7801  0.0057  0.2779
 2926TIP3    H130193   4.879   3.695  15.258 -0.6884  0.3935  0.3198
 2926TIP3    H230194   4.966   3.731  15.139 -0.5082 -1.2188 -0.0497
 2927TIP3   OH230195   2.341   3.110   5.564  0.5135  0.4571 -0.0781
 2927TIP3    H130196   2.250   3.129   5.543  0.5967 -1.5490 -2.4894
 2927TIP3    H230197   2.337   3.069   5.651 -0.8321  0.8238  0.0433
 2928TIP3   OH230198   2.274   0.235  15.453 -0.5351 -0.4209  0.3356
 2928TIP3    H130199   2.240   0.218  15.541 -0.3880  0.1498  0.5045
 2928TIP3    H230200   2.369   0.233  15.463 -0.5151  0.0054  0.2663
 2929TIP3   OH230201   3.904   3.087   4.574 -0.3885 -0.1457  0.1142
 2929TIP3    H130202   3.841   3.017   4.592  0.6432 -1.3056 -0.7762
 2929TIP3    H230203   3.865   3.136   4.502  0.0820 -1.3612 -0.9982
 2930TIP3   OH230204   1.058   4.942   1.379  1.0622  0.1123 -0.0231
 2930TIP3    H130205   0.989   4.901   1.326 -0.7200  0.1381  2.2274
 2930TIP3    H230206   1.139   4.921   1.332 -0.2515 -1.9108 -1.4781
 2931TIP3   OH230207   1.239   0.711   3.679  0.1174 -0.3771 -0.1108
 2931TIP3    H130208   1.321   0.670   3.652  1.4344  2.4932 -0.5516
 2931TIP3    H230209   1.188   0.717   3.599  0.1974 -0.5277 -0.1727
 2932TIP3   OH230210   3.031   3.342   4.278  0.7729 -0.1303 -0.1276
 2932TIP3    H130211   3.111   3.370   4.233 -0.0023  0.4007 -1.2224
 2932TIP3    H230212   3.010   3.257   4.239  1.3352 -0.7180  0.8521
 2933TIP3   OH230213   4.084   2.947   5.397  0.8629 -0.8190  0.2292
 2933TIP3    H130214   4.043   3.032   5.381  2.4815  0.2959  1.8991
 2933TIP3    H230215   4.081   2.936   5.492 -0.1814 -3.0854 -0.0229
 2934TIP3   OH230216   0.320   5.190   0.441 -0.6083  0.6689  0.0473
 2934TIP3    H130217   0.390   5.133   0.407 -0.3706  0.1520  1.3574
 2934TIP3    H230218   0.356   5.278   0.437 -1.1425  0.8117 -2.4265
 2935TIP3   OH230219   5.064   4.495   2.505  0.3128  0.2926  0.2643
 2935TIP3    H130220   4.974   4.463   2.498 -0.4407  2.4360 -0.1761
 2935TIP3    H230221   5.115   4.419   2.534 -2.0477 -0.3220  2.9680
 2936TIP3   OH230222   5.823   4.778  12.190 -0.3421 -0.2430 -0.5637
 2936TIP3    H130223   5.783   4.707  12.240 -1.1826  0.6317  0.0221
 2936TIP3    H230224   5.916   4.774  12.213 -0.5176 -0.6379  0.0997
 2937TIP3   OH230225   5.695   2.386   1.383 -0.0314  0.2951  0.3290
 2937TIP3    H130226   5.703   2.482   1.379  2.2038  0.1791  1.3105
 2937TIP3    H230227   5.697   2.358   1.292  0.4548  1.1155  0.0813
 2938TIP3   OH230228   2.712   3.273   4.347 -0.4617  0.6404 -0.0845
 2938TIP3    H130229   2.686   3.352   4.300 -0.5609  0.5582 -0.1657
 2938TIP3    H230230   2.789   3.300   4.397 -0.5917  0.8314  0.0114
 2939TIP3   OH230231   4.948   6.187  17.009 -0.2953 -0.3641  0.0645
 2939TIP3    H130232   4.878   6.195  16.944  0.5702 -3.4814 -1.3602
 2939TIP3    H230233   5.022   6.234  16.971 -0.1397 -1.2202 -0.7180
 2940TIP3   OH230234   5.125   0.960   1.323  0.5187  0.1616  1.0919
 2940TIP3    H130235   5.105   0.935   1.233  1.8030  0.0958  0.8068
 2940TIP3    H230236   5.076   0.898   1.377  0.3238 -0.2718  0.4226
 2941TIP3   OH230237   5.704   2.485   0.870  0.3828 -0.6885  0.1188
 2941TIP3    H130238   5.650   2.458   0.795  2.1523 -1.7858 -0.8039
 2941TIP3    H230239   5.791   2.500   0.832  0.3187  2.9260  1.2282
 2942TIP3   OH230240   6.763   4.457   1.244 -1.3005  0.1913  0.3426
 2942TIP3    H130241   6.842   4.510   1.235 -1.2293 -0.2884 -2.1033
 2942TIP3    H230242   6.794   4.371   1.270 -0.8200 -0.4696 -2.2569
 2943TIP3   OH230243   2.718   4.791  15.047  0.0755  0.1804 -0.4414
 2943TIP3    H130244   2.672   4.847  14.985 -0.8995  1.8438  1.7305
 2943TIP3    H230245   2.658   4.718  15.063  0.1084  0.0223 -1.0188
 2944TIP3   OH230246   6.060   6.707  12.311  0.1013  0.3324  0.9905
 2944TIP3    H130247   6.009   6.783  12.283  0.2997  0.1986  0.2537
 2944TIP3    H230248   6.071   6.719  12.405  0.1632  1.2463  0.8742
 2945TIP3   OH230249   3.946   1.721  13.744  0.2892 -0.3905 -1.0953
 2945TIP3    H130250   3.896   1.640  13.754 -0.2732 -0.0920 -1.4404
 2945TIP3    H230251   3.894   1.773  13.683  1.0720 -0.1102 -1.5188
 2946TIP3   OH230252   1.733   4.709  10.421  0.3072  0.1995 -0.6804
 2946TIP3    H130253   1.787   4.731  10.497 -0.7950 -0.2180  0.2406
 2946TIP3    H230254   1.779   4.636  10.379 -1.0093 -2.1601  1.7785
 2947TIP3   OH230255   2.701   0.470   0.987  0.3818  0.1762 -0.4533
 2947TIP3    H130256   2.692   0.461   1.082  1.2137  1.6834 -0.1998
 2947TIP3    H230257   2.775   0.413   0.965  1.0368  0.8201  0.0226
 2948TIP3   OH230258   2.231   1.198  11.795 -0.0159 -0.2338 -0.3382
 2948TIP3    H130259   2.237   1.202  11.891 -0.3204  0.6897 -0.3532
 2948TIP3    H230260   2.209   1.106  11.777 -0.8992 -0.2099  0.5375
 2949TIP3   OH230261   5.731   4.550  16.817  0.0581 -0.2688 -0.3053
 2949TIP3    H130262   5.672   4.586  16.884  0.8801 -0.8574  0.7462
 2949TIP3    H230263   5.818   4.579  16.843  0.4525 -1.0001 -0.7857
 2950TIP3   OH230264   1.463   4.190  12.429 -0.5347 -0.2401  0.7412
 2950TIP3    H130265   1.377   4.159  12.457 -0.2999  0.3661  2.2032
 2950TIP3    H230266   1.456   4.199  12.334 -1.6262 -1.5662  0.6816
 2951TIP3   OH230267   4.790   2.193  10.957  0.8294 -0.4089 -0.2241
 2951TIP3    H130268   4.779   2.253  11.031 -0.6478  0.0323 -0.7987
 2951TIP3    H230269   4.883   2.201  10.934  1.5050 -1.0923  2.0242
 2952TIP3   OH230270   1.443   4.652   4.739  0.3040 -0.5097  0.1661
 2952TIP3    H130271   1.394   4.703   4.803  0.9296  2.3266 -1.5207
 2952TIP3    H230272   1.505   4.601   4.791 -0.4230  0.3305  1.9022
 2953TIP3   OH230273   1.006   3.168   2.810 -0.3087  1.0009  0.2321
 2953TIP3    H130274   1.005   3.132   2.721 -0.0139  0.5947  0.3904
 2953TIP3    H230275   1.062   3.246   2.803  0.5271  0.4121  0.2675
 2954TIP3   OH230276   4.901   4.137   4.343 -0.7215  0.5090 -0.6738
 2954TIP3    H130277   4.894   4.206   4.409 -0.4478  0.3912 -0.5179
 2954TIP3    H230278   4.905   4.056   4.393 -0.7232  0.4046 -0.8423
 2955TIP3   OH230279   1.926   0.791   0.954 -0.2286  0.9417 -0.3103
 2955TIP3    H130280   1.923   0.853   1.027  1.8168  2.1133 -1.1703
 2955TIP3    H230281   1.864   0.826   0.890  0.0715  1.4802 -0.3094
 2956TIP3   OH230282   3.428   3.823   5.554 -0.9350 -0.2823 -0.4172
 2956TIP3    H130283   3.464   3.883   5.489 -0.5290 -1.3238 -1.1655
 2956TIP3    H230284   3.335   3.846   5.559 -1.3511 -1.3241 -2.6474
 2957TIP3   OH230285   5.288   3.975  17.175  0.6237 -0.0817  0.2604
 2957TIP3    H130286   5.380   3.951  17.179  0.3923 -1.1599 -0.8169
 2957TIP3    H230287   5.268   4.007  17.263  2.1833  0.7796  0.3191
 2958TIP3   OH230288   4.079   5.541  14.973  0.1853 -0.1854  0.3316
 2958TIP3    H130289   4.125   5.598  14.911  0.2224 -0.9680 -0.3715
 2958TIP3    H230290   4.099   5.452  14.942 -1.2307 -0.5414  0.4282
 2959TIP3   OH230291   1.644   3.934  16.832  0.0657 -0.4981  0.1516
 2959TIP3    H130292   1.602   3.852  16.857 -1.8211  0.1259 -0.8954
 2959TIP3    H230293   1.717   3.907  16.777 -1.0408 -1.4513 -0.8822
 2960TIP3   OH230294   5.438   3.111   6.667  0.4619 -0.2800 -0.2912
 2960TIP3    H130295   5.521   3.150   6.640 -0.5729  1.3715 -1.1729
 2960TIP3    H230296   5.376   3.184   6.668 -1.3691 -1.7691 -1.2515
 2961TIP3   OH230297   5.024   6.626   3.208 -0.4186  0.3587  0.4978
 2961TIP3    H130298   5.047   6.689   3.277  0.3222  1.4443 -0.7149
 2961TIP3    H230299   4.994   6.680   3.135  0.9456 -0.6376 -0.8292
 2962TIP3   OH230300   0.588   4.255  17.182  0.1767 -0.1675 -0.1327
 2962TIP3    H130301   0.510   4.290  17.140 -0.0580 -1.2165 -0.6030
 2962TIP3    H230302   0.556   4.216  17.263  0.2298 -0.4810 -0.2602
 2963TIP3   OH230303   4.112   4.775   3.554  0.5377 -0.4816 -0.0982
 2963TIP3    H130304   4.201   4.740   3.546  0.8898  0.4170 -0.2056
 2963TIP3    H230305   4.125   4.866   3.581 -0.3508 -0.2845 -0.3304
 2964TIP3   OH230306   4.368   2.915  15.072  0.6581 -0.5111 -0.0449
 2964TIP3    H130307   4.289   2.883  15.116  0.6339 -0.6300 -0.1736
 2964TIP3    H230308   4.366   3.010  15.086 -0.8404 -0.1882 -2.1521
 2965TIP3   OH230309   6.572   1.602   4.820  0.6790  0.4736 -0.0436
 2965TIP3    H130310   6.498   1.647   4.778  1.1897 -0.2697 -1.7758
 2965TIP3    H230311   6.586   1.651   4.902  0.5682  2.8260 -1.3865
 2966TIP3   OH230312   2.612   5.162   0.580  0.7645  0.7324  0.6811
 2966TIP3    H130313   2.602   5.188   0.488  0.1861  1.9531  1.0823
 2966TIP3    H230314   2.566   5.079   0.586  1.0027  0.5271 -0.1837
 2967TIP3   OH230315   0.870   5.377  16.233  0.0455 -0.4216 -0.1564
 2967TIP3    H130316   0.945   5.399  16.178 -1.0779 -0.3070 -1.6805
 2967TIP3    H230317   0.873   5.281  16.241 -0.2323 -0.5186 -1.1042
 2968TIP3   OH230318   2.403   0.352   1.381  0.0908 -0.0902  0.4983
 2968TIP3    H130319   2.360   0.358   1.296  0.8919  0.3703  0.1216
 2968TIP3    H230320   2.356   0.415   1.436 -1.2195 -1.2671  0.7551
 2969TIP3   OH230321   4.038   6.646   1.037  0.5744 -0.2800 -0.2352
 2969TIP3    H130322   3.970   6.676   1.098 -0.8932 -2.2238 -0.8766
 2969TIP3    H230323   4.005   6.670   0.951  0.2096 -2.1308 -0.6250
 2970TIP3   OH230324   5.091   3.934   1.598 -0.2898 -0.4009  0.7805
 2970TIP3    H130325   5.093   3.893   1.511  1.6775  2.5080 -0.6430
 2970TIP3    H230326   5.155   3.884   1.649  1.3862  0.2206 -0.6343
 2971TIP3   OH230327   4.387   6.575  11.974  0.2337  0.2076 -0.9231
 2971TIP3    H130328   4.476   6.541  11.979 -0.3025 -1.1332  0.0066
 2971TIP3    H230329   4.353   6.563  12.063 -0.3345  2.2144 -0.8608
 2972TIP3   OH230330   3.095   0.246   3.836  0.2544 -0.8598  0.2780
 2972TIP3    H130331   3.100   0.236   3.741  0.5997  2.1993 -0.0810
 2972TIP3    H230332   3.183   0.225   3.867  0.1119 -1.9685 -0.0652
 2973TIP3   OH230333   3.606   2.224  16.386 -0.0776 -0.8324 -0.4323
 2973TIP3    H130334   3.687   2.244  16.340 -0.5866 -0.0632 -0.9993
 2973TIP3    H230335   3.543   2.287  16.353 -0.9228 -1.4411 -0.0131
 2974TIP3   OH230336   2.891   0.225  14.945  0.2665  0.6386  0.4783
 2974TIP3    H130337   2.897   0.258  15.035  1.5147  0.7845  0.3603
 2974TIP3    H230338   2.921   0.298  14.891  1.2282 -0.0460  0.0784
 2975TIP3   OH230339   2.645   6.069   2.297 -0.8393  0.2850 -0.2335
 2975TIP3    H130340   2.568   6.120   2.320 -0.7060  1.1182 -1.5905
 2975TIP3    H230341   2.610   5.986   2.263 -1.1354  0.5735 -0.6375
 2976TIP3   OH230342   0.213   1.879  10.875  0.3308  0.8798 -0.3553
 2976TIP3    H130343   0.302   1.854  10.851  0.4410  1.3658 -0.4574
 2976TIP3    H230344   0.209   1.973  10.859  0.0340  0.9972  0.3617
 2977TIP3   OH230345   0.224   4.262  13.136 -0.0446 -0.0593  0.4860
 2977TIP3    H130346   0.248   4.340  13.086  0.2801 -1.1587 -1.0982
 2977TIP3    H230347   0.128   4.263  13.137 -0.0485  0.0645  0.0087
 2978TIP3   OH230348   0.934   4.466  12.448 -0.3005  0.3416 -0.2800
 2978TIP3    H130349   1.007   4.505  12.495 -0.6809  0.7659 -0.0324
 2978TIP3    H230350   0.968   4.449  12.360 -0.7163  3.2121 -1.0662
 2979TIP3   OH230351   6.784   2.225  16.708  0.1987 -0.0192 -0.3711
 2979TIP3    H130352   6.764   2.318  16.695 -2.0553 -0.2504  1.1012
 2979TIP3    H230353   6.754   2.182  16.629  0.8589  0.4502 -0.8828
 2980TIP3   OH230354   4.220   5.458   5.469 -0.0996  0.3974 -0.1254
 2980TIP3    H130355   4.219   5.396   5.396  1.0862  1.0359 -0.7130
 2980TIP3    H230356   4.129   5.487   5.477 -0.4366 -0.5114 -0.6264
 2981TIP3   OH230357   6.484   1.502   4.135  0.0181  0.0669  0.1932
 2981TIP3    H130358   6.510   1.563   4.203 -0.4336 -0.1428  0.5556
 2981TIP3    H230359   6.390   1.490   4.148 -0.3164  1.0054 -1.2491
 2982TIP3   OH230360   6.558   4.637   4.660  0.0550 -0.2149 -0.3447
 2982TIP3    H130361   6.531   4.697   4.590  2.3498  0.6790 -0.5144
 2982TIP3    H230362   6.488   4.643   4.725 -0.9102  0.8179 -1.4577
 2983TIP3   OH230363   6.629   5.509  17.203  0.2674  0.5523  0.1548
 2983TIP3    H130364   6.688   5.530  17.131  0.8017  1.2025  0.7706
 2983TIP3    H230365   6.668   5.432  17.245  0.3363  0.6036  0.1827
 2984TIP3   OH230366   1.275   1.945  15.790  0.6106 -0.1097 -0.1966
 2984TIP3    H130367   1.251   1.855  15.810  0.8400 -0.4344 -1.3274
 2984TIP3    H230368   1.257   1.994  15.870  1.4277 -1.3410  0.7481
 2985TIP3   OH230369   4.997   3.692  12.358 -0.4246  0.1346 -0.1977
 2985TIP3    H130370   5.046   3.610  12.362 -1.3881 -0.4153  0.6777
 2985TIP3    H230371   4.941   3.683  12.281  0.2340  0.4157 -0.7135
 2986TIP3   OH230372   5.821   6.409  15.113  0.0212 -0.4297  0.7934
 2986TIP3    H130373   5.806   6.446  15.027  2.6843  1.4953  1.0858
 2986TIP3    H230374   5.772   6.465  15.173 -0.0959 -0.4744  0.7379
 2987TIP3   OH230375   6.673   2.350   0.607 -0.5002 -0.4465 -0.1776
 2987TIP3    H130376   6.623   2.401   0.543  1.1666  0.3046 -0.8976
 2987TIP3    H230377   6.756   2.397   0.616  0.7394 -2.5803 -0.2275
 2988TIP3   OH230378   6.233   5.047  14.215 -0.3285 -0.4416 -0.5804
 2988TIP3    H130379   6.221   5.061  14.121  0.1280 -0.6622 -0.6744
 2988TIP3    H230380   6.201   5.128  14.255 -2.1155 -1.0086 -0.8031
 2989TIP3   OH230381   1.864   0.993  17.008 -0.1616  0.3185 -0.1869
 2989TIP3    H130382   1.808   1.042  17.068 -0.7630  1.1539 -1.4051
 2989TIP3    H230383   1.884   0.912  17.055 -0.7538  0.8863  1.0690
 2990TIP3   OH230384   6.252   5.968  13.630  0.9362  0.3845 -0.1716
 2990TIP3    H130385   6.303   6.033  13.581  1.6674 -0.4769 -0.5820
 2990TIP3    H230386   6.164   5.974  13.594  1.5044 -0.3596 -1.7519
 2991TIP3   OH230387   0.428   4.671  10.857 -0.0117  0.2062  0.2131
 2991TIP3    H130388   0.348   4.701  10.816  0.3985  1.5584  0.3668
 2991TIP3    H230389   0.421   4.576  10.858 -1.2164  0.2828 -0.5513
 2992TIP3   OH230390   4.565   3.654   1.943  0.1190  0.6046 -0.6234
 2992TIP3    H130391   4.650   3.632   1.982  0.1641 -0.1125 -1.1130
 2992TIP3    H230392   4.525   3.715   2.006  2.2056  3.2603 -1.7589
 2993TIP3   OH230393   6.077   0.283  13.682  0.1178  0.3796  0.4818
 2993TIP3    H130394   6.139   0.210  13.682 -0.3025  0.0181  0.7888
 2993TIP3    H230395   6.025   0.271  13.602  0.7361  0.9385 -0.0101
 2994TIP3   OH230396   4.397   6.397  10.552  0.3946 -0.0216  0.1940
 2994TIP3    H130397   4.345   6.362  10.481  2.1109 -0.7185 -0.7608
 2994TIP3    H230398   4.379   6.340  10.626 -0.1616 -0.2681 -0.1290
 2995TIP3   OH230399   1.674   2.010   2.902  0.4454 -0.3360 -0.1428
 2995TIP3    H130400   1.751   1.955   2.886  0.8712  0.4815 -0.9385
 2995TIP3    H230401   1.652   2.047   2.816  0.8246  1.5823  0.5586
 2996TIP3   OH230402   0.362   4.323   6.363 -0.2816  0.1827  0.0239
 2996TIP3    H130403   0.294   4.259   6.340 -1.5903  0.8689  1.8500
 2996TIP3    H230404   0.439   4.270   6.383 -0.8527 -0.7221 -0.1288
 2997TIP3   OH230405   1.470   4.974  10.324  0.2242 -0.3580 -0.2292
 2997TIP3    H130406   1.549   5.022  10.348  0.3457 -0.2940 -0.7515
 2997TIP3    H230407   1.414   5.041  10.284 -0.1812 -0.3574  0.3350
 2998TIP3   OH230408   5.415   3.323  11.426  0.0612 -0.5138  0.0697
 2998TIP3    H130409   5.425   3.418  11.418  1.3843 -0.6357  0.2058
 2998TIP3    H230410   5.504   3.288  11.419 -0.4410 -1.7697 -0.2660
 2999TIP3   OH230411   3.234   5.415   1.916  0.3750 -0.2505  0.2250
 2999TIP3    H130412   3.273   5.358   1.850 -0.9126 -0.8850 -0.0146
 2999TIP3    H230413   3.304   5.475   1.941  1.5291 -1.4623 -0.0633
 3000TIP3   OH230414   1.544   3.853  14.311  0.3149 -0.0162 -0.1589
 3000TIP3    H130415   1.555   3.947  14.297  0.3191  0.0380  0.1924
 3000TIP3    H230416   1.451   3.837  14.296 -0.3773  0.6445  3.0839
 3001TIP3   OH230417   4.003   4.709  10.518 -0.0388  0.0998  0.2538
 3001TIP3    H130418   4.051   4.789  10.537 -0.1339  0.0008  0.9437
 3001TIP3    H230419   3.925   4.714  10.573 -0.8327  0.2633 -0.8677
 3002TIP3   OH230420   3.795   3.194   1.348  0.2438 -0.0276 -0.5068
 3002TIP3    H130421   3.755   3.208   1.434 -2.6316  2.8132 -2.1497
 3002TIP3    H230422   3.774   3.274   1.299  0.4640 -2.1752 -4.3341
 3003TIP3   OH230423   6.417   2.369  12.097  0.3893  0.4961  0.6804
 3003TIP3    H130424   6.443   2.292  12.147  3.0673 -0.0832 -1.5016
 3003TIP3    H230425   6.461   2.442  12.141 -0.2631  0.4853  1.3568
 3004TIP3   OH230426   3.803   2.707  16.041 -0.2386  0.0743  0.1921
 3004TIP3    H130427   3.894   2.706  16.009 -0.1913 -1.5643  0.3347
 3004TIP3    H230428   3.750   2.713  15.961 -0.0266 -0.2461  0.0234
 3005TIP3   OH230429   3.169   5.560  14.050  0.0085  0.0035  0.3112
 3005TIP3    H130430   3.233   5.612  14.002  0.7940 -0.2850  1.0189
 3005TIP3    H230431   3.162   5.479  14.001 -2.0600  1.1897 -1.4187
 3006TIP3   OH230432   4.567   0.367   5.046  0.1578  0.3360 -0.0870
 3006TIP3    H130433   4.628   0.319   4.990  0.1060 -1.6093  1.4685
 3006TIP3    H230434   4.616   0.444   5.074  1.5924 -0.7165  0.3830
 3007TIP3   OH230435   1.095   5.832   3.978  0.2275  0.1022  1.1785
 3007TIP3    H130436   1.153   5.774   4.029  2.2845  0.7727 -0.3274
 3007TIP3    H230437   1.149   5.909   3.960 -1.5920  1.3117  0.8307
 3008TIP3   OH230438   4.557   2.313   4.145  0.0302 -0.7769  0.3571
 3008TIP3    H130439   4.540   2.259   4.067  1.9978 -1.5320  0.4163
 3008TIP3    H230440   4.476   2.309   4.195 -1.3966  0.0041 -1.8145
 3009TIP3   OH230441   3.291   4.057   0.978  0.3248 -0.2973  0.2799
 3009TIP3    H130442   3.311   4.019   1.063  0.5087 -0.2541  0.2551
 3009TIP3    H230443   3.373   4.097   0.949  0.4849 -1.0085 -0.2822
 3010TIP3   OH230444   3.509   1.109  16.381 -0.5684 -0.1786  0.3481
 3010TIP3    H130445   3.552   1.037  16.427  0.7954 -0.0895 -0.7825
 3010TIP3    H230446   3.475   1.165  16.451  1.6671  0.0732  1.2726
 3011TIP3   OH230447   4.925   3.579  14.311 -0.2091  0.6630 -0.4917
 3011TIP3    H130448   4.878   3.653  14.348 -1.1404  0.1212 -0.5834
 3011TIP3    H230449   5.011   3.583  14.352 -0.8548  0.7384  0.8855
 3012TIP3   OH230450   5.042   2.786  10.520 -0.0725  0.0598 -0.5487
 3012TIP3    H130451   4.949   2.789  10.543  0.7608 -1.3156  3.4122
 3012TIP3    H230452   5.057   2.696  10.493  0.2030  0.1582 -0.7199
 3013TIP3   OH230453   5.284   2.121  12.542 -0.3591  0.4526 -0.2356
 3013TIP3    H130454   5.332   2.199  12.566  2.2215 -1.9532  2.8021
 3013TIP3    H230455   5.337   2.080  12.474  0.6687 -0.9468  1.3835
 3014TIP3   OH230456   4.461   5.712  13.694  0.4961  0.1313  0.6105
 3014TIP3    H130457   4.388   5.650  13.694  1.1196 -0.6337  2.2458
 3014TIP3    H230458   4.539   5.657  13.689  0.9709  0.9752 -1.9074
 3015TIP3   OH230459   4.340   2.530  15.212  0.2458 -0.1332  0.5583
 3015TIP3    H130460   4.394   2.596  15.168 -1.5993  1.5103  0.6699
 3015TIP3    H230461   4.288   2.490  15.142 -0.7179  0.5765  0.8511
 3016TIP3   OH230462   0.141   3.793  11.783 -0.3786  0.3950  0.1217
 3016TIP3    H130463   0.228   3.784  11.744 -0.3848  1.5156 -0.1617
 3016TIP3    H230464   0.155   3.778  11.876  0.0003 -0.1016 -0.0118
 3017TIP3   OH230465   3.511   4.688  12.447  0.2953  0.2478  1.0261
 3017TIP3    H130466   3.528   4.702  12.540  0.7855  0.5573  0.8943
 3017TIP3    H230467   3.429   4.733  12.430  0.6617  0.9640  1.1189
 3018TIP3   OH230468   2.686   4.117   6.383 -0.5371  0.1132 -0.4993
 3018TIP3    H130469   2.591   4.102   6.382 -1.1175  2.9349  2.2445
 3018TIP3    H230470   2.713   4.099   6.473  1.5761 -0.6777 -1.2535
 3019TIP3   OH230471   1.330   3.505   0.697  0.4099 -0.6157 -0.5132
 3019TIP3    H130472   1.281   3.433   0.656  0.6465 -1.2912  0.3709
 3019TIP3    H230473   1.271   3.581   0.689 -0.3602 -1.1866 -0.3615
 3020TIP3   OH230474   1.017   6.333  15.236  0.3199  0.0536  0.4826
 3020TIP3    H130475   0.992   6.389  15.163 -0.2034 -1.4048 -0.4944
 3020TIP3    H230476   1.082   6.384  15.285  0.5290  1.1247 -0.8859
 3021TIP3   OH230477   3.954   5.296  16.280  0.2947  0.1965  0.1252
 3021TIP3    H130478   3.981   5.249  16.359 -1.4202 -0.0013  0.6169
 3021TIP3    H230479   3.955   5.388  16.305 -2.2963  0.0081  1.0544
 3022TIP3   OH230480   0.590   3.913   5.468  0.6482  0.3517 -0.3269
 3022TIP3    H130481   0.606   3.844   5.532  0.2018  0.4110 -0.1487
 3022TIP3    H230482   0.505   3.892   5.429 -0.3143  1.7318  0.9603
 3023TIP3   OH230483   1.599   4.956   3.736  0.0578  0.1201 -0.4331
 3023TIP3    H130484   1.544   4.991   3.667 -3.3272  1.5302  2.8392
 3023TIP3    H230485   1.569   4.866   3.748  0.8847 -0.2404 -1.0029
 3024TIP3   OH230486   5.960   2.354  13.121 -0.0065  0.3622  0.0466
 3024TIP3    H130487   5.961   2.366  13.026 -1.1675 -1.3324 -0.2148
 3024TIP3    H230488   5.869   2.333  13.141  0.3698  0.0238  1.4305
 3025TIP3   OH230489   3.969   1.002   0.598  0.2715 -0.4636 -0.2293
 3025TIP3    H130490   4.049   1.033   0.638 -0.1505  0.2112  0.1006
 3025TIP3    H230491   3.986   0.910   0.578  1.0582 -0.3692  0.0001
 3026TIP3   OH230492   0.373   6.661  12.475  0.0775  0.2568 -0.3142
 3026TIP3    H130493   0.334   6.681  12.560  1.2914 -2.3949  0.9320
 3026TIP3    H230494   0.391   6.567  12.479  0.2164  0.1036 -3.4933
 3027TIP3   OH230495   0.421   1.035  17.124  0.7634  0.2325  0.1823
 3027TIP3    H130496   0.365   1.112  17.137 -0.6772 -0.8570  0.4825
 3027TIP3    H230497   0.398   1.004  17.036  1.8995  0.5865 -0.2478
 3028TIP3   OH230498   3.281   2.913   1.292  0.9272 -0.7602  0.3451
 3028TIP3    H130499   3.196   2.884   1.258  0.9671 -2.4734  1.6135
 3028TIP3    H230500   3.325   2.954   1.218 -1.0037  0.1197 -0.3187
 3029TIP3   OH230501   5.695   1.266   1.342  0.3841  0.1805  0.2272
 3029TIP3    H130502   5.640   1.237   1.414 -1.4172 -0.3834 -1.3557
 3029TIP3    H230503   5.732   1.349   1.372 -0.1860 -0.1404  1.8614
 3030TIP3   OH230504   5.385   3.582   0.735  0.0261  0.1725  0.3002
 3030TIP3    H130505   5.389   3.489   0.758 -1.3872  0.0549  0.1170
 3030TIP3    H230506   5.447   3.592   0.663  0.6809 -0.4895  0.7690
 3031TIP3   OH230507   2.526   4.507  16.312 -0.2503 -0.3623  0.1285
 3031TIP3    H130508   2.550   4.502  16.404  1.2803  0.9580 -0.1847
 3031TIP3    H230509   2.456   4.572  16.309  0.5948  0.5663  0.2077
 3032TIP3   OH230510   4.928   1.737  11.666 -0.4804 -0.0120  0.0218
 3032TIP3    H130511   4.861   1.688  11.714 -0.5607  0.6300  0.5756
 3032TIP3    H230512   5.009   1.690  11.683 -0.2634  1.0205  2.0028
 3033TIP3   OH230513   4.203   0.274   0.431 -0.1184  0.0186  0.2929
 3033TIP3    H130514   4.228   0.199   0.378 -3.5200 -0.9979  0.0239
 3033TIP3    H230515   4.195   0.239   0.520 -3.0803 -0.3162 -0.0660
 3034TIP3   OH230516   0.365   3.130  15.626 -0.4463 -0.0325 -0.1881
 3034TIP3    H130517   0.432   3.064  15.642 -1.4401 -0.6006  1.9390
 3034TIP3    H230518   0.306   3.089  15.563  0.3656 -0.1319 -0.8929
 3035TIP3   OH230519   2.665   3.963  11.281 -0.7594  0.3232 -0.5985
 3035TIP3    H130520   2.661   3.877  11.238 -1.3944 -0.1451  0.3734
 3035TIP3    H230521   2.615   4.021  11.223  0.2657  0.2008 -1.6178
 3036TIP3   OH230522   2.049   2.153  12.646 -0.2618  0.3183 -0.3936
 3036TIP3    H130523   2.077   2.154  12.555  1.5476 -0.5145  0.1156
 3036TIP3    H230524   2.126   2.120  12.694 -1.4519 -0.0269  1.3273
 3037TIP3   OH230525   3.682   2.916  10.748  0.0728  0.1203 -0.3974
 3037TIP3    H130526   3.662   2.838  10.800  0.5148  1.0354  1.1785
 3037TIP3    H230527   3.631   2.986  10.788  0.5672  0.8814 -1.0695
 3038TIP3   OH230528   1.576   6.444  13.357  0.0785  0.1021  0.4889
 3038TIP3    H130529   1.507   6.378  13.365  1.8865 -1.8416  0.5315
 3038TIP3    H230530   1.591   6.451  13.263  1.4033 -1.2092  0.5833
 3039TIP3   OH230531   0.244   1.755   6.182 -0.0291  0.2810 -0.2848
 3039TIP3    H130532   0.251   1.760   6.277 -0.4368  0.4515 -0.2624
 3039TIP3    H230533   0.261   1.844   6.152 -1.7513  0.6298 -0.2505
 3040TIP3   OH230534   3.912   2.757   0.339  0.1941  0.8660 -0.1944
 3040TIP3    H130535   3.937   2.843   0.308  3.1919 -0.7803 -2.5885
 3040TIP3    H230536   3.994   2.710   0.350 -1.3422 -1.5447  1.5689
 3041TIP3   OH230537   5.630   0.754   3.914 -0.2609 -0.2583  0.5625
 3041TIP3    H130538   5.696   0.709   3.862  1.0398  1.4735  0.6780
 3041TIP3    H230539   5.618   0.838   3.870 -2.8139 -0.7745  0.2160
 3042TIP3   OH230540   3.129   5.439   3.873  0.4364 -0.0125  0.0228
 3042TIP3    H130541   3.158   5.420   3.784  0.5289  1.5944 -0.2940
 3042TIP3    H230542   3.093   5.355   3.904  1.3994 -0.8699 -1.1208
 3043TIP3   OH230543   2.591   6.774   0.819 -0.1998  0.5477  0.0852
 3043TIP3    H130544   2.566   6.829   0.893 -1.6558  0.0222 -0.0112
 3043TIP3    H230545   2.572   6.685   0.846  1.9383  0.0625  0.1451
 3044TIP3   OH230546   0.614   0.851   3.180  0.1231  0.3958  0.2388
 3044TIP3    H130547   0.554   0.891   3.117  1.4124 -0.9653 -1.9268
 3044TIP3    H230548   0.566   0.776   3.215 -0.1412  0.4187 -0.0701
 3045TIP3   OH230549   5.688   4.287   1.735  0.2442 -0.0063 -0.0588
 3045TIP3    H130550   5.663   4.379   1.747 -1.5372 -0.5425  0.4210
 3045TIP3    H230551   5.677   4.272   1.641 -2.4585 -0.5707  0.3276
 3046TIP3   OH230552   1.267   6.647   1.632  0.0319 -0.1956 -0.3163
 3046TIP3    H130553   1.314   6.615   1.555  1.2795 -0.9744  0.7496
 3046TIP3    H230554   1.296   6.590   1.703  0.0277  1.4336  1.0302
 3047TIP3   OH230555   5.358   3.211   2.980  0.0550 -0.2842 -0.4306
 3047TIP3    H130556   5.322   3.179   3.062 -1.4587 -1.8140 -1.6646
 3047TIP3    H230557   5.316   3.296   2.967 -1.0188 -0.8102 -0.4617
 3048TIP3   OH230558   3.722   3.301   1.589  0.3417 -0.2065  0.1253
 3048TIP3    H130559   3.691   3.385   1.554 -4.4671 -1.5597  0.8673
 3048TIP3    H230560   3.802   3.323   1.637  0.5757  3.5164 -1.7870
 3049TIP3   OH230561   3.202   2.369  10.515  0.4869  0.5398  0.2202
 3049TIP3    H130562   3.287   2.368  10.471  0.1672  0.8091 -0.4113
 3049TIP3    H230563   3.154   2.295  10.479  0.1405  0.8935 -0.0566
 3050TIP3   OH230564   0.673   1.801  12.190  0.3796  1.1199  0.1742
 3050TIP3    H130565   0.747   1.749  12.160 -1.0947 -1.2284  0.4612
 3050TIP3    H230566   0.706   1.849  12.266  1.7423  0.5095 -0.0256
 3051TIP3   OH230567   5.454   0.063   1.339 -0.4887  0.3342  0.3843
 3051TIP3    H130568   5.437   0.129   1.407  1.7879  0.2730  1.0723
 3051TIP3    H230569   5.368   0.044   1.301 -1.5545  1.6532  2.0694
 3052TIP3   OH230570   6.212   4.862  16.305  0.0515  0.4796  0.0325
 3052TIP3    H130571   6.239   4.844  16.395  0.9461  0.7164 -0.1803
 3052TIP3    H230572   6.129   4.909  16.314 -0.0523  0.1688  0.7220
 3053TIP3   OH230573   3.465   0.412  14.171 -0.7086  0.2380 -0.9844
 3053TIP3    H130574   3.497   0.361  14.097 -2.0523 -0.1056 -1.3495
 3053TIP3    H230575   3.400   0.355  14.213  0.7279  0.0345  1.0510
 3054TIP3   OH230576   0.936   0.682  12.833 -0.3197  0.1196 -0.0278
 3054TIP3    H130577   0.936   0.586  12.829  0.9302 -0.0015  1.9224
 3054TIP3    H230578   1.009   0.708  12.776 -1.0995 -0.0425 -1.1112
 3055TIP3   OH230579   0.458   4.454   5.337  0.4064  0.1480 -0.6193
 3055TIP3    H130580   0.534   4.490   5.385  0.9221 -2.0073  0.2111
 3055TIP3    H230581   0.403   4.531   5.320  2.7980  1.7983 -1.3262
 3056TIP3   OH230582   1.420   6.219   2.789  0.5573  0.7147 -0.4382
 3056TIP3    H130583   1.374   6.303   2.787 -0.0794  0.3537 -0.8949
 3056TIP3    H230584   1.362   6.158   2.743  2.1148  0.5555 -2.2038
 3057TIP3   OH230585   1.850   3.045   2.008  0.2165  0.0147 -0.4588
 3057TIP3    H130586   1.939   3.078   2.010  0.1330  0.2482 -0.5859
 3057TIP3    H230587   1.841   3.003   1.923 -0.4223  1.7428 -1.2666
 3058TIP3   OH230588   0.080   5.239  11.753 -0.0652  0.5887  0.4304
 3058TIP3    H130589   0.025   5.252  11.830 -0.0254  2.9872  0.0916
 3058TIP3    H230590   0.161   5.287  11.772  0.2422  0.5836 -0.7992
 3059TIP3   OH230591   4.250   0.514  16.643  0.1482 -0.1286  0.2452
 3059TIP3    H130592   4.337   0.545  16.618  0.2802 -0.7412 -0.0564
 3059TIP3    H230593   4.264   0.427  16.678 -0.1601  0.3893  1.6641
 3060TIP3   OH230594   6.064   2.303  17.090  0.3457  0.3791 -0.3460
 3060TIP3    H130595   6.035   2.384  17.048  0.9074  0.3018 -0.8942
 3060TIP3    H230596   6.150   2.324  17.126  0.4866  0.0318 -0.4821
 3061TIP3   OH230597   5.437   4.039  16.732  0.0528 -0.1064  0.2507
 3061TIP3    H130598   5.495   4.113  16.716  0.0555 -0.6208 -2.2941
 3061TIP3    H230599   5.455   3.978  16.661 -1.9030 -1.3441  0.7623
 3062TIP3   OH230600   2.056   6.256   2.026  0.0972  0.0417 -0.0822
 3062TIP3    H130601   2.056   6.341   1.982  2.2138  0.8466  1.3795
 3062TIP3    H230602   1.987   6.207   1.983 -3.2377  3.5428  0.9770
 3063TIP3   OH230603   6.470   4.102   3.067  0.3906 -0.3373 -0.9029
 3063TIP3    H130604   6.500   4.011   3.067  0.1681 -0.4343  0.6898
 3063TIP3    H230605   6.551   4.153   3.069  0.5056 -0.5311 -0.3871
 3064TIP3   OH230606   4.596   5.450  13.721 -0.3226 -0.0149  0.0653
 3064TIP3    H130607   4.639   5.417  13.642 -1.8719 -1.0306 -0.3653
 3064TIP3    H230608   4.667   5.462  13.784  1.0401  1.4943 -1.6982
 3065TIP3   OH230609   0.307   4.645   3.811  0.0052  0.2728 -0.5837
 3065TIP3    H130610   0.356   4.564   3.794 -1.9545 -0.7474 -1.5190
 3065TIP3    H230611   0.294   4.645   3.905  0.2918 -0.3638 -0.5379
 3066TIP3   OH230612   6.019   0.468   0.804  0.2385  0.1826 -0.1349
 3066TIP3    H130613   6.069   0.507   0.732  2.1314 -2.2097 -0.1814
 3066TIP3    H230614   6.078   0.474   0.880 -0.2757 -0.6869  0.3318
 3067TIP3   OH230615   4.589   4.581   2.863 -0.4832 -0.4772  0.0648
 3067TIP3    H130616   4.567   4.487   2.862 -0.1342 -0.6226  2.5876
 3067TIP3    H230617   4.673   4.585   2.817 -1.6279 -1.0535 -2.1529
 3068TIP3   OH230618   5.601   6.294  13.046 -0.0117 -0.0823  0.1463
 3068TIP3    H130619   5.683   6.273  13.000 -1.4591  0.2918 -2.7484
 3068TIP3    H230620   5.591   6.389  13.033 -0.3920  0.0440  1.3548
 3069TIP3   OH230621   6.148   1.476  11.884 -0.4347  0.3357  0.4772
 3069TIP3    H130622   6.101   1.394  11.869  0.4877  0.0661 -1.0450
 3069TIP3    H230623   6.225   1.451  11.934  0.2556  0.1466 -0.6685
 3070TIP3   OH230624   2.966   1.660   1.333 -0.4680  0.2158  0.4919
 3070TIP3    H130625   2.990   1.751   1.351  0.8664 -0.1468  0.5949
 3070TIP3    H230626   2.986   1.613   1.414  2.8088 -0.9006 -0.9070
 3071TIP3   OH230627   0.858   4.062  13.199 -0.2031 -0.3601 -0.0204
 3071TIP3    H130628   0.773   4.023  13.221 -0.7648 -0.1021 -1.6670
 3071TIP3    H230629   0.854   4.076  13.104  0.6329  2.0985  0.2759
 3072TIP3   OH230630   2.594   5.404   0.118 -0.3160 -0.0995 -0.4282
 3072TIP3    H130631   2.684   5.431   0.138 -0.1852 -1.4112  0.8820
 3072TIP3    H230632   2.551   5.483   0.085  0.5520  1.2443  1.5849
 3073TIP3   OH230633   4.475   2.959  15.478 -0.1429  0.3792  0.5300
 3073TIP3    H130634   4.438   2.904  15.547 -2.5936  0.3491 -0.7577
 3073TIP3    H230635   4.522   2.898  15.422 -0.3662  0.0071  0.7418
 3074TIP3   OH230636   1.204   0.376  12.904  0.2458  0.1101  0.2413
 3074TIP3    H130637   1.200   0.406  12.813  0.5947  1.0049  0.5179
 3074TIP3    H230638   1.116   0.391  12.939 -0.5060 -2.1811 -0.5359
 3075TIP3   OH230639   2.110   3.474  15.405  0.2419 -0.6370 -0.2752
 3075TIP3    H130640   2.109   3.468  15.309 -0.6321 -0.3356 -0.2888
 3075TIP3    H230641   2.077   3.562  15.424  2.5345  0.1431  0.2427
 3076TIP3   OH230642   3.694   5.507  13.949  0.7734 -0.1528  0.0524
 3076TIP3    H130643   3.644   5.433  13.985 -0.4497  0.5623 -0.1728
 3076TIP3    H230644   3.741   5.542  14.025 -1.2265  0.8897  0.8550
 3077TIP3   OH230645   5.496   2.983  12.920  0.0005 -0.1574  0.2806
 3077TIP3    H130646   5.414   2.978  12.969 -0.7439  0.0499 -0.9256
 3077TIP3    H230647   5.470   3.015  12.833  1.1656 -1.4169 -0.5526
 3078TIP3   OH230648   2.463   0.042   1.060  0.0162 -0.3344  0.1744
 3078TIP3    H130649   2.498  -0.046   1.049 -0.4393 -0.6515  1.1849
 3078TIP3    H230650   2.433   0.045   1.151 -1.0231  0.4794 -0.1794
 3079TIP3   OH230651   6.543   4.272  11.543 -0.3519  0.1145  0.7881
 3079TIP3    H130652   6.566   4.209  11.610 -0.4051 -0.8536 -0.0879
 3079TIP3    H230653   6.623   4.283  11.492 -1.1492 -1.5221 -0.8684
 3080TIP3   OH230654   4.214   3.514  16.222 -0.5114 -0.3311 -0.1545
 3080TIP3    H130655   4.176   3.571  16.289 -0.6460 -0.6577  0.0472
 3080TIP3    H230656   4.145   3.503  16.157 -0.4397 -0.1544 -0.2619
 3081TIP3   OH230657   3.612   5.474   4.252 -0.0420 -0.0732  0.3061
 3081TIP3    H130658   3.598   5.399   4.195  1.3757  0.4027 -0.7102
 3081TIP3    H230659   3.622   5.437   4.339  1.4383 -1.1380 -0.3028
 3082TIP3   OH230660   0.504   0.902   5.648  0.3794  0.2416 -0.0443
 3082TIP3    H130661   0.517   0.997   5.656 -0.1320  0.3467 -0.4091
 3082TIP3    H230662   0.542   0.866   5.727 -0.3186  0.8364  0.5728
 3083TIP3   OH230663   2.719   6.431  16.289 -0.1105 -0.1601  0.2543
 3083TIP3    H130664   2.705   6.371  16.215 -3.2864  0.8563 -0.0538
 3083TIP3    H230665   2.753   6.511  16.249  0.6496 -0.5114  0.2056
 3084TIP3   OH230666   2.188   0.660   1.251 -0.1773  0.3620  0.2426
 3084TIP3    H130667   2.201   0.566   1.251 -1.1323  0.2265  1.0587
 3084TIP3    H230668   2.274   0.696   1.226  0.5861 -0.6560  1.3644
 3085TIP3   OH230669   1.486   5.267  15.412  0.2571  0.1253  0.0955
 3085TIP3    H130670   1.553   5.221  15.361 -2.8890 -4.3892 -0.3597
 3085TIP3    H230671   1.522   5.272  15.500  2.1611 -0.0252 -0.6520
 3086TIP3   OH230672   4.136   6.577   3.236 -0.1828  0.1094 -0.6061
 3086TIP3    H130673   4.150   6.505   3.174  0.5447 -0.7411  0.5345
 3086TIP3    H230674   4.182   6.651   3.196  1.7957 -0.8902 -0.2571
 3087TIP3   OH230675   1.081   1.020   1.595 -0.1218 -0.6497  0.2474
 3087TIP3    H130676   1.014   1.020   1.527  1.9078 -1.4529 -1.8639
 3087TIP3    H230677   1.141   1.091   1.571 -0.0657 -0.0879  1.9534
 3088TIP3   OH230678   2.918   3.929   4.261 -0.4005  0.1859  0.0572
 3088TIP3    H130679   2.836   3.884   4.282  0.0809 -0.7770 -0.1259
 3088TIP3    H230680   2.965   3.935   4.344  0.1961 -0.9894 -0.1891
 3089TIP3   OH230681   4.546   5.208   1.743  0.1322  0.1802 -0.1123
 3089TIP3    H130682   4.606   5.135   1.730  0.2655  0.1540  0.6256
 3089TIP3    H230683   4.539   5.216   1.839 -2.4328 -0.9692 -0.1691
 3090TIP3   OH230684   5.252   0.832  17.216  0.1375  0.1571  0.0631
 3090TIP3    H130685   5.332   0.859  17.170  0.4313  0.0469  0.5054
 3090TIP3    H230686   5.195   0.800  17.147 -0.2304  1.9386 -0.4914
 3091TIP3   OH230687   1.499   3.708   2.214 -0.9327  0.6562 -0.1077
 3091TIP3    H130688   1.548   3.643   2.164 -1.5609 -0.3540  0.5728
 3091TIP3    H230689   1.482   3.666   2.298  0.6105  2.5652  1.1806
 3092TIP3   OH230690   4.439   3.565  13.142 -0.3882  0.2753  0.8981
 3092TIP3    H130691   4.352   3.551  13.180 -0.3444 -0.5375  0.7027
 3092TIP3    H230692   4.422   3.581  13.049 -0.3174 -0.0257  0.8334
 3093TIP3   OH230693   3.021   4.975  14.535 -0.0954  0.8719 -0.7669
 3093TIP3    H130694   3.106   5.009  14.506 -0.4876  2.4158 -0.1948
 3093TIP3    H230695   2.972   5.054  14.560 -1.3737 -0.0779 -0.2590
 3094TIP3   OH230696   6.406   3.022  16.034 -0.1114  0.0514  0.0290
 3094TIP3    H130697   6.444   3.107  16.059  1.4779 -0.5856 -0.1647
 3094TIP3    H230698   6.347   3.043  15.962 -2.7252  1.5321  2.5143
 3095TIP3   OH230699   0.602   2.163   3.555 -0.1729 -0.3308 -0.7333
 3095TIP3    H130700   0.520   2.114   3.555 -1.6042  1.9675 -0.4131
 3095TIP3    H230701   0.617   2.185   3.463  0.7299 -1.7583 -0.9379
 3096TIP3   OH230702   5.274   4.364   0.800  0.5196  0.6528 -0.1210
 3096TIP3    H130703   5.323   4.445   0.812  1.7983  0.2308 -2.2915
 3096TIP3    H230704   5.182   4.389   0.812  0.8367  2.6146 -1.6382
 3097TIP3   OH230705   4.892   3.826  12.583 -0.0175 -0.6738 -0.1042
 3097TIP3    H130706   4.942   3.883  12.640 -1.2622  1.1708 -0.8149
 3097TIP3    H230707   4.956   3.789  12.522  0.8984 -0.6124  0.8240
 3098TIP3   OH230708   2.376   4.272   6.128  0.5425  0.0537  0.2251
 3098TIP3    H130709   2.320   4.202   6.161  1.2353 -0.4212  0.4245
 3098TIP3    H230710   2.410   4.315   6.206  1.0401 -0.1460  0.1277
 3099TIP3   OH230711   3.869   3.217   2.587  0.7498  0.0339 -0.5484
 3099TIP3    H130712   3.913   3.210   2.671  0.7525 -1.8182 -0.6772
 3099TIP3    H230713   3.831   3.130   2.572 -0.0704  0.6132 -2.0062
 3100TIP3   OH230714   5.529   6.403   5.365 -0.0559  0.1192  0.4665
 3100TIP3    H130715   5.512   6.474   5.303  0.6533 -0.4689 -0.4170
 3100TIP3    H230716   5.593   6.440   5.426  0.8279  0.0301 -0.3949
 3101TIP3   OH230717   6.086   1.807   5.488  0.0645  0.3984  0.1763
 3101TIP3    H130718   6.067   1.728   5.539 -3.0428  0.8207 -0.2541
 3101TIP3    H230719   6.102   1.874   5.554  2.6474 -0.5052  0.5475
 3102TIP3   OH230720   4.369   2.957  13.998  0.4319 -0.3829  0.7659
 3102TIP3    H130721   4.293   2.955  13.941  1.6014  1.8271 -0.9954
 3102TIP3    H230722   4.347   3.022  14.065  0.7823  0.3259  0.2020
 3103TIP3   OH230723   6.090   2.326   0.178 -0.2003 -0.1739 -0.2372
 3103TIP3    H130724   6.004   2.356   0.206  0.1256 -1.0059  1.6913
 3103TIP3    H230725   6.073   2.239   0.141 -0.4485  0.4233 -1.5531
 3104TIP3   OH230726   0.410   3.496   1.210  0.4148 -0.3079  0.1049
 3104TIP3    H130727   0.442   3.551   1.282  0.4640  0.9347 -0.8543
 3104TIP3    H230728   0.424   3.407   1.241 -0.3782  0.2006  1.9980
 3105TIP3   OH230729   6.394   6.020  12.267 -0.0901  0.1985  0.2975
 3105TIP3    H130730   6.483   6.048  12.245 -0.2099  0.6083  0.3257
 3105TIP3    H230731   6.404   5.929  12.297  0.2396  0.0439 -0.2697
 3106TIP3   OH230732   6.565   1.798   3.722 -0.1935 -0.4885 -0.0495
 3106TIP3    H130733   6.657   1.787   3.749 -0.7511  1.5822  2.8401
 3106TIP3    H230734   6.515   1.754   3.791 -1.4533 -0.3688 -0.8839
 3107TIP3   OH230735   1.564   5.626   1.858 -0.9743  0.4810 -0.5900
 3107TIP3    H130736   1.572   5.681   1.936  1.5109  1.5160 -1.5433
 3107TIP3    H230737   1.483   5.577   1.872 -1.5780  2.0595  1.7435
 3108TIP3   OH230738   1.818   4.888   0.469  0.0563 -0.8009  0.0169
 3108TIP3    H130739   1.742   4.940   0.494 -0.9244 -2.4920  0.6157
 3108TIP3    H230740   1.812   4.808   0.522  1.3586 -1.6703 -1.0944
 3109TIP3   OH230741   6.661   0.575   0.458  0.2389  0.5260 -0.0697
 3109TIP3    H130742   6.598   0.646   0.471  0.2042  0.7861 -1.6092
 3109TIP3    H230743   6.697   0.590   0.370  2.5021  0.4097  0.7934
 3110TIP3   OH230744   6.512   2.132   1.490  0.1270 -0.2100  0.1394
 3110TIP3    H130745   6.461   2.212   1.503  0.6544  0.1811 -0.1623
 3110TIP3    H230746   6.471   2.068   1.547 -0.1932  0.3249  0.5169
 3111TIP3   OH230747   0.495   4.691  13.236  0.8473 -0.2843 -0.7513
 3111TIP3    H130748   0.588   4.675  13.223  1.0238  0.7163 -0.7847
 3111TIP3    H230749   0.465   4.618  13.289  2.1079  0.4732  1.0745
 3112TIP3   OH230750   5.579   6.120  16.230 -0.1696  0.6628 -0.3538
 3112TIP3    H130751   5.511   6.076  16.178  0.4811 -0.8560  0.0404
 3112TIP3    H230752   5.577   6.075  16.315  0.2259  1.6998  0.2146
 3113TIP3   OH230753   5.838   5.722   5.558 -0.2539  0.6712 -0.9413
 3113TIP3    H130754   5.820   5.809   5.524  0.0973  0.8329 -0.7157
 3113TIP3    H230755   5.801   5.662   5.493 -1.0589  0.9911 -0.7738
 3114TIP3   OH230756   3.038   2.575   1.274  0.1709 -0.0024  0.2931
 3114TIP3    H130757   3.034   2.485   1.241  1.2607 -0.1717  0.5856
 3114TIP3    H230758   3.095   2.569   1.351 -2.3599  0.3690  2.2314
 3115TIP3   OH230759   6.551   0.194   2.767 -1.0142 -0.2365 -0.2866
 3115TIP3    H130760   6.486   0.126   2.752 -1.2212 -0.4463  1.5231
 3115TIP3    H230761   6.511   0.254   2.830  0.5126 -0.3612  0.8421
 3116TIP3   OH230762   0.986   2.729   1.813  0.6892 -0.2761 -0.4515
 3116TIP3    H130763   0.936   2.678   1.749  0.2310  1.1333 -1.2243
 3116TIP3    H230764   0.922   2.789   1.852  0.4935 -2.4329  2.7927
 3117TIP3   OH230765   6.254   6.342   0.580  0.4564 -0.2203 -0.7043
 3117TIP3    H130766   6.244   6.316   0.488 -1.0869 -0.4779 -0.4771
 3117TIP3    H230767   6.232   6.264   0.630  2.0717 -0.3055 -0.1119
 3118TIP3   OH230768   3.569   0.261  13.936 -0.3487  0.1996 -0.7088
 3118TIP3    H130769   3.646   0.318  13.934  0.4008 -0.7948 -0.3704
 3118TIP3    H230770   3.599   0.182  13.982 -2.5898  1.3144  2.8679
 3119TIP3   OH230771   5.223   3.356  14.073 -0.1466  0.0361  0.0150
 3119TIP3    H130772   5.222   3.261  14.066 -1.3331  0.1345 -1.3064
 3119TIP3    H230773   5.242   3.387  13.984 -0.7058  1.0550  0.2440
 3120TIP3   OH230774   1.038   0.211  13.970  0.3711 -0.4076 -0.1892
 3120TIP3    H130775   1.000   0.285  14.018  1.1969 -0.1424  0.0697
 3120TIP3    H230776   1.034   0.238  13.878  1.4419  0.3336 -0.0294
 3121TIP3   OH230777   0.527   5.743   2.378  0.0576  0.3424 -0.1033
 3121TIP3    H130778   0.519   5.653   2.347 -0.4239  0.0401  0.8593
 3121TIP3    H230779   0.497   5.796   2.305 -1.2503 -0.3593 -0.0951
 3122TIP3   OH230780   5.170   6.531  11.007 -0.3571  0.3106 -0.3309
 3122TIP3    H130781   5.174   6.595  10.937 -0.8193  0.7329  0.0220
 3122TIP3    H230782   5.085   6.547  11.049  0.1553  0.4489  0.6773
 3123TIP3   OH230783   2.733   0.157   1.236 -0.3789 -0.3104  0.2417
 3123TIP3    H130784   2.776   0.190   1.157  1.0276  0.9809  1.5068
 3123TIP3    H230785   2.649   0.203   1.239 -0.8437 -1.0618 -0.9849
 3124TIP3   OH230786   0.680   3.031   0.586  0.1206 -0.6073 -0.2505
 3124TIP3    H130787   0.685   3.089   0.662 -1.5116 -1.2645  0.3775
 3124TIP3    H230788   0.710   3.085   0.513 -2.3677  1.4051  0.1311
 3125TIP3   OH230789   6.412   2.396   0.984  0.2538 -0.1545 -0.0138
 3125TIP3    H130790   6.367   2.434   1.060 -1.8096  0.3778 -1.4627
 3125TIP3    H230791   6.491   2.450   0.974 -0.4993  1.0838  0.5350
 3126TIP3   OH230792   0.372   3.224   4.874  0.4521 -0.8440 -0.3254
 3126TIP3    H130793   0.444   3.200   4.815 -0.2203 -1.6219 -0.8434
 3126TIP3    H230794   0.415   3.254   4.953  1.3587 -0.9935 -0.7567
 3127TIP3   OH230795   5.270   4.227   3.520 -0.2469 -0.1624 -0.0938
 3127TIP3    H130796   5.360   4.258   3.512 -0.0884 -0.6473 -0.2303
 3127TIP3    H230797   5.276   4.133   3.503 -0.9606  0.0085 -1.3404
 3128TIP3   OH230798   3.122   2.516   5.650 -0.0302  0.1482 -0.1405
 3128TIP3    H130799   3.182   2.542   5.580  1.0821 -1.2953  0.2531
 3128TIP3    H230800   3.163   2.440   5.691 -1.6772 -0.3125  0.7446
 3129TIP3   OH230801   0.263   1.402  12.711  0.5995 -0.3343  0.5160
 3129TIP3    H130802   0.316   1.401  12.631 -0.8652 -0.0688 -0.4813
 3129TIP3    H230803   0.214   1.485  12.706 -1.5065 -1.5676  0.3485
 3130TIP3   OH230804   5.428   5.534  16.395 -0.2991  0.0761 -0.3535
 3130TIP3    H130805   5.431   5.460  16.333 -0.2312 -0.7413  0.6187
 3130TIP3    H230806   5.483   5.601  16.354 -0.6432 -0.2738 -1.4186
 3131TIP3   OH230807   2.243   2.191  15.496  0.4314  0.2519  0.4381
 3131TIP3    H130808   2.262   2.225  15.583  1.0954 -3.0085  1.6195
 3131TIP3    H230809   2.150   2.167  15.499  0.2321  0.9254 -0.0601
 3132TIP3   OH230810   1.356   1.223  13.269 -0.1870 -0.9638 -0.2732
 3132TIP3    H130811   1.301   1.187  13.338 -1.8707  0.3236 -0.9284
 3132TIP3    H230812   1.407   1.292  13.311 -1.8622  0.4319 -0.4801
 3133TIP3   OH230813   6.629   4.878  13.049 -0.2584 -0.1767  0.5014
 3133TIP3    H130814   6.620   4.881  13.145 -1.0524  0.1052  0.4149
 3133TIP3    H230815   6.541   4.892  13.016  0.0078 -0.3371 -0.2799
 3134TIP3   OH230816   0.973   2.196   4.925  1.3154  0.1673 -0.3071
 3134TIP3    H130817   0.946   2.284   4.953  2.0458  0.3450 -0.1606
 3134TIP3    H230818   0.918   2.137   4.976  0.2155  0.5505 -1.0238
 3135TIP3   OH230819   2.472   6.250  12.114  0.3194  0.2212  0.4160
 3135TIP3    H130820   2.416   6.177  12.088  1.5737 -1.2054  1.6184
 3135TIP3    H230821   2.484   6.301  12.033  0.0712 -1.3310 -0.6194
 3136TIP3   OH230822   3.252   2.132  13.159  1.0733  0.1884  0.4099
 3136TIP3    H130823   3.214   2.147  13.245  0.4579  0.9236  0.0147
 3136TIP3    H230824   3.277   2.040  13.159  1.9852  0.4308  1.7325
 3137TIP3   OH230825   6.372   6.370  13.371 -0.4749  0.1504  0.5362
 3137TIP3    H130826   6.456   6.364  13.326 -0.8586  0.3771 -0.2206
 3137TIP3    H230827   6.361   6.464  13.387 -1.0033  0.2105 -0.1743
 3138TIP3   OH230828   0.595   2.064  12.666  0.1753 -0.5316  0.0716
 3138TIP3    H130829   0.573   2.145  12.620  0.1548 -0.7856 -0.3626
 3138TIP3    H230830   0.556   2.075  12.753 -0.4992 -0.4115 -0.2495
 3139TIP3   OH230831   6.388   6.157   6.325 -0.3687  0.1143  0.9967
 3139TIP3    H130832   6.384   6.253   6.323 -1.3211  0.0944  1.8363
 3139TIP3    H230833   6.308   6.129   6.281  0.5299 -0.3146 -0.4260
 3140TIP3   OH230834   0.711   3.093   5.060  0.4176  0.5499 -0.5086
 3140TIP3    H130835   0.672   3.154   4.997  0.4892  1.6218  0.4593
 3140TIP3    H230836   0.730   3.015   5.010 -0.6725  0.9421 -1.5455
 3141TIP3   OH230837   2.821   4.741   0.058 -0.4476 -0.1179  0.3034
 3141TIP3    H130838   2.730   4.715   0.048 -0.0833 -1.0790 -0.6129
 3141TIP3    H230839   2.837   4.803  -0.014  0.3152 -1.9118 -1.1143
 3142TIP3   OH230840   1.167   5.389   2.560  0.4460  0.1694  0.6080
 3142TIP3    H130841   1.174   5.316   2.498 -0.5073 -0.8104  1.6502
 3142TIP3    H230842   1.242   5.445   2.538  0.5970 -0.5821 -0.8854
 3143TIP3   OH230843   0.607   0.862  11.694  0.0420  0.8444 -0.0114
 3143TIP3    H130844   0.702   0.870  11.700 -0.0386  0.5014  2.2190
 3143TIP3    H230845   0.594   0.787  11.635  1.1122  1.3569 -0.9379
 3144TIP3   OH230846   5.017   3.440  14.605 -0.1419  0.4159 -0.2065
 3144TIP3    H130847   5.032   3.504  14.675  0.7551  0.6038 -0.5703
 3144TIP3    H230848   5.075   3.467  14.535 -0.3884 -0.3004 -0.6917
 3145TIP3   OH230849   5.075   2.201   4.319  0.2498 -0.3508  0.3000
 3145TIP3    H130850   5.078   2.191   4.415 -1.9751 -1.1818  0.3276
 3145TIP3    H230851   5.109   2.118   4.286 -2.7373 -1.7300  0.4501
 3146TIP3   OH230852   3.323   0.984  14.711 -0.1072 -0.1646 -0.1667
 3146TIP3    H130853   3.366   0.954  14.631  1.5762 -0.3163  0.7879
 3146TIP3    H230854   3.305   1.077  14.695 -0.2776 -0.3236 -0.9334
 3147TIP3   OH230855   0.467   3.261  14.345  0.5116 -0.4127 -0.6726
 3147TIP3    H130856   0.560   3.242  14.358  1.4302  4.2236  0.1817
 3147TIP3    H230857   0.423   3.215  14.416  2.2449 -1.6087 -0.3448
 3148TIP3   OH230858   6.025   0.430  14.414 -0.1021  0.7799  0.2414
 3148TIP3    H130859   6.050   0.430  14.507  1.3635 -1.7086 -0.1042
 3148TIP3    H230860   6.104   0.457  14.368  0.4251 -1.9091 -0.5121
 3149TIP3   OH230861   6.680   2.429   4.917 -0.3945  0.4964 -0.4217
 3149TIP3    H130862   6.681   2.524   4.904  0.6100  1.1157  3.6174
 3149TIP3    H230863   6.606   2.414   4.976  0.6061 -1.0003  0.4725
 3150TIP3   OH230864   1.777   4.514  14.963 -0.4754  0.8607  0.3091
 3150TIP3    H130865   1.855   4.554  15.001 -1.3289  1.6512  1.2588
 3150TIP3    H230866   1.708   4.579  14.976 -0.9885  0.7781 -1.8195
 3151TIP3   OH230867   3.431   6.524  14.153 -0.1257  0.9540 -0.2938
 3151TIP3    H130868   3.410   6.481  14.070  0.2058  1.9170 -0.8788
 3151TIP3    H230869   3.348   6.564  14.181 -0.4181  0.0033  0.2168
 3152TIP3   OH230870   2.750   1.010   0.450 -0.2056 -1.1186  0.0556
 3152TIP3    H130871   2.713   1.088   0.409  0.1480 -1.9474 -1.9317
 3152TIP3    H230872   2.675   0.950   0.460 -0.9131  0.2398  3.6175
 3153TIP3   OH230873   0.279   0.971  16.102 -0.2717  0.2541  0.0356
 3153TIP3    H130874   0.227   1.002  16.176  1.8524  0.3726  1.5204
 3153TIP3    H230875   0.277   0.876  16.109  1.5705  0.3004  1.4444
 3154TIP3   OH230876   1.077   5.933  13.720  0.6189  0.5822  0.0463
 3154TIP3    H130877   0.998   5.953  13.670  1.3858  1.3798 -0.8641
 3154TIP3    H230878   1.045   5.901  13.804 -0.7364 -1.7263 -1.2694
 3155TIP3   OH230879   1.662   4.379  16.265 -0.4843  0.3615  0.6319
 3155TIP3    H130880   1.571   4.354  16.253 -0.0010 -1.4683  0.6954
 3155TIP3    H230881   1.676   4.376  16.360 -0.7809  2.1960  0.7466
 3156TIP3   OH230882   5.391   1.275   3.592 -0.3009  0.4508 -0.4228
 3156TIP3    H130883   5.318   1.240   3.644  1.5681 -1.5773  0.9135
 3156TIP3    H230884   5.426   1.347   3.645 -0.2473  0.3012 -0.2558
 3157TIP3   OH230885   1.268   5.774  12.794 -0.2440  0.2227  0.3162
 3157TIP3    H130886   1.174   5.756  12.789  0.1240 -1.6582 -0.3949
 3157TIP3    H230887   1.278   5.831  12.870 -2.1477  1.7635 -0.5430
 3158TIP3   OH230888   4.165   0.750   4.889 -0.0645 -0.2771  0.1353
 3158TIP3    H130889   4.122   0.691   4.950 -2.4326  1.6965  0.4433
 3158TIP3    H230890   4.185   0.696   4.812  0.2806 -2.0805  1.4711
 3159TIP3   OH230891   0.874   3.658  15.381 -0.0489 -0.7323 -0.0562
 3159TIP3    H130892   0.846   3.634  15.293  0.8038 -0.7868 -0.3152
 3159TIP3    H230893   0.942   3.594  15.403 -0.2460 -0.7068  0.6264
 3160TIP3   OH230894   1.839   0.803   3.911 -0.4952 -0.2894  0.0436
 3160TIP3    H130895   1.866   0.732   3.853  1.4729  1.6106 -1.4700
 3160TIP3    H230896   1.753   0.830   3.877 -1.9509 -2.8289  1.5414
 3161TIP3   OH230897   5.966   1.106  10.856  0.2459 -0.2710  0.6199
 3161TIP3    H130898   6.032   1.162  10.815  1.3545 -3.0549 -1.5352
 3161TIP3    H230899   5.887   1.121  10.805  0.1981  0.2518  0.8431
 3162TIP3   OH230900   3.142   1.598   3.137 -0.0777 -0.3665  0.0315
 3162TIP3    H130901   3.235   1.599   3.162  0.0174  2.2910 -0.2995
 3162TIP3    H230902   3.097   1.567   3.216  0.7130  2.6623  1.7394
 3163TIP3   OH230903   5.724   2.978  13.940 -0.4819 -0.2176 -0.5572
 3163TIP3    H130904   5.710   2.888  13.913  0.0224 -0.4172 -0.1673
 3163TIP3    H230905   5.757   3.022  13.862  0.2693 -0.6211 -0.4783
 3164TIP3   OH230906   2.634   5.152   3.385 -0.1778  0.3943  0.6098
 3164TIP3    H130907   2.693   5.144   3.310  1.5262 -0.9448  2.0777
 3164TIP3    H230908   2.619   5.247   3.393  1.3498  0.7067 -0.0920
 3165TIP3   OH230909   1.260   0.955   3.872  0.5244 -0.3611  0.5182
 3165TIP3    H130910   1.255   0.865   3.841 -2.3511 -0.4537  1.1147
 3165TIP3    H230911   1.314   1.000   3.808 -1.7198 -1.5075 -2.2733
 3166TIP3   OH230912   3.673   0.050  11.172 -0.1292  0.4521 -0.1432
 3166TIP3    H130913   3.612   0.122  11.158 -0.1924  0.6578  1.0914
 3166TIP3    H230914   3.618  -0.029  11.170 -0.5912  0.7029  1.8517
 3167TIP3   OH230915   4.587   1.231  12.625  0.5910 -0.2648 -0.1872
 3167TIP3    H130916   4.681   1.222  12.609  0.2948  1.6660 -3.4526
 3167TIP3    H230917   4.549   1.150  12.591  0.6593  1.0218 -3.5541
 3168TIP3   OH230918   5.317   1.501  11.625 -0.6373  0.0220  0.7770
 3168TIP3    H130919   5.334   1.555  11.702 -1.3366  3.7104 -1.5400
 3168TIP3    H230920   5.402   1.461  11.606  0.5800  2.3207  1.1083
 3169TIP3   OH230921   4.163   5.496  14.150 -0.1918  0.2066  0.0134
 3169TIP3    H130922   4.158   5.573  14.094 -0.3610  0.5911  0.5585
 3169TIP3    H230923   4.225   5.438  14.105  1.1470  1.3103  0.3774
 3170TIP3   OH230924   6.159   0.418  14.646 -0.3036 -0.1784 -0.1575
 3170TIP3    H130925   6.246   0.457  14.637  0.1013 -1.0083  0.1581
 3170TIP3    H230926   6.173   0.324  14.638 -1.2660 -0.2833 -0.8068
 3171TIP3   OH230927   4.130   4.485   2.713  0.2386  0.6613 -0.2236
 3171TIP3    H130928   4.158   4.433   2.637 -2.4349 -0.3881 -0.5428
 3171TIP3    H230929   4.149   4.430   2.788 -0.3670  0.2195 -0.3919
 3172TIP3   OH230930   3.433   0.257   4.890 -0.6661 -0.2677  0.0250
 3172TIP3    H130931   3.343   0.266   4.859 -0.6144 -0.6382 -0.2390
 3172TIP3    H230932   3.486   0.257   4.810 -0.4833 -0.6396  0.1450
 3173TIP3   OH230933   4.809   0.160  11.220  0.2471 -0.3745  0.5193
 3173TIP3    H130934   4.864   0.131  11.293  2.4059  0.3849 -0.7648
 3173TIP3    H230935   4.859   0.139  11.141 -1.3311  0.2887 -0.7124
 3174TIP3   OH230936   0.861   3.768  16.331  0.6498 -0.6021  0.6630
 3174TIP3    H130937   0.871   3.684  16.374  1.0381 -0.8148  0.1617
 3174TIP3    H230938   0.902   3.756  16.245  0.2708 -0.0554  0.4026
 3175TIP3   OH230939   0.113   1.282  14.167  0.1574  0.3554  0.6598
 3175TIP3    H130940   0.028   1.257  14.203 -0.2858  0.9680  0.0752
 3175TIP3    H230941   0.148   1.201  14.128 -0.8501  0.4191 -0.4256
 3176TIP3   OH230942   0.209   0.192   0.581 -0.2758  0.2608  0.0038
 3176TIP3    H130943   0.185   0.227   0.667 -0.9614 -0.6236  0.1789
 3176TIP3    H230944   0.142   0.227   0.521  0.2445  0.9374 -0.1867
 3177TIP3   OH230945   3.744   2.024  14.895 -0.2286 -0.3476  0.3747
 3177TIP3    H130946   3.744   2.002  14.988 -1.7888  1.9575  0.9618
 3177TIP3    H230947   3.652   2.027  14.870  0.0783  1.2957 -0.6754
 3178TIP3   OH230948   5.963   3.700   3.612 -0.1353 -0.2008  0.1617
 3178TIP3    H130949   5.957   3.605   3.602  0.8943 -0.2949  0.3948
 3178TIP3    H230950   6.017   3.729   3.538 -1.3411  0.3314 -0.5152
 3179TIP3   OH230951   6.592   1.746  12.888  0.1581 -0.2116 -0.2664
 3179TIP3    H130952   6.675   1.757  12.934  0.0935 -3.1932  0.6966
 3179TIP3    H230953   6.525   1.767  12.953  0.1347  0.1281 -0.4012
 3180TIP3   OH230954   1.665   6.672  11.706  0.4298 -0.2210  0.6765
 3180TIP3    H130955   1.683   6.765  11.719 -0.8113 -0.0582  1.3245
 3180TIP3    H230956   1.641   6.665  11.614  0.1432  0.1817  0.7148
 3181TIP3   OH230957   0.189   1.327   2.191  0.5071 -0.2751 -0.0636
 3181TIP3    H130958   0.220   1.255   2.246 -0.9501 -0.9714 -0.1147
 3181TIP3    H230959   0.237   1.318   2.109  1.5413 -0.1821  0.5221
 3182TIP3   OH230960   5.160   5.913   2.997 -0.6229 -0.0278  0.1022
 3182TIP3    H130961   5.189   5.852   3.064 -1.0841  0.0656  0.3843
 3182TIP3    H230962   5.134   5.991   3.045 -1.9189 -0.3279 -0.1084
 3183TIP3   OH230963   4.119   3.272   1.948 -0.0199 -0.5069  0.2764
 3183TIP3    H130964   4.090   3.350   1.995 -1.4523 -0.5229 -0.5584
 3183TIP3    H230965   4.088   3.199   2.002  3.4352 -0.5645  2.3568
 3184TIP3   OH230966   1.740   1.753   4.668  0.0914 -0.0862 -0.4524
 3184TIP3    H130967   1.651   1.781   4.645 -0.2238 -0.1667  0.6288
 3184TIP3    H230968   1.795   1.828   4.647 -0.4865  0.6636  0.5899
 3185TIP3   OH230969   6.533   6.541  16.007  0.0208 -0.1083 -0.4507
 3185TIP3    H130970   6.554   6.550  15.914  0.8593  0.9560 -0.1757
 3185TIP3    H230971   6.482   6.620  16.028 -0.1611 -0.3404 -0.0048
 3186TIP3   OH230972   0.250   5.994   1.692  0.2464  0.4272  0.2806
 3186TIP3    H130973   0.245   5.902   1.717 -0.3478  0.8960  1.9386
 3186TIP3    H230974   0.319   5.997   1.625 -0.9826 -1.4773 -1.1019
 3187TIP3   OH230975   2.430   3.543   1.239 -0.1847 -0.4682  0.1963
 3187TIP3    H130976   2.428   3.636   1.216  0.8830 -0.6697 -0.7491
 3187TIP3    H230977   2.343   3.525   1.275 -1.5020  0.1075 -2.6383
 3188TIP3   OH230978   6.703   5.419   6.132  0.2167  0.3669 -0.1747
 3188TIP3    H130979   6.741   5.378   6.054 -0.6470 -2.5703  0.8770
 3188TIP3    H230980   6.609   5.422   6.115  0.1896  1.2459  0.0902
 3189TIP3   OH230981   1.341   2.294  10.348 -0.3295  0.1656 -0.0525
 3189TIP3    H130982   1.381   2.380  10.342 -0.8172  0.5029  1.3609
 3189TIP3    H230983   1.401   2.236  10.301 -0.3744  1.3918 -1.6506
 3190TIP3   OH230984   4.640   5.644   1.077  0.1221  0.6011  0.0040
 3190TIP3    H130985   4.580   5.579   1.040  0.4937 -0.3585  1.0382
 3190TIP3    H230986   4.638   5.717   1.016  1.9781 -1.5853 -2.7856
 3191TIP3   OH230987   0.780   2.447   0.870  0.1834  0.1040 -0.1991
 3191TIP3    H130988   0.848   2.492   0.920  1.2035 -1.1219 -0.4549
 3191TIP3    H230989   0.709   2.511   0.864  0.8798  1.0206  0.9886
 3192TIP3   OH230990   1.842   3.346   4.390  0.7570  0.2713 -0.3954
 3192TIP3    H130991   1.833   3.314   4.480  1.0886 -0.6485 -0.6911
 3192TIP3    H230992   1.776   3.299   4.340  1.4459 -0.1787 -0.8899
 3193TIP3   OH230993   2.110   6.389   3.764  0.1413  0.1790 -0.5050
 3193TIP3    H130994   2.071   6.339   3.692 -0.9745  1.3273 -0.7227
 3193TIP3    H230995   2.116   6.327   3.836 -1.9134 -0.1152 -0.5498
 3194TIP3   OH230996   6.705   6.281   4.443 -0.0422 -0.1354 -0.3848
 3194TIP3    H130997   6.702   6.365   4.397  0.8916 -0.0996 -0.4001
 3194TIP3    H230998   6.791   6.281   4.486 -1.2705  0.2284  2.1546
 3195TIP3   OH230999   0.254   2.992   0.733 -0.4006  0.5008  0.3812
 3195TIP3    H131000   0.242   3.084   0.756 -2.0056  0.2489  0.6202
 3195TIP3    H231001   0.301   2.994   0.650  1.6200  1.4901  1.5115
 3196TIP3   OH231002   6.218   3.970   2.805  0.0382  0.2776 -0.4936
 3196TIP3    H131003   6.151   3.947   2.869  0.2196 -1.3577 -0.8645
 3196TIP3    H231004   6.198   3.916   2.728  1.0380  0.6892 -1.0610
 3197TIP3   OH231005   6.726   3.397  13.935  0.3370 -0.2364 -0.1912
 3197TIP3    H131006   6.637   3.397  13.900  0.3370  0.1028 -0.1868
 3197TIP3    H231007   6.761   3.311  13.910 -0.8811 -1.4457  2.1022
 3198TIP3   OH231008   6.235   1.316  12.241 -0.6543  0.0564  0.1236
 3198TIP3    H131009   6.221   1.391  12.299 -1.4817  0.1054 -0.1346
 3198TIP3    H231010   6.305   1.344  12.182 -0.2239  0.2289  0.7040
 3199TIP3   OH231011   0.750   4.967   3.533  0.7245 -0.2453  0.4481
 3199TIP3    H131012   0.759   4.872   3.525  2.5408 -0.0445 -0.0860
 3199TIP3    H231013   0.838   5.001   3.516 -0.2546  1.6293 -1.1107
 3200TIP3   OH231014   0.503   1.178   5.642 -0.1211 -0.3895 -0.5049
 3200TIP3    H131015   0.473   1.225   5.719 -2.3356 -0.5255 -1.2530
 3200TIP3    H231016   0.571   1.234   5.605 -1.0124  1.0399 -0.0198
 3201TIP3   OH231017   2.015   0.983   0.474 -0.2138 -0.1017 -0.1473
 3201TIP3    H131018   1.954   0.996   0.400  0.5647  1.6287 -0.5198
 3201TIP3    H231019   1.969   0.923   0.532 -1.8179  0.2934 -0.9573
 3202TIP3   OH231020   3.187   4.473   1.037  0.0516  0.5965  0.3973
 3202TIP3    H131021   3.274   4.448   1.005 -0.4363  0.9388 -1.1855
 3202TIP3    H231022   3.127   4.447   0.968 -0.8221  3.1758  0.1478
 3203TIP3   OH231023   5.751   4.294  12.582  0.4281  0.1511  0.2039
 3203TIP3    H131024   5.802   4.213  12.580  2.2051  1.2445  0.5914
 3203TIP3    H231025   5.712   4.300  12.494  1.9854 -0.0672 -0.5154
 3204TIP3   OH231026   2.188   1.494   5.862  0.1019  0.5131 -0.0010
 3204TIP3    H131027   2.162   1.586   5.853  1.6436  0.9209 -0.4561
 3204TIP3    H231028   2.283   1.495   5.852  0.2593 -0.9913  1.2525
 3205TIP3   OH231029   4.935   6.309  11.667 -0.2041 -0.2934 -0.4075
 3205TIP3    H131030   4.850   6.265  11.658 -0.4778  0.4168 -1.3294
 3205TIP3    H231031   4.913   6.402  11.676  0.5717  0.2200 -3.3447
 3206TIP3   OH231032   5.772   5.869   4.759  0.4455 -0.1446  0.5828
 3206TIP3    H131033   5.743   5.911   4.840  0.5877 -1.2377  1.2068
 3206TIP3    H231034   5.859   5.834   4.780  0.9904  0.6018 -0.4020
 3207TIP3   OH231035   2.610   4.475  16.859  0.2718 -0.0114 -0.2301
 3207TIP3    H131036   2.702   4.481  16.888  0.2371  0.7851 -0.2863
 3207TIP3    H231037   2.566   4.433  16.933  0.4945  0.5253  0.2138
 3208TIP3   OH231038   1.671   5.774   0.298 -0.2700 -0.2552  0.8211
 3208TIP3    H131039   1.610   5.701   0.305 -1.7799  0.9597  0.6611
 3208TIP3    H231040   1.648   5.817   0.216 -0.8979  1.6993  1.9857
 3209TIP3   OH231041   5.793   4.371   2.186  0.6592  0.2094  0.5166
 3209TIP3    H131042   5.885   4.396   2.176  0.2836  1.1616 -0.6268
 3209TIP3    H231043   5.787   4.286   2.142  0.7829  0.6305 -0.3368
 3210TIP3   OH231044   6.152   3.586  11.406  0.0882  0.2195  0.3404
 3210TIP3    H131045   6.148   3.678  11.382 -0.0892  0.4400  1.2354
 3210TIP3    H231046   6.090   3.576  11.478 -0.2975 -0.7070 -0.1027
 3211TIP3   OH231047   1.065   1.258  16.832 -0.0220  0.2859 -0.8100
 3211TIP3    H131048   1.096   1.339  16.872  0.4660  0.2577 -1.1179
 3211TIP3    H231049   1.129   1.192  16.858 -1.0089 -0.2309  0.3379
 3212TIP3   OH231050   6.373   4.306   0.513  0.2567 -0.1424  0.9597
 3212TIP3    H131051   6.338   4.387   0.549 -0.6402 -0.0183 -0.1637
 3212TIP3    H231052   6.396   4.254   0.590  0.5667  1.0580  1.6824
 3213TIP3   OH231053   0.244   5.891   1.163 -0.3707  0.0978  0.3034
 3213TIP3    H131054   0.220   5.969   1.213  0.1266  0.5972 -0.2239
 3213TIP3    H231055   0.161   5.844   1.150 -1.0606  1.7133 -1.3554
 3214TIP3   OH231056   3.638   6.786   0.555  0.1961 -0.0033 -0.0130
 3214TIP3    H131057   3.578   6.789   0.481 -1.1801  0.7693  1.1119
 3214TIP3    H231058   3.643   6.693   0.578 -1.3637  0.0248  0.5102
 3215TIP3   OH231059   1.827   5.655   6.874 -0.0402  0.0928  0.6930
 3215TIP3    H131060   1.791   5.655   6.785  0.0840  0.9105  0.6408
 3215TIP3    H231061   1.870   5.740   6.883  2.0084 -0.9027  0.7148
 3216TIP3   OH231062   4.769   3.262  16.875  0.0396 -0.4249 -0.7535
 3216TIP3    H131063   4.752   3.247  16.782  0.4699 -0.6537 -0.7989
 3216TIP3    H231064   4.860   3.234  16.888 -0.6897 -2.5276  0.1837
 3217TIP3   OH231065   5.416   5.432   4.683 -0.2471  0.0341  0.4850
 3217TIP3    H131066   5.355   5.492   4.641  1.6829  1.6750 -0.0364
 3217TIP3    H231067   5.503   5.463   4.657  0.8204 -2.8754  0.3437
 3218TIP3   OH231068   0.471   2.079   2.052 -0.5209  0.3130  0.1329
 3218TIP3    H131069   0.487   2.059   1.959 -0.7877 -2.1527  0.5664
 3218TIP3    H231070   0.376   2.092   2.058 -0.5409  0.1845  0.1028
 3219TIP3   OH231071   3.405   0.136  14.724 -0.3405 -0.2822 -0.1902
 3219TIP3    H131072   3.346   0.085  14.669 -0.4049  1.0313 -1.3696
 3219TIP3    H231073   3.493   0.110  14.696 -0.3371 -1.9672  1.3130
 3220TIP3   OH231074   1.308   3.338  12.657 -0.0395  0.3194 -0.3187
 3220TIP3    H131075   1.335   3.424  12.623 -0.0771 -0.1983 -1.6894
 3220TIP3    H231076   1.214   3.335  12.643  0.0647 -0.2277 -0.9399
 3221TIP3   OH231077   0.911   1.010  12.744  0.0291  0.7154  0.0644
 3221TIP3    H131078   1.001   0.982  12.723  0.2904  2.0800 -0.6576
 3221TIP3    H231079   0.882   0.947  12.810  0.3225 -1.7792 -2.0514
 3222TIP3   OH231080   1.351   1.699   1.985  0.0275  0.1847  0.1069
 3222TIP3    H131081   1.260   1.719   2.007 -0.6084 -0.9694 -1.3812
 3222TIP3    H231082   1.398   1.708   2.067 -1.6969 -0.7208  1.2205
 3223TIP3   OH231083   3.365   2.224  11.413  0.0125  0.2632 -0.3930
 3223TIP3    H131084   3.348   2.181  11.496 -2.2843  1.6145 -0.1336
 3223TIP3    H231085   3.281   2.261  11.387  0.9792  0.9315 -2.7020
 3224TIP3   OH231086   3.408   0.573   0.574  0.0465 -0.0188  0.0150
 3224TIP3    H131087   3.482   0.595   0.630  0.3813 -0.0683 -0.4050
 3224TIP3    H231088   3.348   0.647   0.583  0.7659  0.6552 -0.7061
 3225TIP3   OH231089   1.765   4.119  12.750  0.0270  0.1505  0.0328
 3225TIP3    H131090   1.828   4.093  12.818 -0.3102 -0.3229  0.1652
 3225TIP3    H231091   1.735   4.206  12.777 -0.8781 -0.4716  1.0393
 3226TIP3   OH231092   2.677   5.308   4.504  0.4501 -0.0014 -0.8203
 3226TIP3    H131093   2.586   5.313   4.535  1.1393 -1.1879  1.5467
 3226TIP3    H231094   2.730   5.333   4.580  2.1804 -2.0172 -1.3023
 3227TIP3   OH231095   4.971   4.669  14.321  0.0389  0.3231 -0.4582
 3227TIP3    H131096   5.009   4.710  14.399 -0.6832 -1.3687  0.8002
 3227TIP3    H231097   5.047   4.638  14.271  0.4147 -2.1876  1.5741
 3228TIP3   OH231098   2.185   0.043  13.944 -0.1087 -0.6130 -0.3863
 3228TIP3    H131099   2.163   0.013  13.856 -1.1873  1.2259 -0.7724
 3228TIP3    H231100   2.153   0.133  13.947  0.4896 -0.4481  1.6829
 3229TIP3   OH231101   0.295   6.426   3.678  0.0430 -0.5525 -0.4646
 3229TIP3    H131102   0.323   6.355   3.736 -0.9567  0.8036  1.7195
 3229TIP3    H231103   0.328   6.506   3.720  0.3955  0.3832 -2.4349
 3230TIP3   OH231104   1.528   5.213  12.042 -0.5230 -0.4457  0.2808
 3230TIP3    H131105   1.574   5.217  11.959 -0.1106  2.1141  0.5931
 3230TIP3    H231106   1.441   5.248  12.023 -0.4787  0.0012  0.8857
 3231TIP3   OH231107   3.667   0.008   3.247 -0.4744 -0.3786 -0.4091
 3231TIP3    H131108   3.617   0.087   3.269 -0.2743 -0.4467  0.2958
 3231TIP3    H231109   3.675   0.010   3.151  1.2234  1.4897 -0.2613
 3232TIP3   OH231110   1.324   1.876   5.152 -0.4449 -0.0997  0.5442
 3232TIP3    H131111   1.293   1.785   5.155 -1.2470  0.2042  1.9210
 3232TIP3    H231112   1.274   1.915   5.080 -0.3623 -0.6428  0.1816
 3233TIP3   OH231113   4.167   2.779  11.486  0.0721  0.1933  0.1539
 3233TIP3    H131114   4.084   2.824  11.504 -0.0477  0.6253 -1.4149
 3233TIP3    H231115   4.142   2.688  11.469  0.0589  0.0523  0.9021
 3234TIP3   OH231116   6.091   1.507   1.812  0.3767 -0.0428  0.0811
 3234TIP3    H131117   6.071   1.426   1.859 -1.7682 -0.2576 -1.1657
 3234TIP3    H231118   6.123   1.478   1.726 -1.0569  0.4108 -0.6242
 3235TIP3   OH231119   6.276   6.298  15.147 -0.2434 -0.4306  0.0859
 3235TIP3    H131120   6.258   6.380  15.193 -1.6849 -1.6073  1.6741
 3235TIP3    H231121   6.193   6.274  15.108  0.2677 -0.9638 -0.6830
 3236TIP3   OH231122   0.693   2.199  12.998 -0.0722 -0.3755 -0.5603
 3236TIP3    H131123   0.699   2.161  13.086 -2.1983  0.5405  0.0099
 3236TIP3    H231124   0.603   2.181  12.971  0.4377 -0.2260 -2.3657
 3237TIP3   OH231125   0.662   4.087  14.764  0.3356  0.0244  0.2349
 3237TIP3    H131126   0.590   4.046  14.715  1.1041 -1.2938  0.1864
 3237TIP3    H231127   0.633   4.177  14.778 -1.4647 -0.5704  0.4808
 3238TIP3   OH231128   3.797   2.222  12.826  0.5175 -0.4846 -0.1637
 3238TIP3    H131129   3.796   2.134  12.788  1.7004 -1.0956  1.1954
 3238TIP3    H231130   3.705   2.240  12.848  0.2603 -1.3241 -0.5315
 3239TIP3   OH231131   2.028   5.702  15.661 -0.0545 -0.3503  0.2678
 3239TIP3    H131132   2.025   5.707  15.565 -0.4072  1.1459  0.3430
 3239TIP3    H231133   2.116   5.732  15.683 -0.0482 -0.4922  0.4332
 3240TIP3   OH231134   4.396   6.310   2.054 -0.9537 -0.3067 -0.7390
 3240TIP3    H131135   4.305   6.341   2.055 -0.2458  1.8139  0.4702
 3240TIP3    H231136   4.390   6.220   2.086 -2.5182  0.1494  0.3356
 3241TIP3   OH231137   0.815   6.465  12.699 -0.3809 -0.4886 -0.0518
 3241TIP3    H131138   0.749   6.521  12.741 -0.3901 -0.1569 -0.4980
 3241TIP3    H231139   0.765   6.406  12.643 -0.3177 -0.4248 -0.1744
 3242TIP3   OH231140   5.309   3.439  15.754 -0.1860  0.1283  0.0828
 3242TIP3    H131141   5.229   3.441  15.807  1.0421 -0.8592  1.9994
 3242TIP3    H231142   5.359   3.515  15.783 -0.0685  0.3131 -0.5876
 3243TIP3   OH231143   5.232   3.764  13.578 -0.2388 -0.2019 -0.3360
 3243TIP3    H131144   5.321   3.771  13.612 -0.4684  1.8989 -0.0636
 3243TIP3    H231145   5.177   3.762  13.657 -0.5748  1.3715 -0.5082
 3244TIP3   OH231146   2.959   2.738   1.808  0.0792 -0.1330 -0.4591
 3244TIP3    H131147   2.956   2.710   1.716  1.1300 -1.1653 -0.2023
 3244TIP3    H231148   3.024   2.808   1.809 -0.5476  0.4565 -0.6391
 3245TIP3   OH231149   6.521   6.236   5.872  0.1329 -0.1113 -0.7503
 3245TIP3    H131150   6.563   6.281   5.945 -1.2338  0.5962 -0.3693
 3245TIP3    H231151   6.440   6.201   5.909  0.7570 -2.1546 -1.2627
 3246TIP3   OH231152   0.333   1.051  13.176 -0.4662 -0.3159  0.2906
 3246TIP3    H131153   0.307   1.072  13.086  1.0720 -1.4697 -0.4449
 3246TIP3    H231154   0.267   0.990  13.207 -1.2097  0.3765  0.0811
 3247TIP3   OH231155   6.401   3.612   5.133  0.1981  0.6733 -0.1697
 3247TIP3    H131156   6.420   3.698   5.095 -0.1321 -0.1852 -2.3744
 3247TIP3    H231157   6.311   3.619   5.166  0.6265  1.5521  0.8277
 3248TIP3   OH231158   1.183   2.163   3.099 -0.3384  0.3422  0.1903
 3248TIP3    H131159   1.111   2.106   3.124 -0.2985 -0.0014 -0.4701
 3248TIP3    H231160   1.144   2.224   3.036  0.3870 -1.0779 -1.6750
 3249TIP3   OH231161   1.917   5.630  11.519 -0.2185 -0.0967  0.3714
 3249TIP3    H131162   2.008   5.644  11.546  0.6489 -1.2486 -1.7825
 3249TIP3    H231163   1.908   5.534  11.515 -0.5802  0.0115 -2.3032
 3250TIP3   OH231164   6.304   0.094   1.985  0.4702  0.3586  0.6082
 3250TIP3    H131165   6.258   0.090   2.069  1.1215 -0.2494  0.9394
 3250TIP3    H231166   6.282   0.180   1.950 -1.8909 -0.3952  0.2066
 3251TIP3   OH231167   1.735   5.190  14.274 -0.1220  0.2738  0.0793
 3251TIP3    H131168   1.810   5.239  14.308  1.1081 -2.4809  1.5233
 3251TIP3    H231169   1.760   5.098  14.285 -3.1107 -0.6908 -0.8102
 3252TIP3   OH231170   6.393   0.242  13.784 -1.0917  0.2272  0.2626
 3252TIP3    H131171   6.331   0.239  13.857 -1.9479  1.6339 -0.3833
 3252TIP3    H231172   6.471   0.284  13.820 -0.9157 -0.5224  0.7778
 3253TIP3   OH231173   0.869   6.158  16.517 -0.2936 -0.3473  0.2239
 3253TIP3    H131174   0.936   6.226  16.521  0.8183 -1.4169  0.1333
 3253TIP3    H231175   0.907   6.091  16.461 -1.9899 -0.3877 -0.8991
 3254TIP3   OH231176   4.980   2.496   3.668 -0.7492 -0.1304 -0.0160
 3254TIP3    H131177   5.058   2.521   3.620 -0.8897 -0.4823 -0.4262
 3254TIP3    H231178   4.922   2.457   3.603 -1.1116 -0.2210  0.3537
 3255TIP3   OH231179   3.933   4.016   4.559  0.2329 -0.0950 -0.0307
 3255TIP3    H131180   3.911   4.108   4.572 -0.3210 -0.3328  0.8274
 3255TIP3    H231181   4.029   4.013   4.562  0.2808  0.5363 -0.7309
 3256TIP3   OH231182   3.406   0.793  13.225 -0.3191  0.2771  0.6249
 3256TIP3    H131183   3.419   0.887  13.210 -0.1878  0.0121 -1.1073
 3256TIP3    H231184   3.319   0.775  13.189 -1.0853  0.0486  2.5440
 3257TIP3   OH231185   3.524   2.115  15.419 -0.0918  0.4138  0.1147
 3257TIP3    H131186   3.519   2.183  15.351 -0.6810 -0.1207 -0.3827
 3257TIP3    H231187   3.505   2.161  15.501 -3.0955  0.3989 -0.5124
 3258TIP3   OH231188   0.887   3.402   1.780 -0.1317 -0.7552  0.0041
 3258TIP3    H131189   0.863   3.339   1.712 -0.0498  0.5937 -1.3023
 3258TIP3    H231190   0.857   3.486   1.746  3.3448  0.5156 -0.1383
 3259TIP3   OH231191   4.069   4.712  15.059  0.2882 -0.5091 -0.3154
 3259TIP3    H131192   4.016   4.755  14.993  2.3675  2.6865 -0.0172
 3259TIP3    H231193   4.158   4.711  15.022  0.7384 -2.2907  0.7559
 3260TIP3   OH231194   0.082   1.851   0.136  0.3925  0.3701  0.2628
 3260TIP3    H131195   0.048   1.862   0.047  0.1235  0.8804  0.4326
 3260TIP3    H231196   0.035   1.915   0.188  0.1863 -0.2746  0.8765
 3261TIP3   OH231197   5.245   2.151  11.044  0.1654 -0.2597  0.3272
 3261TIP3    H131198   5.314   2.143  10.978 -1.1925 -0.9121 -1.0323
 3261TIP3    H231199   5.292   2.156  11.128  1.8911  0.3510 -0.6593
 3262TIP3   OH231200   3.984   4.520  11.891  0.2540 -0.0340  0.3770
 3262TIP3    H131201   3.913   4.537  11.830  1.5611 -0.3450 -1.2620
 3262TIP3    H231202   4.016   4.607  11.916  0.6518  0.0747 -0.5022
 3263TIP3   OH231203   0.899   2.373  12.932  0.5725 -0.0713  0.3693
 3263TIP3    H131204   0.889   2.467  12.949  0.6363  0.0284 -0.1271
 3263TIP3    H231205   0.812   2.337  12.947  0.3135  0.2242 -0.3964
 3264TIP3   OH231206   1.114   4.188  16.310  0.2260 -0.1478 -0.3668
 3264TIP3    H131207   1.099   4.280  16.286  0.8323 -0.0087 -0.2288
 3264TIP3    H231208   1.028   4.148  16.307  0.0872  0.2091 -1.3576
 3265TIP3   OH231209   5.774   2.585  11.514 -0.5914 -0.1964  0.1129
 3265TIP3    H131210   5.733   2.541  11.440 -0.3146  1.2667 -0.9473
 3265TIP3    H231211   5.700   2.612  11.570 -0.7541 -1.9731  0.7721
 3266TIP3   OH231212   1.260   0.131  13.746  0.6614 -0.1986 -0.1296
 3266TIP3    H131213   1.271   0.151  13.839  1.6193 -0.7286 -0.1306
 3266TIP3    H231214   1.273   0.037  13.740 -0.2273 -0.2927 -0.6811
 3267TIP3   OH231215   3.859   4.950  11.994  0.6364  0.1073 -0.3676
 3267TIP3    H131216   3.771   4.932  12.026  0.8174  0.2758  0.2364
 3267TIP3    H231217   3.882   5.034  12.033  0.1896  1.1835 -2.3596
 3268TIP3   OH231218   3.898   6.285  15.181 -0.2785 -0.2512 -0.7069
 3268TIP3    H131219   3.978   6.287  15.129  0.0772 -1.8151 -0.2767
 3268TIP3    H231220   3.909   6.208  15.238 -1.6324  0.1177  0.0826
 3269TIP3   OH231221   1.911   1.028   2.263 -0.1817 -0.5178  0.3429
 3269TIP3    H131222   1.877   1.030   2.353  0.9258 -1.7002  0.8084
 3269TIP3    H231223   1.864   1.098   2.218 -0.1605  0.6410  2.0615
 3270TIP3   OH231224   3.110   0.743  12.505 -0.1903  0.1373 -0.0350
 3270TIP3    H131225   3.135   0.835  12.514  1.1331 -0.1345 -0.8902
 3270TIP3    H231226   3.124   0.705  12.591  1.7741  0.1281 -0.3477
 3271TIP3   OH231227   5.406   0.959  15.865 -0.6881  0.2868 -0.4244
 3271TIP3    H131228   5.455   0.933  15.943  1.1015  1.6775 -1.0422
 3271TIP3    H231229   5.404   0.881  15.810  0.3119  0.0307 -0.1047
 3272TIP3   OH231230   6.653   1.506  14.204 -0.1511  0.6536  0.1937
 3272TIP3    H131231   6.689   1.583  14.159 -0.4570 -0.6978 -2.4741
 3272TIP3    H231232   6.717   1.437  14.187 -0.9245 -0.2187  0.8001
 3273TIP3   OH231233   6.389   0.850  12.151  0.5807 -0.3488 -0.1441
 3273TIP3    H131234   6.446   0.885  12.220  0.6317  0.2948 -0.5116
 3273TIP3    H231235   6.329   0.922  12.131 -2.3824 -1.9604  2.3788
 3274TIP3   OH231236   4.660   0.017  15.924  0.0105  0.0128 -0.4033
 3274TIP3    H131237   4.657  -0.067  15.878 -2.4817 -0.5344  0.6730
 3274TIP3    H231238   4.571   0.053  15.914  0.2335  1.1931  1.5365
 3275TIP3   OH231239   2.745   1.148  13.021  0.3997 -0.5370 -0.6506
 3275TIP3    H131240   2.721   1.056  13.011  2.3712 -0.9630 -1.7628
 3275TIP3    H231241   2.789   1.171  12.939  2.1969  0.6654  0.5927
 3276TIP3   OH231242   4.082   0.594   2.890 -0.0110  0.3960  0.0240
 3276TIP3    H131243   4.152   0.561   2.947 -0.7577  0.4643  0.9932
 3276TIP3    H231244   4.001   0.564   2.933 -0.5324 -1.4466 -2.1616
 3277TIP3   OH231245   1.729   4.701   1.532 -0.3580 -0.1989  0.3206
 3277TIP3    H131246   1.649   4.750   1.516 -0.6522 -0.3424  1.3356
 3277TIP3    H231247   1.799   4.757   1.498 -0.8099  0.3312  0.2715
 3278TIP3   OH231248   5.577   2.019  16.619  0.2000  0.3679 -0.1093
 3278TIP3    H131249   5.508   1.957  16.644  0.7209 -0.7205 -1.2699
 3278TIP3    H231250   5.619   2.042  16.701 -1.3074  0.7631  0.5769
 3279TIP3   OH231251   3.570   6.421  16.604 -0.3733  0.0487 -0.0546
 3279TIP3    H131252   3.477   6.398  16.598  0.2316 -2.5272 -0.1983
 3279TIP3    H231253   3.576   6.475  16.683 -2.1451  1.0956 -0.6074
 3280TIP3   OH231254   6.630   2.519   1.005 -0.2016  0.3623  0.6614
 3280TIP3    H131255   6.707   2.463   0.997 -1.2296 -1.2319  1.6602
 3280TIP3    H231256   6.651   2.577   1.079 -0.1575 -0.3983  1.2489
 3281TIP3   OH231257   4.978   6.079  10.761  0.7612  0.5373  0.0329
 3281TIP3    H131258   4.894   6.035  10.748  1.1876 -0.9058  1.9911
 3281TIP3    H231259   4.956   6.159  10.809  0.4425  0.5022 -0.0525
 3282TIP3   OH231260   1.834   3.011   0.743 -0.5511 -0.1258  0.1056
 3282TIP3    H131261   1.888   3.088   0.761  1.2684 -1.4844  0.5613
 3282TIP3    H231262   1.833   3.005   0.647  1.0512 -0.7287  0.1111
 3283TIP3   OH231263   5.642   4.598   4.378 -0.0084 -0.4518 -0.0660
 3283TIP3    H131264   5.663   4.520   4.429 -0.3067  0.1812  1.0534
 3283TIP3    H231265   5.565   4.574   4.327 -0.0742 -0.9107  0.2430
 3284TIP3   OH231266   5.440   2.878  14.890 -0.3896  0.6428  0.2617
 3284TIP3    H131267   5.358   2.902  14.847 -0.6769  1.2992  1.1650
 3284TIP3    H231268   5.505   2.879  14.820 -1.1391  0.2254 -0.4359
 3285TIP3   OH231269   6.465   3.783   6.378 -0.1410 -0.3602 -0.3232
 3285TIP3    H131270   6.466   3.864   6.328  0.2611 -1.7273 -2.6152
 3285TIP3    H231271   6.387   3.790   6.433 -1.2972  0.6565 -2.0551
 3286TIP3   OH231272   2.182   0.166  15.764 -0.4782  0.5624  0.0217
 3286TIP3    H131273   2.095   0.199  15.786  0.3616  1.8070  1.6091
 3286TIP3    H231274   2.179   0.074  15.791 -0.7708  1.0419  1.7115
 3287TIP3   OH231275   0.346   4.190   5.394 -0.1630  0.6559 -0.7012
 3287TIP3    H131276   0.399   4.155   5.466  0.5969 -0.7097 -1.8996
 3287TIP3    H231277   0.381   4.278   5.378  1.2891  0.0324 -1.0062
 3288TIP3   OH231278   1.160   0.410  15.515  0.2059 -0.5406 -0.1136
 3288TIP3    H131279   1.072   0.436  15.543  0.3680  1.8130 -1.6379
 3288TIP3    H231280   1.146   0.350  15.442 -0.1425 -0.6751  0.0652
 3289TIP3   OH231281   5.284   2.911   1.834 -0.4799 -0.1658 -0.5876
 3289TIP3    H131282   5.286   2.816   1.841 -1.9461 -0.2369 -0.8134
 3289TIP3    H231283   5.331   2.942   1.911  0.5961 -1.0798 -0.8674
 3290TIP3   OH231284   4.624   3.638   3.266  0.1923  0.1499  0.0076
 3290TIP3    H131285   4.619   3.580   3.341 -0.4017  1.0772  0.6987
 3290TIP3    H231286   4.545   3.692   3.272  0.3068  0.4557 -1.0899
 3291TIP3   OH231287   2.702   0.484  14.005  0.0503 -0.2712 -0.0414
 3291TIP3    H131288   2.615   0.445  13.999 -0.1351  0.2527 -0.8324
 3291TIP3    H231289   2.687   0.569  14.046 -0.0287  0.5108 -1.6776
 3292TIP3   OH231290   5.391   4.799  14.451 -0.2149  0.4879 -0.5033
 3292TIP3    H131291   5.371   4.877  14.400  0.8065  0.7252 -0.5525
 3292TIP3    H231292   5.466   4.760  14.407  0.2085  0.2852  0.3824
 3293TIP3   OH231293   1.489   2.424  13.673 -0.7426  0.8092  0.3246
 3293TIP3    H131294   1.581   2.448  13.688 -1.1261  2.0672  0.7916
 3293TIP3    H231295   1.478   2.430  13.578 -0.4146  0.9654  0.2929
 3294TIP3   OH231296   1.318   5.763   4.628  0.4455 -0.1850 -0.8089
 3294TIP3    H131297   1.385   5.699   4.648  2.2070  1.8020 -0.1826
 3294TIP3    H231298   1.366   5.844   4.608 -1.7664  1.7480  1.2885
 3295TIP3   OH231299   3.382   2.974  16.894  0.7671 -0.0957  0.0202
 3295TIP3    H131300   3.339   2.914  16.954 -0.9492  0.5253 -0.5633
 3295TIP3    H231301   3.447   2.920  16.848 -0.7935 -1.5163 -0.5469
 3296TIP3   OH231302   6.132   1.634  11.412 -0.0364 -0.1454 -0.5939
 3296TIP3    H131303   6.196   1.583  11.362  2.0733  1.5023  0.3498
 3296TIP3    H231304   6.089   1.688  11.346 -0.5830 -1.3445 -1.2536
 3297TIP3   OH231305   3.443   5.848  14.817  0.4084  0.7707  0.5226
 3297TIP3    H131306   3.396   5.860  14.735  0.0064  0.3089  0.6759
 3297TIP3    H231307   3.535   5.858  14.794  0.3819 -0.4960 -0.2166
 3298TIP3   OH231308   5.390   2.436   6.141 -0.0637 -0.5326  0.8587
 3298TIP3    H131309   5.481   2.415   6.163  0.5290  0.6137 -0.3729
 3298TIP3    H231310   5.392   2.447   6.046 -1.8856 -2.3441  0.5871
 3299TIP3   OH231311   0.297   0.879  14.178  0.0619  0.1815 -0.3341
 3299TIP3    H131312   0.241   0.805  14.156 -0.9779  0.6956  0.5378
 3299TIP3    H231313   0.312   0.871  14.272 -0.3725  1.2764 -0.1569
 3300TIP3   OH231314   1.911   3.836   3.111  0.0613 -0.3027  0.6426
 3300TIP3    H131315   1.995   3.822   3.068  0.3593 -0.2915  1.2192
 3300TIP3    H231316   1.865   3.897   3.054  0.8547  0.5123  0.8499
 3301TIP3   OH231317   6.508   3.467   1.753 -0.1659  0.2638 -0.6012
 3301TIP3    H131318   6.543   3.544   1.797 -1.1859  0.9886 -1.0422
 3301TIP3    H231319   6.566   3.396   1.780 -0.3754  0.8173  1.3814
 3302TIP3   OH231320   5.959   3.519  13.170 -0.8192  0.5652 -0.4569
 3302TIP3    H131321   5.915   3.602  13.152 -0.7051  0.2801 -2.2137
 3302TIP3    H231322   5.951   3.470  13.088 -0.0844 -0.7908  0.2655
 3303TIP3   OH231323   4.005   3.471   4.881  0.2853  0.2022 -0.3166
 3303TIP3    H131324   4.041   3.553   4.847 -0.7414  0.1957 -1.4293
 3303TIP3    H231325   3.941   3.499   4.946 -0.5390  0.2942 -1.1713
 3304TIP3   OH231326   0.426   1.544   2.172 -0.8103  0.3417 -0.1215
 3304TIP3    H131327   0.450   1.592   2.092  0.0430  1.1524  0.6090
 3304TIP3    H231328   0.458   1.600   2.243  0.8638 -1.6733  0.7400
 3305TIP3   OH231329   1.701   6.748   6.300  0.1460 -0.1747 -0.1337
 3305TIP3    H131330   1.754   6.727   6.223  0.6339  0.2702  0.0784
 3305TIP3    H231331   1.760   6.797   6.357 -0.1292 -0.7597  0.6527
 3306TIP3   OH231332   2.793   3.904  13.576  0.1197  0.0759 -0.1840
 3306TIP3    H131333   2.815   3.840  13.509  2.7897 -0.5603  1.2570
 3306TIP3    H231334   2.843   3.878  13.653 -0.7363  2.4066  1.2409
 3307TIP3   OH231335   2.492   1.713  13.409  0.4886  0.2824 -0.0418
 3307TIP3    H131336   2.475   1.619  13.407  0.7223  0.2370  0.1309
 3307TIP3    H231337   2.581   1.721  13.441  0.6683  0.5401 -0.5925
 3308TIP3   OH231338   2.214   6.735   5.397  0.0478  0.6153  0.0289
 3308TIP3    H131339   2.217   6.701   5.307 -1.9361  0.9953 -0.1898
 3308TIP3    H231340   2.121   6.740   5.418  0.5129 -1.3987  2.8575
 3309TIP3   OH231341   2.006   5.563   0.963  0.2932 -0.3925 -0.0021
 3309TIP3    H131342   2.090   5.518   0.951  0.0342 -1.5293  2.1875
 3309TIP3    H231343   2.024   5.655   0.943  1.5875 -0.9484 -1.4406
 3310TIP3   OH231344   1.834   3.418  11.357 -0.1776 -0.4126  0.5712
 3310TIP3    H131345   1.798   3.393  11.272 -0.4692 -3.0628  1.4334
 3310TIP3    H231346   1.899   3.485  11.336 -2.3178  1.1426 -1.4332
 3311TIP3   OH231347   5.810   3.356   3.897 -0.4598 -0.8550 -0.0880
 3311TIP3    H131348   5.717   3.337   3.885 -0.5032 -0.9136  0.3212
 3311TIP3    H231349   5.836   3.300   3.970 -0.2132 -0.5057  0.0921
 3312TIP3   OH231350   4.536   6.218  13.564 -0.6802  0.2611 -0.1625
 3312TIP3    H131351   4.585   6.272  13.626 -1.9229  2.2172 -0.8468
 3312TIP3    H231352   4.517   6.137  13.613  3.1308 -0.5514  0.1084
 3313TIP3   OH231353   6.019   1.761  11.677  1.0025 -0.7871  0.0397
 3313TIP3    H131354   6.111   1.747  11.651  0.8855  0.2209 -0.9659
 3313TIP3    H231355   5.976   1.679  11.655  1.0383 -0.1843 -2.4940
 3314TIP3   OH231356   5.194   2.249  13.574  0.2165  0.2974 -0.2638
 3314TIP3    H131357   5.182   2.312  13.503 -1.6925  0.7651  0.4428
 3314TIP3    H231358   5.287   2.228  13.572  0.3552  1.0137 -2.3027
 3315TIP3   OH231359   2.571   6.705   5.637 -0.1799 -0.3629 -0.2584
 3315TIP3    H131360   2.507   6.658   5.690  0.2175  0.7156  1.2174
 3315TIP3    H231361   2.520   6.772   5.592 -0.3537 -0.5990 -0.4147
 3316TIP3   OH231362   5.068   0.633  11.114  0.1026  0.0526  0.0695
 3316TIP3    H131363   4.985   0.603  11.150  0.1260  0.9897  0.9307
 3316TIP3    H231364   5.065   0.606  11.022 -0.6167 -1.0037  0.3927
 3317TIP3   OH231365   6.315   3.168   2.409 -0.4424 -0.1128  0.4997
 3317TIP3    H131366   6.273   3.249   2.381 -0.3384 -0.5237 -0.8760
 3317TIP3    H231367   6.370   3.194   2.483 -1.2716  0.8591  0.7795
 3318TIP3   OH231368   5.891   5.531  16.237 -0.4076  0.1222 -0.2621
 3318TIP3    H131369   5.861   5.600  16.297  0.8247  0.4611 -0.0145
 3318TIP3    H231370   5.987   5.540  16.236 -0.3321 -0.6826 -1.3212
 3319TIP3   OH231371   4.784   6.450  13.241 -0.0686 -0.6811  0.1677
 3319TIP3    H131372   4.840   6.525  13.220  1.0041 -1.7404 -0.7473
 3319TIP3    H231373   4.720   6.447  13.169 -0.2285 -0.5476  0.3023
 3320TIP3   OH231374   6.126   2.067   1.590 -0.9522 -0.6308  0.4794
 3320TIP3    H131375   6.079   2.125   1.651 -0.8908 -1.0597  0.9392
 3320TIP3    H231376   6.057   2.021   1.543 -1.0047  0.1151 -0.1796
 3321TIP3   OH231377   1.653   1.187   3.264  0.0532  0.1938  0.2003
 3321TIP3    H131378   1.592   1.150   3.328  0.7012  0.5303  1.0322
 3321TIP3    H231379   1.605   1.259   3.223 -0.8617 -0.9184 -0.7132
 3322TIP3   OH231380   1.354   1.563  11.648 -0.3192 -0.0212  0.9653
 3322TIP3    H131381   1.392   1.649  11.666  0.4751 -0.8550  3.3949
 3322TIP3    H231382   1.263   1.570  11.675 -0.7826  0.6378 -0.7110
 3323TIP3   OH231383   0.992   1.840  16.493  0.1374 -0.1440  0.2142
 3323TIP3    H131384   0.900   1.865  16.490  0.1095 -0.1116  1.1524
 3323TIP3    H231385   0.991   1.748  16.522  0.3747 -0.2948 -0.2568
 3324TIP3   OH231386   4.947   2.151   0.237 -0.1700 -0.2862  0.3136
 3324TIP3    H131387   4.880   2.084   0.225  1.2694 -1.6809 -0.1451
 3324TIP3    H231388   5.008   2.137   0.165  0.8428  0.6960  0.9610
 3325TIP3   OH231389   1.185   6.101   3.636 -0.1251  0.2455  0.6735
 3325TIP3    H131390   1.160   6.022   3.684 -1.4491  0.7575  0.8739
 3325TIP3    H231391   1.230   6.155   3.701 -1.0339  0.5146  1.0936
 3326TIP3   OH231392   0.529   1.563   4.867 -0.4131 -0.1080  0.1349
 3326TIP3    H131393   0.582   1.507   4.924 -0.1135  0.4133  0.3780
 3326TIP3    H231394   0.586   1.637   4.847 -1.4482  1.0254  1.3334
 3327TIP3   OH231395   4.114   6.446   5.748 -0.6733  0.0570  0.0861
 3327TIP3    H131396   4.020   6.429   5.759 -0.8137 -0.0684 -1.2051
 3327TIP3    H231397   4.137   6.401   5.667  0.3164  0.8108 -0.0643
 3328TIP3   OH231398   0.359   5.682  14.316  0.6603 -0.0341  0.2592
 3328TIP3    H131399   0.391   5.701  14.404  0.1720 -2.8369  1.0651
 3328TIP3    H231400   0.264   5.693  14.322  0.8358  2.2824 -0.6041
 3329TIP3   OH231401   5.799   1.408   6.073  0.0429  0.0872 -0.3099
 3329TIP3    H131402   5.724   1.468   6.066 -1.2645 -1.6958 -1.8488
 3329TIP3    H231403   5.829   1.420   6.163 -2.5495  0.3419  0.5894
 3330TIP3   OH231404   4.234   3.745   4.511  0.0505 -0.3429  0.3340
 3330TIP3    H131405   4.218   3.831   4.472  0.5993  0.2202  1.3239
 3330TIP3    H231406   4.299   3.704   4.453 -0.5777 -0.2936 -0.4101
 3331TIP3   OH231407   6.386   0.235   1.450 -0.1837 -0.2787  0.6678
 3331TIP3    H131408   6.399   0.329   1.456  1.7569 -0.5405  0.6712
 3331TIP3    H231409   6.360   0.220   1.359  0.1957  0.1638  0.4875
 3332TIP3   OH231410   0.698   4.139  16.779 -0.3556  0.3949  0.5726
 3332TIP3    H131411   0.608   4.117  16.804 -0.6097  2.0834  1.2494
 3332TIP3    H231412   0.694   4.146  16.683 -1.0413  0.7600  0.6148
 3333TIP3   OH231413   0.975   0.315  16.443  1.0372 -0.0683  0.1387
 3333TIP3    H131414   0.889   0.339  16.409  0.9761 -0.8214 -0.2445
 3333TIP3    H231415   0.957   0.248  16.509  1.4371 -1.2242 -0.9248
 3334TIP3   OH231416   2.428   2.457  15.020  0.4156  0.1280 -0.3538
 3334TIP3    H131417   2.442   2.425  14.931 -1.7199 -1.3180 -0.1842
 3334TIP3    H231418   2.434   2.552  15.012  2.0143 -0.0502 -1.7046
 3335TIP3   OH231419   1.055   6.739   1.768 -0.1853 -0.0285 -0.3010
 3335TIP3    H131420   1.125   6.708   1.711  0.8244  1.0379  0.3638
 3335TIP3    H231421   1.047   6.832   1.749  0.1962  0.3434  1.3516
 3336TIP3   OH231422   5.082   5.258   4.548 -0.5989  0.1362 -0.1675
 3336TIP3    H131423   5.034   5.229   4.470 -0.8900 -1.4349  0.5837
 3336TIP3    H231424   5.090   5.179   4.602  1.9889  0.5871  0.1721
 3337TIP3   OH231425   0.987   1.731   0.446 -0.6693 -0.1520  0.2410
 3337TIP3    H131426   1.060   1.714   0.505 -1.2098  3.7054  2.1415
 3337TIP3    H231427   1.029   1.752   0.362  0.4362  1.3941  1.1482
 3338TIP3   OH231428   2.086   0.175   1.150 -0.0010  0.2360  0.3150
 3338TIP3    H131429   2.114   0.120   1.223 -0.6663 -1.3212 -0.5791
 3338TIP3    H231430   1.991   0.184   1.161  0.1069  1.2787  0.4891
 3339TIP3   OH231431   3.283   0.976   3.013  0.1429 -0.0115 -0.0420
 3339TIP3    H131432   3.215   0.988   2.947 -0.3203 -0.5298  0.3375
 3339TIP3    H231433   3.324   1.062   3.021 -0.0450  0.1438 -0.7331
 3340TIP3   OH231434   2.052   5.477  12.879 -0.0361  0.3302  0.8033
 3340TIP3    H131435   2.012   5.390  12.880  0.6115 -0.0470 -2.1400
 3340TIP3    H231436   1.979   5.537  12.895 -0.6266 -0.6859  2.0279
 3341TIP3   OH231437   5.590   0.832  16.753 -0.2340  0.0686 -0.3237
 3341TIP3    H131438   5.617   0.741  16.740  0.1986  0.1345  0.1217
 3341TIP3    H231439   5.662   0.872  16.800 -0.8157  0.4176  0.2796
 3342TIP3   OH231440   3.376   4.127  11.579 -0.5108 -0.2992 -0.1449
 3342TIP3    H131441   3.335   4.068  11.642 -0.0771 -1.2925 -0.7934
 3342TIP3    H231442   3.468   4.104  11.580 -0.5000 -0.3387 -1.1488
 3343TIP3   OH231443   6.400   3.842  15.138 -0.7299 -1.0299  0.1148
 3343TIP3    H131444   6.486   3.832  15.177  0.3245  0.8999 -1.5856
 3343TIP3    H231445   6.389   3.765  15.082  0.1513 -0.9982 -0.1085
 3344TIP3   OH231446   3.269   3.912   0.296 -0.3012 -0.4633  0.0001
 3344TIP3    H131447   3.325   3.855   0.349 -1.8208 -0.9248  1.1271
 3344TIP3    H231448   3.238   3.979   0.356  0.9990  1.2500 -1.1891
 3345TIP3   OH231449   3.656   4.327  12.658 -0.0492 -0.1580  0.1076
 3345TIP3    H131450   3.602   4.387  12.709  1.2983  0.0913  1.2709
 3345TIP3    H231451   3.685   4.378  12.582 -1.4001 -0.2827 -0.4901
 3346TIP3   OH231452   1.067   2.779   2.926  0.0372  0.0258  0.1158
 3346TIP3    H131453   1.059   2.872   2.949 -0.5058 -0.3721  1.6011
 3346TIP3    H231454   0.980   2.743   2.945  0.1886 -0.7424 -0.6525
 3347TIP3   OH231455   4.041   0.446  12.885 -0.1081  0.3138  0.3153
 3347TIP3    H131456   3.957   0.408  12.863  0.3534 -0.2035 -0.5618
 3347TIP3    H231457   4.031   0.474  12.976 -0.6597 -1.3100  0.7752
 3348TIP3   OH231458   3.706   0.013   5.422  0.3800  0.1919 -0.5249
 3348TIP3    H131459   3.643  -0.057   5.442 -0.3535  1.1854  0.6758
 3348TIP3    H231460   3.776   0.001   5.487 -0.6699  1.7248  0.9262
 3349TIP3   OH231461   0.472   6.464   4.104 -0.1021 -0.3425  0.3560
 3349TIP3    H131462   0.385   6.465   4.142 -0.0071 -1.2238  0.6087
 3349TIP3    H231463   0.457   6.457   4.010 -0.3371  1.8221  0.2155
 3350TIP3   OH231464   3.835   4.729   2.926 -0.5531 -0.5954 -0.3842
 3350TIP3    H131465   3.744   4.733   2.956 -0.3852  2.2491 -0.0504
 3350TIP3    H231466   3.851   4.816   2.888  1.4642 -1.6742 -2.1265
 3351TIP3   OH231467   3.067   4.139  15.012  0.2885 -0.0027 -0.2854
 3351TIP3    H131468   3.001   4.188  14.963 -0.1739 -1.0187 -0.6879
 3351TIP3    H231469   3.092   4.197  15.084 -2.5467 -0.3916  1.0976
 3352TIP3   OH231470   4.751   2.818  12.351  0.3712 -0.1254  0.5729
 3352TIP3    H131471   4.660   2.789  12.355  0.2567  0.1229 -0.2074
 3352TIP3    H231472   4.746   2.913  12.364  0.4639 -0.0282 -0.0873
 3353TIP3   OH231473   6.505   6.178   5.245  0.3378 -0.3139  0.3076
 3353TIP3    H131474   6.412   6.197   5.243  0.3100 -0.5271 -0.5027
 3353TIP3    H231475   6.529   6.183   5.338 -0.4032  0.0799  0.4730
 3354TIP3   OH231476   4.173   4.485   5.739  0.2479 -0.4836 -0.1078
 3354TIP3    H131477   4.101   4.525   5.690  1.9496  0.5683 -1.8546
 3354TIP3    H231478   4.224   4.439   5.672  1.4476 -0.8233  1.0206
 3355TIP3   OH231479   6.418   2.741   5.467  0.1425  0.3973 -0.0309
 3355TIP3    H131480   6.425   2.835   5.453 -0.6513  0.2984 -1.2115
 3355TIP3    H231481   6.329   2.728   5.501 -0.4050 -0.0863 -1.5772
 3356TIP3   OH231482   5.834   1.581   4.013 -0.3584  0.5744 -0.2169
 3356TIP3    H131483   5.783   1.599   3.934  0.2735 -1.6512 -1.1732
 3356TIP3    H231484   5.894   1.511   3.987  1.3055  1.2565  1.6597
 3357TIP3   OH231485   0.433   0.855   4.579 -0.2100  0.1669  0.5203
 3357TIP3    H131486   0.495   0.906   4.632 -0.1571  1.1989 -0.5290
 3357TIP3    H231487   0.473   0.768   4.573  1.2256  0.8787 -0.3074
 3358TIP3   OH231488   3.016   5.534  11.454  0.0090  0.9085 -0.0411
 3358TIP3    H131489   2.970   5.614  11.427 -1.0735  0.6493  0.9782
 3358TIP3    H231490   3.057   5.557  11.537 -1.1504  0.1098  0.7582
 3359TIP3   OH231491   3.253   2.506   1.039  0.4611  0.5702  0.6293
 3359TIP3    H131492   3.178   2.549   1.080 -0.9982 -1.3263  0.0334
 3359TIP3    H231493   3.275   2.563   0.965 -0.9815  0.6880  0.2646
 3360TIP3   OH231494   1.909   0.317   6.222  0.4807 -0.9038 -0.8393
 3360TIP3    H131495   1.833   0.338   6.167  0.3669 -0.6707 -0.5956
 3360TIP3    H231496   1.900   0.375   6.298  1.0124 -0.7303 -0.9063
 3361TIP3   OH231497   4.297   0.310   5.275 -0.2638  0.3354  0.0612
 3361TIP3    H131498   4.359   0.378   5.301 -0.1147 -0.2622  1.3174
 3361TIP3    H231499   4.263   0.276   5.358 -1.0883 -0.4223 -0.5822
 3362TIP3   OH231500   4.195   1.286   5.369  0.3584  0.7284 -0.1878
 3362TIP3    H131501   4.218   1.265   5.459  0.1106  0.7540 -0.1192
 3362TIP3    H231502   4.205   1.381   5.362 -0.8174  0.8756  0.1470
 3363TIP3   OH231503   0.364   3.133  14.597  0.1160 -0.1398  0.8527
 3363TIP3    H131504   0.420   3.056  14.589  0.1488 -0.3998  3.0527
 3363TIP3    H231505   0.283   3.100  14.637 -0.2620  0.7927  0.8805
 3364TIP3   OH231506   4.240   0.786  13.275  0.6909  0.0984  0.2891
 3364TIP3    H131507   4.230   0.879  13.256 -0.3731 -0.3848 -1.6924
 3364TIP3    H231508   4.324   0.762  13.236  0.2408 -0.0816 -0.5984
 3365TIP3   OH231509   2.379   5.946   1.391 -0.0422 -0.0702  0.7986
 3365TIP3    H131510   2.466   5.956   1.431 -0.1368 -1.0758  1.2837
 3365TIP3    H231511   2.395   5.956   1.297  0.3998  0.9618  0.9712
 3366TIP3   OH231512   1.700   2.178   0.833 -0.0153  0.2584  0.2460
 3366TIP3    H131513   1.685   2.164   0.740  2.1801  0.8398 -0.2155
 3366TIP3    H231514   1.691   2.272   0.846 -1.3593  0.0657  0.8409
 3367TIP3   OH231515   0.630   0.106   1.163 -0.4645  0.0652 -0.0925
 3367TIP3    H131516   0.709   0.087   1.214 -1.7406 -1.4535  1.3288
 3367TIP3    H231517   0.635   0.047   1.089  0.3684  0.8799 -0.7099
 3368TIP3   OH231518   5.290   3.301  16.721  0.6272 -0.2091 -0.4070
 3368TIP3    H131519   5.262   3.389  16.749  0.9025 -0.3013  0.1570
 3368TIP3    H231520   5.377   3.315  16.684  0.7080 -0.2548 -0.2383
 3369TIP3   OH231521   6.759   0.433   4.313 -0.1893 -0.3163  0.0368
 3369TIP3    H131522   6.825   0.483   4.264  0.0192  1.5600  2.1398
 3369TIP3    H231523   6.810   0.375   4.369 -0.3861 -0.9198 -0.4055
 3370TIP3   OH231524   3.154   5.970  11.017 -0.3593  0.2920  0.1720
 3370TIP3    H131525   3.096   5.904  10.979  0.6982  0.5914 -2.0483
 3370TIP3    H231526   3.137   5.966  11.111 -1.0876 -2.3872 -0.0359
 3371TIP3   OH231527   5.717   3.366   4.573  0.0529 -0.0992  0.3210
 3371TIP3    H131528   5.765   3.436   4.527 -0.8275  1.4073  1.6210
 3371TIP3    H231529   5.784   3.302   4.594  0.8376  0.1906 -1.1848
 3372TIP3   OH231530   4.094   5.155  11.990 -0.1515  0.0019  0.2201
 3372TIP3    H131531   4.162   5.089  11.987 -0.8070 -0.6916  0.4166
 3372TIP3    H231532   4.062   5.153  12.080 -0.2518  0.5034  0.1961
 3373TIP3   OH231533   0.097   4.224  12.774 -0.4415  0.6760 -0.7031
 3373TIP3    H131534   0.159   4.152  12.783  1.0916  1.8908 -1.3763
 3373TIP3    H231535   0.019   4.195  12.821 -0.5908 -2.2782 -2.6204
 3374TIP3   OH231536   2.911   2.752  16.363 -0.4376  0.4577  0.5027
 3374TIP3    H131537   2.844   2.689  16.337 -1.1315  0.8230  1.3669
 3374TIP3    H231538   2.880   2.786  16.447  0.0824  1.7262  0.1823
 3375TIP3   OH231539   2.899   3.700  16.120 -0.5122 -0.2624 -0.5636
 3375TIP3    H131540   2.809   3.720  16.096 -0.0018  2.3612 -0.3925
 3375TIP3    H231541   2.942   3.681  16.036 -1.2368 -1.7004 -0.6306
 3376TIP3   OH231542   1.671   3.103  11.321  0.4296 -0.3367 -0.0186
 3376TIP3    H131543   1.662   3.009  11.334 -2.3239  0.2335  2.6165
 3376TIP3    H231544   1.702   3.136  11.405 -1.9304  1.5284  0.1452
 3377TIP3   OH231545   2.951   0.722  16.632 -0.4276 -0.2221  0.3576
 3377TIP3    H131546   2.951   0.716  16.728 -0.7266 -0.5241  0.3397
 3377TIP3    H231547   2.894   0.651  16.604 -0.5143  0.0047 -0.0379
 3378TIP3   OH231548   4.509   4.292  13.978  0.0501 -0.4838 -0.9759
 3378TIP3    H131549   4.503   4.219  13.917 -0.7047  0.4779 -2.0584
 3378TIP3    H231550   4.549   4.254  14.057  1.5031 -1.6147 -2.2326
 3379TIP3   OH231551   3.882   0.620   2.396 -0.4018 -0.3262 -0.2703
 3379TIP3    H131552   3.802   0.629   2.344  0.1141  1.7348 -0.7500
 3379TIP3    H231553   3.948   0.593   2.333 -0.5730 -1.4197  0.0113
 3380TIP3   OH231554   5.055   0.937  13.658 -0.0100  0.6413 -0.9659
 3380TIP3    H131555   5.045   0.872  13.727  0.5366 -0.1944 -1.6749
 3380TIP3    H231556   5.141   0.920  13.620  0.0819  1.6906 -1.2482
 3381TIP3   OH231557   5.533   0.385  11.457 -0.1969 -0.4392 -0.4797
 3381TIP3    H131558   5.458   0.333  11.427 -1.3264  1.2182 -0.6474
 3381TIP3    H231559   5.493   0.460  11.501  1.3979 -1.0604  2.1504
 3382TIP3   OH231560   2.416   6.728  14.709  0.4876  0.2987  0.3908
 3382TIP3    H131561   2.416   6.816  14.748 -0.9040  0.6327 -0.3113
 3382TIP3    H231562   2.331   6.692  14.733  0.5108 -0.3379 -0.4668
 3383TIP3   OH231563   3.567   6.197  16.740 -0.1288 -0.2889 -0.7786
 3383TIP3    H131564   3.548   6.205  16.834 -0.6540 -0.7572 -0.8493
 3383TIP3    H231565   3.570   6.288  16.709 -3.3856 -0.1885 -1.0018
 3384TIP3   OH231566   2.970   5.908  15.551  0.1384 -0.5094  0.2935
 3384TIP3    H131567   3.009   5.995  15.553  0.1207 -0.5322  2.2736
 3384TIP3    H231568   2.987   5.872  15.638 -1.7543 -1.6312  0.2213
 3385TIP3   OH231569   2.541   3.225  11.209 -0.0881  0.8381 -0.2210
 3385TIP3    H131570   2.484   3.268  11.146  0.0313  1.0233 -0.2031
 3385TIP3    H231571   2.490   3.150  11.241 -0.1813  0.7971 -0.4699
 3386TIP3   OH231572   2.702   0.419  15.464 -0.2597  0.2376  0.2678
 3386TIP3    H131573   2.640   0.474  15.512 -1.2065  0.5359 -1.2429
 3386TIP3    H231574   2.763   0.482  15.423  0.2393  0.0195  0.6756
 3387TIP3   OH231575   2.881   6.042  13.323 -0.0197  0.0030 -0.5874
 3387TIP3    H131576   2.880   6.121  13.377 -0.9662 -2.0399  2.4730
 3387TIP3    H231577   2.892   6.075  13.234  0.7146  3.5214  0.7068
 3388TIP3   OH231578   0.615   3.613   3.866 -0.1765 -0.1181 -0.2050
 3388TIP3    H131579   0.619   3.517   3.873 -1.7840 -0.0635  2.1907
 3388TIP3    H231580   0.615   3.643   3.957 -1.8363  2.0675 -0.8847
 3389TIP3   OH231581   5.593   6.736   2.179 -0.2063  0.7469  0.1591
 3389TIP3    H131582   5.581   6.680   2.103 -2.6446  0.8016  0.4744
 3389TIP3    H231583   5.620   6.677   2.249  0.9634  0.5458 -0.4420
 3390TIP3   OH231584   1.071   4.844   2.720 -0.1938  0.0763  0.3299
 3390TIP3    H131585   1.163   4.827   2.699  0.2218  0.5830  1.6733
 3390TIP3    H231586   1.043   4.767   2.769 -0.5921 -0.2321 -0.3773
 3391TIP3   OH231587   1.150   4.705  16.468  0.1985  0.1163  0.2447
 3391TIP3    H131588   1.075   4.756  16.498 -1.9415 -1.4467 -2.2259
 3391TIP3    H231589   1.168   4.644  16.539  1.1164  2.4810  2.1237
 3392TIP3   OH231590   4.760   4.830   6.238 -0.2792 -0.1411 -0.0867
 3392TIP3    H131591   4.664   4.826   6.238 -0.4363  2.4872 -1.1316
 3392TIP3    H231592   4.785   4.813   6.329 -1.7622 -0.5590  0.2522
 3393TIP3   OH231593   5.991   5.551   6.225 -0.0441 -0.0734 -0.4367
 3393TIP3    H131594   5.924   5.515   6.284  1.6593 -0.8816  1.0697
 3393TIP3    H231595   6.043   5.608   6.280 -0.0468  1.3060 -1.8293
 3394TIP3   OH231596   0.490   4.690   6.281 -0.3339  0.4492 -0.0214
 3394TIP3    H131597   0.544   4.750   6.229 -1.3651  0.8090 -0.6832
 3394TIP3    H231598   0.551   4.652   6.344  0.4483  1.7546  0.0226
 3395TIP3   OH231599   2.905   4.830   1.600 -0.1466  0.2112 -0.6371
 3395TIP3    H131600   2.821   4.790   1.578 -0.3178  0.7329 -0.9601
 3395TIP3    H231601   2.969   4.761   1.586 -0.4894 -0.0912 -0.7236
 3396TIP3   OH231602   0.701   4.809   1.400 -0.3781  0.1423 -0.3745
 3396TIP3    H131603   0.625   4.822   1.457 -0.3611 -0.1500 -0.2865
 3396TIP3    H231604   0.695   4.881   1.337  0.2666  1.1698  0.7230
 3397TIP3   OH231605   3.283   2.387  12.587  0.0877 -0.1029 -0.3589
 3397TIP3    H131606   3.215   2.348  12.641  0.1636  1.1865  0.6704
 3397TIP3    H231607   3.335   2.440  12.647 -0.2549  1.9181 -1.7913
 3398TIP3   OH231608   0.245   2.341   4.775 -0.1628  0.3629 -0.1474
 3398TIP3    H131609   0.164   2.352   4.725 -0.8541 -1.3080  0.5414
 3398TIP3    H231610   0.242   2.408   4.843 -0.6985  0.6603 -0.4666
 3399TIP3   OH231611   4.182   5.227   1.953  0.1165 -0.3863 -0.4392
 3399TIP3    H131612   4.151   5.149   1.999  1.5181 -1.5368 -1.4258
 3399TIP3    H231613   4.129   5.231   1.873 -0.3788  0.0458 -0.1001
 3400TIP3   OH231614   3.375   1.033   1.106  0.2764 -0.5825 -0.3797
 3400TIP3    H131615   3.309   1.101   1.121  0.7652  0.4413 -2.6166
 3400TIP3    H231616   3.325   0.960   1.070  0.1474 -0.3109 -0.7630
 3401TIP3   OH231617   5.513   1.027  14.592  0.4993 -0.2009  0.1905
 3401TIP3    H131618   5.601   1.041  14.627 -0.0695 -0.5132  1.8188
 3401TIP3    H231619   5.525   0.961  14.523  1.4289 -0.9269  1.0234
 3402TIP3   OH231620   3.676   1.345   1.562 -0.9029  0.0861  0.1284
 3402TIP3    H131621   3.686   1.290   1.484 -1.0292 -1.1285  0.9683
 3402TIP3    H231622   3.608   1.408   1.537 -0.9553 -0.2968 -0.7348
 3403TIP3   OH231623   0.562   5.953   4.389 -0.0179 -0.0997 -0.2995
 3403TIP3    H131624   0.486   5.989   4.435  1.9685  2.0467  1.4379
 3403TIP3    H231625   0.635   5.965   4.450  1.7641 -1.9574 -1.9859
 3404TIP3   OH231626   4.246   6.652  11.492  0.3866 -0.8558 -0.2113
 3404TIP3    H131627   4.273   6.726  11.546  0.6647 -1.2897  0.2537
 3404TIP3    H231628   4.219   6.691  11.409  0.9168 -0.2738 -0.1107
 3405TIP3   OH231629   5.671   4.519   6.845  0.0129  0.1484  0.5240
 3405TIP3    H131630   5.744   4.484   6.793  1.4329  0.6468  2.1556
 3405TIP3    H231631   5.593   4.489   6.798  1.2428 -0.7207 -1.0470
 3406TIP3   OH231632   3.504   6.252  12.913  0.1943 -0.2521  0.4943
 3406TIP3    H131633   3.436   6.203  12.959 -1.0745 -1.6614 -2.7697
 3406TIP3    H231634   3.467   6.339  12.901 -0.3331 -0.5099  0.2527
 3407TIP3   OH231635   5.914   3.593   4.793 -0.3942  0.2354 -0.2932
 3407TIP3    H131636   6.004   3.616   4.814 -0.6769 -0.8993  2.3392
 3407TIP3    H231637   5.862   3.630   4.864 -2.0248  0.8507 -1.7656
 3408TIP3   OH231638   6.016   3.618  10.833 -0.1875  1.3183 -0.2704
 3408TIP3    H131639   6.013   3.674  10.755 -0.8284  1.6338 -0.0278
 3408TIP3    H231640   5.927   3.622  10.868 -0.2347  0.1549 -0.2389
 3409TIP3   OH231641   1.909   4.300   4.845  0.6776  0.2914  0.3713
 3409TIP3    H131642   1.837   4.300   4.781  1.3749 -2.9780 -0.5227
 3409TIP3    H231643   1.894   4.378   4.899 -2.9470  0.2440 -0.4579
 3410TIP3   OH231644   3.573   1.644  14.026  0.2339 -0.5074 -0.1560
 3410TIP3    H131645   3.665   1.667  14.036  0.5621 -1.9202  0.2726
 3410TIP3    H231646   3.531   1.723  13.992  1.7541 -0.1315 -1.1775
 3411TIP3   OH231647   0.349   2.562   4.140 -0.1246  0.5334  0.4028
 3411TIP3    H131648   0.313   2.636   4.189  1.4349  0.8959  1.0394
 3411TIP3    H231649   0.335   2.486   4.197  0.7259  0.7867  0.9655
 3412TIP3   OH231650   2.436   6.763   2.247 -0.3963  0.9614  0.6927
 3412TIP3    H131651   2.448   6.669   2.261  0.9757  0.6335 -2.3116
 3412TIP3    H231652   2.359   6.785   2.299 -1.7789 -2.1585  0.1119
 3413TIP3   OH231653   6.092   4.275  12.050 -0.1265 -0.4123 -0.9428
 3413TIP3    H131654   6.102   4.253  11.957 -0.3191  1.3381 -1.3970
 3413TIP3    H231655   6.007   4.318  12.056  1.3916  2.6716 -0.6109
 3414TIP3   OH231656   6.022   2.022   0.625  0.4106 -0.0498  0.1159
 3414TIP3    H131657   5.959   2.092   0.643 -0.8075 -1.1900  0.3975
 3414TIP3    H231658   6.016   2.010   0.530 -0.8270 -1.0830  0.3097
 3415TIP3   OH231659   5.608   3.431   3.013  0.0742  0.2693  0.2643
 3415TIP3    H131660   5.584   3.507   2.959  0.9634  0.7300  0.5079
 3415TIP3    H231661   5.649   3.370   2.952 -1.0999 -0.2408 -0.0287
 3416TIP3   OH231662   2.846   4.421   5.405 -0.2438  0.1513  0.2922
 3416TIP3    H131663   2.928   4.380   5.379  1.4604  2.8880  1.1266
 3416TIP3    H231664   2.852   4.510   5.371 -2.6881  0.5183  0.7466
 3417TIP3   OH231665   5.817   1.488  11.965 -0.2825 -0.0470 -0.5853
 3417TIP3    H131666   5.874   1.413  11.985 -0.4254  0.0731  0.2682
 3417TIP3    H231667   5.858   1.562  12.010 -2.4300 -0.4293  2.1179
 3418TIP3   OH231668   5.248   4.544  15.678  0.0206  0.1850  0.5819
 3418TIP3    H131669   5.206   4.624  15.709 -0.1627  0.0599  0.6584
 3418TIP3    H231670   5.256   4.556  15.583  3.1598  1.7942  0.9973
 3419TIP3   OH231671   6.468   1.181   0.463  0.0456  0.0298 -0.5656
 3419TIP3    H131672   6.422   1.224   0.391  0.6375  0.6380 -0.5786
 3419TIP3    H231673   6.502   1.252   0.516 -0.8200 -0.4133  0.6116
 3420TIP3   OH231674   4.825   1.859  14.193  0.4906  0.2834 -0.0406
 3420TIP3    H131675   4.880   1.840  14.269  0.4940 -0.1064 -0.1440
 3420TIP3    H231676   4.762   1.924  14.225  0.4798  0.1052  0.3006
 3421TIP3   OH231677   4.194   0.009  11.865 -0.5593 -0.1734  0.1912
 3421TIP3    H131678   4.236  -0.055  11.922 -1.0914  0.6285  1.5186
 3421TIP3    H231679   4.262   0.073  11.845 -0.8871  0.6552  1.6292
 3422TIP3   OH231680   5.402   2.491   5.064 -0.3214  0.0396  0.2928
 3422TIP3    H131681   5.310   2.509   5.044 -0.4531 -1.3209 -0.3820
 3422TIP3    H231682   5.400   2.409   5.114  0.4645  0.4467  1.0047
 3423TIP3   OH231683   5.520   4.920  15.889  0.5200  0.1516  0.8143
 3423TIP3    H131684   5.585   4.871  15.939  3.4681  2.4851 -0.5870
 3423TIP3    H231685   5.534   4.893  15.799  0.3654  1.5547  0.3656
 3424TIP3   OH231686   1.440   0.593   4.693 -0.4101  0.2960  0.8323
 3424TIP3    H131687   1.527   0.612   4.727 -0.9530  1.0665  1.8405
 3424TIP3    H231688   1.425   0.659   4.625  0.4736 -0.9249 -0.5678
 3425TIP3   OH231689   3.127   0.597   0.816  0.1047  0.1479  0.0734
 3425TIP3    H131690   3.117   0.627   0.726 -0.9764 -0.5027 -0.0260
 3425TIP3    H231691   3.166   0.510   0.809 -1.5481 -0.6276  0.1443
 3426TIP3   OH231692   5.921   0.266  10.484 -1.1016 -0.1253 -0.2051
 3426TIP3    H131693   5.880   0.336  10.536  0.2764 -0.4165  1.2985
 3426TIP3    H231694   6.012   0.293  10.474 -0.8737 -1.0683 -0.7464
 3427TIP3   OH231695   0.135   6.579   0.831  0.8423 -0.2291  0.3833
 3427TIP3    H131696   0.180   6.619   0.906  0.5318 -1.8690  1.4683
 3427TIP3    H231697   0.205   6.536   0.782  0.9233  0.1207  0.1867
 3428TIP3   OH231698   5.826   5.881  14.702 -0.1124 -0.6099  0.2765
 3428TIP3    H131699   5.843   5.883  14.796 -1.4032 -0.0696  0.5113
 3428TIP3    H231700   5.737   5.847  14.695 -1.0809  2.0070 -0.5823
 3429TIP3   OH231701   3.466   3.462  14.323  0.0547 -0.3291 -0.2858
 3429TIP3    H131702   3.507   3.383  14.290 -0.6122  0.4719 -3.1964
 3429TIP3    H231703   3.531   3.501  14.381  0.7526 -2.4597  0.4087
 3430TIP3   OH231704   3.732   3.700   5.205 -0.2983 -0.0128  0.0457
 3430TIP3    H131705   3.668   3.733   5.268  0.4714  1.7321 -0.0685
 3430TIP3    H231706   3.761   3.617   5.242 -1.3924 -0.0201  0.9236
 3431TIP3   OH231707   3.037   2.608  10.548  0.2429  0.3642  0.0386
 3431TIP3    H131708   3.005   2.640  10.463  0.9017  0.1282 -0.3055
 3431TIP3    H231709   3.104   2.543  10.525 -0.2132 -0.3656  0.7381
 3432TIP3   OH231710   2.273   4.772   2.607 -0.7944  0.8989  0.3256
 3432TIP3    H131711   2.346   4.721   2.641 -0.0007  0.4120 -2.0475
 3432TIP3    H231712   2.209   4.773   2.679  0.0526 -1.6523  1.1628
 3433TIP3   OH231713   1.298   2.625   5.782 -0.0310 -0.3663 -0.1904
 3433TIP3    H131714   1.370   2.668   5.736  1.8134 -3.1961 -0.0556
 3433TIP3    H231715   1.256   2.570   5.715 -0.9421 -0.1077  0.1579
 3434TIP3   OH231716   6.075   3.781   0.362  0.2007  0.3107  0.2009
 3434TIP3    H131717   6.014   3.855   0.355  0.2390  0.2996 -0.2781
 3434TIP3    H231718   6.094   3.757   0.271  1.3504  0.6654  0.3415
 3435TIP3   OH231719   5.359   0.897  14.836  0.0269  0.5716  0.0693
 3435TIP3    H131720   5.394   0.921  14.922 -1.4300 -0.7730  1.0856
 3435TIP3    H231721   5.430   0.851  14.792  0.5342  0.5957  0.8601
 3436TIP3   OH231722   1.819   4.436  17.215  0.0905 -0.1010 -0.2291
 3436TIP3    H131723   1.860   4.411  17.133 -0.1117  0.8425 -0.6333
 3436TIP3    H231724   1.727   4.411  17.205  0.0611  0.0347 -0.3025
 3437TIP3   OH231725   5.581   0.495   2.080 -0.7748  0.5428  0.0500
 3437TIP3    H131726   5.560   0.497   2.174 -0.1287  0.6995  0.1907
 3437TIP3    H231727   5.675   0.479   2.077 -1.1158 -1.5856 -0.5975
 3438TIP3   OH231728   6.621   4.539   3.476  0.0558  0.0530 -0.0643
 3438TIP3    H131729   6.570   4.601   3.424 -1.8273 -1.4265 -0.0357
 3438TIP3    H231730   6.583   4.546   3.564  1.5908  0.7494  0.5579
 3439TIP3   OH231731   5.861   5.533   2.786  0.4447 -0.5477 -0.2688
 3439TIP3    H131732   5.836   5.526   2.694  1.6503  1.1259 -0.7319
 3439TIP3    H231733   5.930   5.598   2.788  1.5494 -1.7121  1.6176
 3440TIP3   OH231734   5.338   1.156   3.024  0.2449 -0.2101 -0.3037
 3440TIP3    H131735   5.310   1.225   2.964  1.6212  0.4324 -0.2324
 3440TIP3    H231736   5.344   1.078   2.970 -1.2366 -0.2510 -0.4073
 3441TIP3   OH231737   4.389   2.676   5.403  0.4232  0.2197  0.3284
 3441TIP3    H131738   4.382   2.765   5.366 -2.5719  0.3618  1.1334
 3441TIP3    H231739   4.408   2.690   5.495 -1.1476  0.0756  0.6874
 3442TIP3   OH231740   1.959   0.853   4.511  0.1013 -0.0858  0.0501
 3442TIP3    H131741   2.047   0.821   4.532  1.0659  1.5264 -1.4524
 3442TIP3    H231742   1.968   0.948   4.509 -1.6347  0.0743 -0.3016
 3443TIP3   OH231743   3.132   5.326   0.233 -0.0927  1.0078  0.1380
 3443TIP3    H131744   3.063   5.285   0.182 -0.3101  1.1706  0.3011
 3443TIP3    H231745   3.139   5.415   0.197  1.5296  0.3080 -1.3545
 3444TIP3   OH231746   4.154   0.080   5.610 -0.0207  0.1447  0.6392
 3444TIP3    H131747   4.246   0.076   5.586 -0.5637 -0.4986 -1.4685
 3444TIP3    H231748   4.151   0.136   5.687  2.2362 -0.6387  1.3054
 3445TIP3   OH231749   1.214   4.029  12.937 -0.0894 -0.0315  0.0610
 3445TIP3    H131750   1.182   3.940  12.953  1.4622 -0.3631  1.4464
 3445TIP3    H231751   1.179   4.080  13.010 -0.4175  0.3524 -0.3664
 3446TIP3   OH231752   2.353   3.140   4.567 -0.1007  0.0066  0.6123
 3446TIP3    H131753   2.355   3.177   4.655  1.3848  3.2947 -0.7355
 3446TIP3    H231754   2.436   3.094   4.558  0.4282  0.9763  0.4310
 3447TIP3   OH231755   3.834   0.820   2.988  0.0641  0.4633  0.0547
 3447TIP3    H131756   3.873   0.888   2.932  0.4814  0.5160  0.4085
 3447TIP3    H231757   3.826   0.744   2.931 -2.0639  1.3355 -0.8532
 3448TIP3   OH231758   5.870   5.176  16.133 -0.1011  0.3082 -0.4893
 3448TIP3    H131759   5.932   5.244  16.158  1.8369 -0.9478 -1.7350
 3448TIP3    H231760   5.810   5.220  16.072  1.0451  0.9409 -1.1726
 3449TIP3   OH231761   5.871   2.632   3.880  0.2739  0.1717  0.1457
 3449TIP3    H131762   5.878   2.595   3.968 -1.6064 -1.1922 -0.2326
 3449TIP3    H231763   5.896   2.560   3.822 -3.2241 -0.5489 -0.5935
 3450TIP3   OH231764   0.565   5.297  12.675  0.2718  0.3472 -0.2247
 3450TIP3    H131765   0.651   5.276  12.712 -0.2412  0.2612  0.9392
 3450TIP3    H231766   0.569   5.391  12.657 -0.2312  0.8820  2.1922
 3451TIP3   OH231767   0.541   4.168   5.602 -0.1138  0.2524  0.6356
 3451TIP3    H131768   0.605   4.240   5.598  0.5806 -0.3540  0.6896
 3451TIP3    H231769   0.593   4.089   5.588 -1.0942 -0.1392 -0.8896
 3452TIP3   OH231770   3.302   1.615   6.430 -0.1008  0.1558 -0.3214
 3452TIP3    H131771   3.292   1.652   6.342 -0.3255 -0.0406 -0.3785
 3452TIP3    H231772   3.396   1.599   6.438 -0.2047 -0.8046 -0.9340
 3453TIP3   OH231773   0.638   0.921   0.591  0.4061 -0.3362 -0.0645
 3453TIP3    H131774   0.599   0.969   0.664  0.1838  1.0141 -1.0493
 3453TIP3    H231775   0.564   0.899   0.535  0.7623  0.0903 -0.7083
 3454TIP3   OH231776   1.522   2.203   4.918 -0.6047  0.0058 -0.3240
 3454TIP3    H131777   1.577   2.223   4.842 -0.2738 -0.3263 -0.1747
 3454TIP3    H231778   1.523   2.107   4.925 -4.0378 -0.2714 -2.3991
 3455TIP3   OH231779   3.001   4.731  16.970 -0.3668  0.0758 -0.2280
 3455TIP3    H131780   2.984   4.794  16.900  3.7658 -0.1170 -1.5423
 3455TIP3    H231781   3.020   4.784  17.047  0.7174  0.3868 -0.7125
 3456TIP3   OH231782   3.368   1.751  12.161  0.5267 -0.0229 -0.5810
 3456TIP3    H131783   3.428   1.676  12.167 -0.8396 -1.1675 -0.9565
 3456TIP3    H231784   3.289   1.722  12.207 -0.5518  0.6534 -2.0022
 3457TIP3   OH231785   2.323   4.717  15.100  0.0948  0.2068  0.0061
 3457TIP3    H131786   2.249   4.662  15.126 -0.3471  1.1112  0.7013
 3457TIP3    H231787   2.287   4.775  15.033  0.3833  0.1215 -0.2252
 3458TIP3   OH231788   5.160   0.178   3.653  0.3041 -0.3380 -0.1009
 3458TIP3    H131789   5.127   0.263   3.623  0.7483  0.4087  1.4404
 3458TIP3    H231790   5.099   0.152   3.722  2.0503  0.3497  1.7465
 3459TIP3   OH231791   2.582   6.457  13.898 -0.4404  0.5164 -0.3499
 3459TIP3    H131792   2.580   6.361  13.894 -0.4642  0.4102  1.6358
 3459TIP3    H231793   2.490   6.483  13.893 -0.4866  0.3949 -0.1497
 3460TIP3   OH231794   0.689   4.262   0.559 -0.3351 -0.0137  0.3037
 3460TIP3    H131795   0.649   4.211   0.488 -1.0904  1.0591 -0.0567
 3460TIP3    H231796   0.746   4.325   0.514 -0.7115  0.5832  0.6598
 3461TIP3   OH231797   6.256   0.711  15.424 -0.2720 -0.1540  0.2577
 3461TIP3    H131798   6.267   0.803  15.448  0.2227 -0.6770  2.1317
 3461TIP3    H231799   6.345   0.677  15.416 -0.4585 -0.6284  0.2000
 3462TIP3   OH231800   4.716   4.839  12.403  0.2934  0.1431  1.0743
 3462TIP3    H131801   4.643   4.779  12.392  0.6096 -0.1607  0.6039
 3462TIP3    H231802   4.677   4.917  12.444 -0.2930 -0.0154  0.8273
 3463TIP3   OH231803   1.028   5.637  12.555  0.2553  0.2953 -0.5809
 3463TIP3    H131804   1.011   5.716  12.504  1.6692 -0.5818 -2.4777
 3463TIP3    H231805   1.116   5.610  12.529  0.7532 -0.5670  1.8504
 3464TIP3   OH231806   4.933   5.030  13.488  0.2265 -0.1742  0.0912
 3464TIP3    H131807   4.883   4.987  13.419 -0.6425  0.8431  0.0776
 3464TIP3    H231808   5.007   5.071  13.443  0.5144 -0.8099 -0.0214
 3465TIP3   OH231809   1.424   6.688  13.532  0.2142  0.6875 -0.2650
 3465TIP3    H131810   1.410   6.595  13.516 -0.3930  1.0856 -2.1764
 3465TIP3    H231811   1.501   6.692  13.588  0.8055 -0.9091 -0.9545
 3466TIP3   OH231812   3.027   1.717   2.572  0.1769  0.0969 -0.8242
 3466TIP3    H131813   3.079   1.783   2.618  0.1452  0.4824 -1.3379
 3466TIP3    H231814   2.941   1.721   2.615  0.3297  0.0180 -0.5063
 3467TIP3   OH231815   3.586   2.160   2.940 -0.6463  0.0214 -0.1017
 3467TIP3    H131816   3.542   2.180   2.857  1.3896 -0.0122 -1.2030
 3467TIP3    H231817   3.646   2.089   2.919  1.5873  1.5943  0.8757
 3468TIP3   OH231818   5.704   2.958   2.451 -0.7522 -0.4169 -0.1326
 3468TIP3    H131819   5.687   3.052   2.461  0.2563 -0.0124 -1.9228
 3468TIP3    H231820   5.749   2.933   2.532  0.7658  1.1013 -0.4590
 3469TIP3   OH231821   6.453   4.010   1.687 -0.3765 -0.1293 -0.0258
 3469TIP3    H131822   6.407   3.952   1.626 -1.2841  0.3838  0.1651
 3469TIP3    H231823   6.478   3.953   1.760 -0.7865 -0.3891 -0.0846
 3470TIP3   OH231824   5.233   2.165  12.038 -0.5120  0.0082 -0.4648
 3470TIP3    H131825   5.221   2.200  12.126 -2.5294 -0.3487 -0.5789
 3470TIP3    H231826   5.227   2.242  11.981  0.0580  0.1344 -0.3633
 3471TIP3   OH231827   3.972   1.393  13.508 -0.3201 -0.2227 -1.1397
 3471TIP3    H131828   4.054   1.344  13.496 -0.6457 -1.2862  0.7941
 3471TIP3    H231829   3.984   1.473  13.456  2.5984  0.4106  0.4278
 3472TIP3   OH231830   3.945   2.403   0.977 -0.1639 -0.2752 -0.5084
 3472TIP3    H131831   3.902   2.484   0.949 -1.4507 -0.5478  0.6428
 3472TIP3    H231832   3.873   2.341   0.990  0.5299 -0.6590  1.7222
 3473TIP3   OH231833   0.742   5.561  15.784 -0.2700  0.1367 -0.1396
 3473TIP3    H131834   0.744   5.466  15.795  0.7808  0.1995  0.3236
 3473TIP3    H231835   0.764   5.575  15.692 -1.5340 -0.1051 -0.4853
 3474TIP3   OH231836   4.300   1.961   1.333 -0.1838 -0.0304 -0.8027
 3474TIP3    H131837   4.297   2.021   1.258 -2.8344 -2.3698 -2.6937
 3474TIP3    H231838   4.238   1.998   1.395 -0.4723  0.1474 -1.1939
 3475TIP3   OH231839   3.227   5.638  16.486 -0.5762  0.5436  0.0574
 3475TIP3    H131840   3.187   5.693  16.418  0.6076 -0.5488 -1.5566
 3475TIP3    H231841   3.269   5.701  16.545 -0.9879  1.4720 -0.6125
 3476TIP3   OH231842   3.889   6.666   5.947  0.1896  0.2049 -0.1481
 3476TIP3    H131843   3.906   6.617   5.867 -1.1993  0.8149 -0.8265
 3476TIP3    H231844   3.967   6.722   5.957 -0.2775  1.2187 -1.9053
 3477TIP3   OH231845   0.675   6.751  15.028 -0.2220 -0.1300  0.0584
 3477TIP3    H131846   0.592   6.798  15.019 -0.1920  0.1840  1.3562
 3477TIP3    H231847   0.714   6.755  14.940 -0.4018  1.9213  0.0380
 3478TIP3   OH231848   3.293   6.608  13.580 -0.2237 -0.3419  0.5269
 3478TIP3    H131849   3.292   6.701  13.606  0.7077  0.1034 -0.9768
 3478TIP3    H231850   3.224   6.600  13.515  1.4299 -0.1020 -1.2869
 3479TIP3   OH231851   0.863   1.624  15.886 -0.1953  0.5134  0.3036
 3479TIP3    H131852   0.932   1.571  15.927  0.3989 -0.0919 -1.4404
 3479TIP3    H231853   0.906   1.664  15.810 -1.3088  1.5193  0.1985
 3480TIP3   OH231854   5.681   5.145   0.134 -0.2845 -0.2333  0.1108
 3480TIP3    H131855   5.625   5.139   0.056  2.9921 -1.1297 -2.3106
 3480TIP3    H231856   5.700   5.054   0.157  1.1588  0.0385  0.0759
 3481TIP3   OH231857   1.464   0.015  15.474  0.4263 -0.2579 -0.3227
 3481TIP3    H131858   1.470  -0.072  15.435 -0.1771 -0.6236  0.3733
 3481TIP3    H231859   1.375   0.019  15.509 -0.1420  1.2881 -1.8617
 3482TIP3   OH231860   4.948   5.560  16.637  0.0126  0.2121 -0.3013
 3482TIP3    H131861   5.029   5.560  16.586  1.0668  1.4272  1.3037
 3482TIP3    H231862   4.937   5.470  16.665  1.4531  0.2366  0.4079
 3483TIP3   OH231863   1.105   6.191  11.285 -0.4809 -0.2466  0.5228
 3483TIP3    H131864   1.046   6.266  11.281 -1.9562 -1.3757  0.3609
 3483TIP3    H231865   1.113   6.161  11.194 -1.1191 -1.1735  0.7562
 3484TIP3   OH231866   6.749   1.132   3.299 -0.5354  0.0910 -0.2361
 3484TIP3    H131867   6.791   1.124   3.214 -0.5589  1.9664 -0.4542
 3484TIP3    H231868   6.657   1.114   3.283 -0.5693  0.6344 -0.6459
 3485TIP3   OH231869   2.539   5.392  15.540 -0.3333 -0.0821 -0.5085
 3485TIP3    H131870   2.577   5.309  15.513 -1.0847 -0.4806 -0.3675
 3485TIP3    H231871   2.555   5.396  15.634  0.3912  0.2965 -0.6511
 3486TIP3   OH231872   3.982   4.750   0.860  0.1830  0.1551 -0.0905
 3486TIP3    H131873   3.893   4.745   0.826  0.5074  0.6011 -1.0227
 3486TIP3    H231874   4.004   4.843   0.855  0.7022  0.0451  0.1456
 3487TIP3   OH231875   4.764   6.255  12.234 -0.1861  1.5503 -0.2167
 3487TIP3    H131876   4.682   6.206  12.231  1.0135 -0.4852 -0.4494
 3487TIP3    H231877   4.781   6.267  12.328 -1.4463  3.2289 -0.1754
 3488TIP3   OH231878   2.498   4.279  13.386 -0.6169 -0.7993 -0.3142
 3488TIP3    H131879   2.456   4.192  13.385  0.8966 -1.5365 -0.4523
 3488TIP3    H231880   2.473   4.318  13.302  0.9308 -2.1941 -1.4590
 3489TIP3   OH231881   2.896   4.693  12.216  0.0381 -0.1356 -0.3012
 3489TIP3    H131882   2.888   4.614  12.163  0.8566  1.4824 -2.8739
 3489TIP3    H231883   2.857   4.762  12.163  2.7143  1.9017  0.3003
 3490TIP3   OH231884   2.398   3.322  10.715 -0.1019  0.1859  0.2222
 3490TIP3    H131885   2.473   3.300  10.660 -0.8645 -0.2972 -0.6383
 3490TIP3    H231886   2.362   3.238  10.742 -1.5532  0.3668 -1.0545
 3491TIP3   OH231887   5.391   0.074   5.724 -0.0018 -0.3642 -0.0633
 3491TIP3    H131888   5.335   0.151   5.721  1.6519  0.8546 -0.3048
 3491TIP3    H231889   5.358   0.024   5.798  1.1735  2.4235  2.4739
 3492TIP3   OH231890   4.859   4.255  16.457 -0.0272  0.5108 -0.0886
 3492TIP3    H131891   4.791   4.216  16.403  0.2656  1.8685 -1.4660
 3492TIP3    H231892   4.814   4.322  16.508  0.0203  0.4429  0.0429
 3493TIP3   OH231893   6.260   4.157  10.887  0.5864 -0.3215 -0.3402
 3493TIP3    H131894   6.188   4.189  10.941  0.2535 -0.2280 -0.8349
 3493TIP3    H231895   6.338   4.170  10.941  0.3057  0.1485 -0.0433
 3494TIP3   OH231896   5.584   6.726  13.226  0.3151  0.2368  0.0296
 3494TIP3    H131897   5.611   6.791  13.162 -0.4133  0.3605 -0.1589
 3494TIP3    H231898   5.575   6.645  13.175  1.0632  0.0195  0.2344
 3495TIP3   OH231899   6.272   3.817   1.135 -0.1617 -0.0038 -0.2633
 3495TIP3    H131900   6.241   3.822   1.226  0.3214 -1.6306 -0.0050
 3495TIP3    H231901   6.280   3.909   1.108 -2.3821  0.4807  0.6208
 3496TIP3   OH231902   0.725   5.974   2.343  0.6808 -0.4479  0.4218
 3496TIP3    H131903   0.632   5.979   2.364  1.1955  0.4093  2.6336
 3496TIP3    H231904   0.729   5.990   2.249 -1.3579 -0.1169  0.3616
 3497TIP3   OH231905   3.179   1.058  12.776  0.3458  0.7050 -0.1090
 3497TIP3    H131906   3.142   0.992  12.835 -0.9491 -0.1555 -1.8264
 3497TIP3    H231907   3.215   1.007  12.703 -0.1911  1.8513 -1.1890
 3498TIP3   OH231908   4.532   1.440  12.841  1.0138 -0.3346  0.4228
 3498TIP3    H131909   4.537   1.507  12.773 -0.4063 -1.2045 -0.5787
 3498TIP3    H231910   4.549   1.487  12.922 -1.2369  1.5208 -0.1118
 3499TIP3   OH231911   0.460   2.861  12.417  0.2667  0.3309  0.6289
 3499TIP3    H131912   0.382   2.823  12.377  0.7581 -0.6050  0.5242
 3499TIP3    H231913   0.473   2.809  12.497  0.3005  1.0216  1.0708
 3500TIP3   OH231914   5.209   2.779  11.530  0.1369 -0.3409  0.2846
 3500TIP3    H131915   5.216   2.784  11.435  0.7810  4.4401  0.4906
 3500TIP3    H231916   5.139   2.841  11.552 -0.3372 -1.7589  2.9140
 3501TIP3   OH231917   3.437   6.321  13.948  0.8768  0.3450 -0.5979
 3501TIP3    H131918   3.513   6.314  13.890  1.5824  1.2233  0.2173
 3501TIP3    H231919   3.408   6.230  13.959  1.1616  0.1015 -1.7446
 3502TIP3   OH231920   2.391   5.264   2.995  0.0181 -0.0782  0.3576
 3502TIP3    H131921   2.401   5.211   3.075 -0.5919  0.7662  1.0093
 3502TIP3    H231922   2.470   5.247   2.945  1.0817  0.4775  1.8025
 3503TIP3   OH231923   3.681   3.193   0.692  0.3374  0.4810 -0.5052
 3503TIP3    H131924   3.619   3.244   0.638  1.3231 -0.1593 -2.2827
 3503TIP3    H231925   3.665   3.102   0.666  0.8036  0.1671  0.3278
 3504TIP3   OH231926   2.857   4.489  14.348  0.0794 -0.2946  0.4901
 3504TIP3    H131927   2.789   4.447  14.296 -1.2963  0.4656  1.6238
 3504TIP3    H231928   2.913   4.417  14.378 -0.1299 -0.9041 -0.5735
 3505TIP3   OH231929   1.874   1.089   0.244 -0.1776  0.6786  0.1162
 3505TIP3    H131930   1.931   1.059   0.174 -1.2722 -1.3454  0.0557
 3505TIP3    H231931   1.806   1.139   0.199  0.5816  1.6548  0.0251
 3506TIP3   OH231932   1.242   6.277   6.006  0.2543 -0.0545  0.5172
 3506TIP3    H131933   1.228   6.372   5.999  1.4476  0.3092  2.6706
 3506TIP3    H231934   1.249   6.261   6.100 -0.4185 -2.3708  0.1882
 3507TIP3   OH231935   6.690   1.780  12.388 -0.9472  0.2265 -0.5046
 3507TIP3    H131936   6.667   1.873  12.388 -0.1163  0.4454  0.2990
 3507TIP3    H231937   6.633   1.741  12.454 -1.1595  0.2086 -0.7008
 3508TIP3   OH231938   4.972   1.566  13.761  0.6379  0.0896 -0.0118
 3508TIP3    H131939   5.046   1.528  13.809 -0.0487 -1.0699  0.1503
 3508TIP3    H231940   4.945   1.640  13.815  1.3512  0.2062  0.1947
 3509TIP3   OH231941   3.396   5.820   1.270  0.1188  0.1232 -0.1156
 3509TIP3    H131942   3.355   5.772   1.198  2.0526 -1.0459 -0.4647
 3509TIP3    H231943   3.325   5.836   1.331 -1.5354  1.0053 -2.2056
 3510TIP3   OH231944   6.186   3.363  15.904  0.4357  0.1128  0.4277
 3510TIP3    H131945   6.212   3.327  15.988  1.4272 -0.9460 -0.3128
 3510TIP3    H231946   6.213   3.455  15.907 -1.1942  0.5759  1.9406
 3511TIP3   OH231947   3.747   3.135  13.655 -0.3142 -0.4107 -0.4447
 3511TIP3    H131948   3.727   3.211  13.600  0.1007  1.1758  1.5563
 3511TIP3    H231949   3.707   3.155  13.739  2.5182 -0.9583  1.0854
 3512TIP3   OH231950   5.172   6.549  16.699  0.3528 -0.3255 -0.0032
 3512TIP3    H131951   5.081   6.554  16.727 -0.2864  1.5965 -2.2744
 3512TIP3    H231952   5.170   6.494  16.621  1.4165 -1.7330  0.9321
 3513TIP3   OH231953   4.273   1.398   3.055 -0.0345 -0.0000 -0.1918
 3513TIP3    H131954   4.320   1.434   3.130  1.7800 -2.2386 -0.1974
 3513TIP3    H231955   4.195   1.357   3.094  1.2585 -1.7851  0.6188
 3514TIP3   OH231956   0.683   1.407   4.062 -0.0236 -0.6071 -0.0694
 3514TIP3    H131957   0.604   1.385   4.111  0.6031 -1.7985  0.4514
 3514TIP3    H231958   0.737   1.455   4.125 -0.0269 -0.4487 -0.1880
 3515TIP3   OH231959   1.324   4.848  16.660  0.4480  0.9919 -0.0127
 3515TIP3    H131960   1.304   4.824  16.751  1.1741 -0.3573 -0.1925
 3515TIP3    H231961   1.285   4.778  16.608  1.2678  1.0090 -0.6560
 3516TIP3   OH231962   4.983   4.586  16.886 -0.5120  0.2743 -0.1257
 3516TIP3    H131963   5.014   4.498  16.865 -0.7861  0.5050 -1.5129
 3516TIP3    H231964   4.945   4.577  16.973 -0.7028 -1.0259 -0.3268
 3517TIP3   OH231965   2.006   2.994  15.852 -0.3152 -0.2951  0.1282
 3517TIP3    H131966   1.999   2.985  15.947  1.6195  0.2294  0.3522
 3517TIP3    H231967   2.091   3.037  15.839  0.0783 -1.6379 -1.8999
 3518TIP3   OH231968   4.896   1.925  15.697 -0.2404  0.0885 -0.5252
 3518TIP3    H131969   4.844   1.844  15.702 -1.6405  1.0559  0.9187
 3518TIP3    H231970   4.832   1.994  15.684  1.0006  0.9578 -2.2431
 3519TIP3   OH231971   6.146   5.350  12.636  0.2373  0.1549  0.0425
 3519TIP3    H131972   6.147   5.315  12.547 -0.0951 -0.3308  0.2273
 3519TIP3    H231973   6.064   5.318  12.673  0.7533 -0.3075  0.7918
 3520TIP3   OH231974   3.443   6.092  15.239 -0.2153  0.2765  0.0726
 3520TIP3    H131975   3.437   6.171  15.186  0.9288  0.7128  0.5806
 3520TIP3    H231976   3.375   6.034  15.204  0.1033  0.8005 -1.4553
 3521TIP3   OH231977   1.918   3.178   1.076  0.2596 -0.2634 -0.4815
 3521TIP3    H131978   1.962   3.108   1.029  0.1721 -1.1728  0.7656
 3521TIP3    H231979   1.978   3.253   1.071  1.1935 -0.9895 -0.2233
 3522TIP3   OH231980   0.282   5.310  14.758  0.5888 -0.3821  0.3875
 3522TIP3    H131981   0.194   5.349  14.758 -0.0740 -1.8612  0.3037
 3522TIP3    H231982   0.306   5.306  14.665  0.3866 -0.7766  0.3519
 3523TIP3   OH231983   4.584   5.677  16.924 -0.6145  0.1161 -0.1806
 3523TIP3    H131984   4.554   5.695  17.013  0.8371 -2.0890  0.7864
 3523TIP3    H231985   4.674   5.709  16.921 -0.5026 -0.2274 -0.6972
 3524TIP3   OH231986   1.570   6.460  17.181 -0.7151 -0.1638  0.4978
 3524TIP3    H131987   1.479   6.449  17.154 -1.4499  1.3611  2.2970
 3524TIP3    H231988   1.578   6.408  17.260  0.2926 -1.1777 -0.2549
 3525TIP3   OH231989   0.925   5.193  15.182 -0.0585 -0.2759  0.0862
 3525TIP3    H131990   0.951   5.162  15.095 -1.6910 -0.6232 -0.2871
 3525TIP3    H231991   1.006   5.225  15.221  0.8499 -0.9320 -1.2276
 3526TIP3   OH231992   0.520   2.605   4.468  0.1460  0.2189  0.5560
 3526TIP3    H131993   0.534   2.518   4.432 -1.6950 -0.2657  0.9536
 3526TIP3    H231994   0.425   2.615   4.470  0.2843  1.3406  2.6722
 3527TIP3   OH231995   1.896   1.928   4.511 -0.3744  0.2604 -0.1892
 3527TIP3    H131996   1.858   1.952   4.427 -0.7837 -0.8794 -0.3264
 3527TIP3    H231997   1.987   1.907   4.491 -1.0261 -2.2243 -0.7425
 3528TIP3   OH231998   5.539   1.461  16.139  0.1459 -0.3637 -0.7980
 3528TIP3    H131999   5.463   1.452  16.197  0.2486  0.2962 -0.5633
 3528TIP3    H232000   5.614   1.447  16.197  0.1969 -1.6273 -1.1462
 3529TIP3   OH232001   0.829   1.028   2.888  0.2795  0.0191  0.3379
 3529TIP3    H132002   0.814   0.972   2.965  2.3887  1.2584  1.7215
 3529TIP3    H232003   0.922   1.013   2.867 -0.0546  0.3833 -1.4233
 3530TIP3   OH232004   0.641   0.472   5.309  0.6389 -0.2115 -0.1821
 3530TIP3    H132005   0.734   0.450   5.312  0.6074 -0.3084  0.0772
 3530TIP3    H232006   0.604   0.432   5.387  0.8571  2.0318  1.1036
 3531TIP3   OH232007   5.465   1.429   3.807 -0.1748 -0.1981  0.1164
 3531TIP3    H132008   5.393   1.492   3.803  0.8132  0.9884  0.6166
 3531TIP3    H232009   5.543   1.482   3.789  0.5123 -1.5672 -0.9606
 3532TIP3   OH232010   1.520   3.421   4.764 -0.5833 -0.5644 -0.1497
 3532TIP3    H132011   1.446   3.371   4.799 -2.1069  1.9228  0.2841
 3532TIP3    H232012   1.532   3.493   4.826  1.8455 -0.5980 -0.5387
 3533TIP3   OH232013   4.205   2.193  12.986  1.1143 -0.3111  0.3649
 3533TIP3    H132014   4.153   2.219  12.910  1.8595 -1.7948 -0.6665
 3533TIP3    H232015   4.148   2.209  13.061  0.4897  1.4786 -0.4657
 3534TIP3   OH232016   0.570   5.705   5.979  0.0845  0.3000  0.4018
 3534TIP3    H132017   0.483   5.742   5.964 -0.8918 -2.3147 -0.6352
 3534TIP3    H232018   0.603   5.687   5.892  1.9563  1.8422  0.7699
 3535TIP3   OH232019   2.825   5.148  14.628 -0.5506  0.3158  0.4972
 3535TIP3    H132020   2.839   5.101  14.711 -0.0285  0.6145  0.5765
 3535TIP3    H232021   2.766   5.220  14.652 -0.5219  0.3133  0.5768
 3536TIP3   OH232022   5.521   0.687  15.198  0.1652  0.0041 -0.0012
 3536TIP3    H132023   5.488   0.767  15.157  2.6896 -0.2070 -2.6661
 3536TIP3    H232024   5.597   0.716  15.250  0.8046 -0.5649 -0.5986
 3537TIP3   OH232025   6.720   5.797  11.262  0.3424  0.6695 -0.4294
 3537TIP3    H132026   6.697   5.872  11.316  2.4304 -0.4551  2.1150
 3537TIP3    H232027   6.653   5.731  11.284  0.1905  0.7952 -0.5111
 3538TIP3   OH232028   2.457   0.339  13.989 -0.3828 -0.5379  0.2622
 3538TIP3    H132029   2.395   0.410  13.977  0.0848 -0.2008 -0.1829
 3538TIP3    H232030   2.421   0.288  14.062  0.0807  1.0196  1.6177
 3539TIP3   OH232031   1.040   4.824   0.645  0.2574  0.2925 -0.3350
 3539TIP3    H132032   1.086   4.763   0.703  1.8269  0.0926 -1.7711
 3539TIP3    H232033   1.066   4.911   0.677  0.6971  0.1869 -0.4059
 3540TIP3   OH232034   2.726   1.576  11.382 -0.0986  0.2479 -0.1132
 3540TIP3    H132035   2.781   1.653  11.400  1.1558 -0.4418 -0.9701
 3540TIP3    H232036   2.736   1.561  11.288  0.3766 -1.5039  0.2143
 3541TIP3   OH232037   3.291   3.196  13.186 -0.1077 -0.3574  0.5311
 3541TIP3    H132038   3.285   3.220  13.094  0.1997 -1.3222  0.2529
 3541TIP3    H232039   3.205   3.158  13.206  0.0046 -0.6311  0.4990
 3542TIP3   OH232040   5.818   5.312  14.056 -0.1451  0.1968  0.4452
 3542TIP3    H132041   5.876   5.372  14.104 -1.1940 -0.1221  2.1522
 3542TIP3    H232042   5.759   5.277  14.123 -2.0435  0.1831 -1.1764
 3543TIP3   OH232043   0.972   1.097   0.816 -0.5878  0.7857 -0.1915
 3543TIP3    H132044   0.962   1.009   0.779 -1.8929  0.7281  0.2939
 3543TIP3    H232045   1.057   1.094   0.860 -1.1248 -0.5769  0.7770
 3544TIP3   OH232046   2.418   3.918   2.134  0.4072 -0.0802 -0.1259
 3544TIP3    H132047   2.375   3.832   2.137 -0.0177  0.1760  2.0365
 3544TIP3    H232048   2.351   3.977   2.100  0.6105 -0.5483 -1.3574
 3545TIP3   OH232049   1.374   4.318   2.905 -0.0747  0.0479  0.3176
 3545TIP3    H132050   1.449   4.367   2.939 -0.7033  1.0067  0.3467
 3545TIP3    H232051   1.356   4.252   2.971  0.6605 -0.1027  0.3731
 3546TIP3   OH232052   2.510   4.195  15.006 -0.1921  0.0305  0.3287
 3546TIP3    H132053   2.462   4.264  15.051  0.0209 -0.1339  0.8032
 3546TIP3    H232054   2.602   4.217  15.020 -0.1189 -0.8648  1.2658
 3547TIP3   OH232055   4.827   6.027   5.774  0.2505 -0.1117 -0.3677
 3547TIP3    H132056   4.912   6.017   5.730  1.0098  2.4424  0.4251
 3547TIP3    H232057   4.849   6.052   5.863 -1.3426 -2.2809  0.6871
 3548TIP3   OH232058   2.110   3.393   5.681  0.0828 -0.7592 -0.2366
 3548TIP3    H132059   2.039   3.392   5.617  0.6387 -1.9291 -0.8407
 3548TIP3    H232060   2.080   3.336   5.751 -0.5346  0.5369  0.5727
 3549TIP3   OH232061   2.548   6.552   3.680 -0.3805  0.6424 -0.0768
 3549TIP3    H132062   2.494   6.473   3.678  0.3687  0.0970  0.8833
 3549TIP3    H232063   2.497   6.617   3.633 -1.9137  0.1597  0.8895
 3550TIP3   OH232064   3.089   5.443  12.582  0.1627  0.0756  0.6471
 3550TIP3    H132065   3.120   5.373  12.639  0.3911 -0.2198  0.1649
 3550TIP3    H232066   3.125   5.421  12.495 -0.2281  0.4869  0.3791
 3551TIP3   OH232067   3.207   3.300  15.458  0.3213 -0.1113 -0.0130
 3551TIP3    H132068   3.204   3.329  15.549  0.4755  0.0786 -0.0677
 3551TIP3    H232069   3.120   3.266  15.440 -0.1312  1.1204 -0.2135
 3552TIP3   OH232070   4.787   6.149  15.788  0.3207  0.0271 -0.0424
 3552TIP3    H132071   4.842   6.199  15.849  1.0609 -0.1103 -0.5955
 3552TIP3    H232072   4.811   6.182  15.701  0.9974 -1.4597 -0.4342
 3553TIP3   OH232073   6.304   2.799  12.942  0.0123  0.7403  0.0727
 3553TIP3    H132074   6.287   2.893  12.938 -2.1189  0.3453 -1.3079
 3553TIP3    H232075   6.292   2.776  13.034 -0.7836  1.6110  0.1940
 3554TIP3   OH232076   5.366   0.433  16.381 -0.2467  0.2687  0.0089
 3554TIP3    H132077   5.294   0.472  16.331  0.7342  1.5525 -0.4093
 3554TIP3    H232078   5.383   0.495  16.451 -0.1017 -0.4450  0.6096
 3555TIP3   OH232079   6.493   1.008  13.681 -0.6730  0.4747  0.1476
 3555TIP3    H132080   6.480   1.006  13.586 -1.8554 -0.2663  0.3194
 3555TIP3    H232081   6.567   0.950  13.696 -0.6425  0.3948 -0.2981
 3556TIP3   OH232082   5.086   2.584   4.512  0.1527  0.6447 -0.2034
 3556TIP3    H132083   5.076   2.527   4.435  1.7453 -1.0990  0.8512
 3556TIP3    H232084   5.179   2.603   4.516 -0.1632  2.1271  0.3276
 3557TIP3   OH232085   0.311   5.058  11.299 -0.1628 -0.0574 -0.4315
 3557TIP3    H132086   0.298   5.093  11.387 -0.6805  1.3328 -1.0381
 3557TIP3    H232087   0.254   5.112  11.244 -2.9826 -3.5350 -1.0575
 3558TIP3   OH232088   5.345   5.460  12.034  0.1072  0.1770 -0.3525
 3558TIP3    H132089   5.424   5.499  12.071  0.7341 -1.2965 -0.1034
 3558TIP3    H232090   5.273   5.505  12.079  0.8242  0.2112  0.7791
 3559TIP3   OH232091   0.550   1.680   6.523  0.0217 -0.1105 -0.8086
 3559TIP3    H132092   0.463   1.703   6.491 -0.4209  0.2968  0.6560
 3559TIP3    H232093   0.552   1.584   6.521 -0.8848 -0.1673  0.2005
 3560TIP3   OH232094   3.315   5.541   4.083 -0.0316 -0.2868 -0.4545
 3560TIP3    H132095   3.251   5.485   4.039 -0.2125 -0.3032 -0.1715
 3560TIP3    H232096   3.346   5.489   4.157 -1.0145  0.3944  0.4561
 3561TIP3   OH232097   5.876   1.623   3.068  0.2018  0.1581 -0.2066
 3561TIP3    H132098   5.798   1.573   3.043  1.0854 -0.2072 -2.3088
 3561TIP3    H232099   5.880   1.696   3.007  0.6035  1.1276  0.9459
 3562TIP3   OH232100   2.111   4.961  13.690 -0.7943 -0.6488 -0.5769
 3562TIP3    H132101   2.152   5.047  13.681 -0.8326 -0.5904 -0.2012
 3562TIP3    H232102   2.118   4.940  13.783 -0.0845 -1.4077 -0.7927
 3563TIP3   OH232103   5.083   6.357  13.452  0.2238  0.7041  0.4729
 3563TIP3    H132104   4.997   6.322  13.427  0.5710  0.7638 -0.8540
 3563TIP3    H232105   5.108   6.307  13.529 -0.9951  0.6742  0.8634
 3564TIP3   OH232106   4.234   0.839  12.250  0.7905 -0.2343 -0.1458
 3564TIP3    H132107   4.242   0.934  12.244 -0.8562 -0.0211  0.8504
 3564TIP3    H232108   4.223   0.810  12.160  0.0443  0.6425 -0.3468
 3565TIP3   OH232109   2.190   2.395  16.168 -0.2182 -0.2984 -0.1879
 3565TIP3    H132110   2.203   2.489  16.153 -1.8233 -0.0304  0.0640
 3565TIP3    H232111   2.212   2.382  16.260 -1.0575  0.0231  0.0559
 3566TIP3   OH232112   3.957   0.867  14.028  0.0505  0.4012 -0.3059
 3566TIP3    H132113   3.966   0.865  14.123 -0.6801 -0.3672 -0.2546
 3566TIP3    H232114   3.877   0.918  14.012 -0.9189 -1.1345 -0.4348
 3567TIP3   OH232115   1.819   5.134   2.431  0.5803  0.7015 -0.4154
 3567TIP3    H132116   1.890   5.109   2.489  1.6136  0.7910 -1.6148
 3567TIP3    H232117   1.758   5.182   2.487  3.3900  4.2014 -0.1024
 3568TIP3   OH232118   2.833   1.048  13.557  0.0404 -0.1066 -0.6185
 3568TIP3    H132119   2.895   1.112  13.523  0.5562 -0.8655 -1.1102
 3568TIP3    H232120   2.881   1.001  13.626 -0.1333 -0.3755 -0.6772
 3569TIP3   OH232121   5.300   2.666  15.487  0.4699 -0.0010 -0.0312
 3569TIP3    H132122   5.306   2.584  15.437  0.1518 -1.8104  2.7766
 3569TIP3    H232123   5.219   2.706  15.458  1.0793 -0.1916 -2.1116
 3570TIP3   OH232124   6.174   1.486   4.771  0.5340  0.8186  0.2979
 3570TIP3    H132125   6.219   1.570   4.771 -0.0724  1.1458  0.6698
 3570TIP3    H232126   6.231   1.427   4.820  1.6080  0.6566 -1.1127
 3571TIP3   OH232127   0.715   2.773   0.499 -0.1064 -0.1891  0.5197
 3571TIP3    H132128   0.628   2.735   0.509  0.8006 -1.9699  2.1131
 3571TIP3    H232129   0.709   2.859   0.540 -1.5407  0.4190 -0.9180
 3572TIP3   OH232130   2.025   3.426  15.693  0.9379  0.3504 -0.1497
 3572TIP3    H132131   2.011   3.366  15.619 -1.9744 -0.3718  0.8983
 3572TIP3    H232132   1.981   3.507  15.667 -1.5870 -0.4563  1.3953
 3573TIP3   OH232133   4.222   1.955  14.315  0.5505  0.0707  0.1265
 3573TIP3    H132134   4.274   2.011  14.373  1.5357  0.6229 -1.2577
 3573TIP3    H232135   4.160   1.912  14.373 -1.3348  3.7886  1.0425
 3574TIP3   OH232136   0.491   2.312   3.921  0.5048  0.6302 -0.3959
 3574TIP3    H132137   0.396   2.300   3.920  0.4510  0.9681  0.1762
 3574TIP3    H232138   0.503   2.407   3.926  0.8835  0.6314 -1.3450
 3575TIP3   OH232139   3.947   5.269   5.807  0.2655  0.4955  0.0602
 3575TIP3    H132140   3.891   5.291   5.732 -1.0914 -2.4751  0.1310
 3575TIP3    H232141   3.898   5.299   5.883  0.3549  0.9426 -0.0530
 3576TIP3   OH232142   2.319   4.011  16.616  0.1439  0.2774 -0.1003
 3576TIP3    H132143   2.329   4.005  16.521  0.2227  0.9715 -0.1447
 3576TIP3    H232144   2.409   4.006  16.650  0.1489  0.4152 -0.0916
 3577TIP3   OH232145   1.843   3.355  17.001 -0.1084  0.5521  0.9035
 3577TIP3    H132146   1.853   3.424  17.066 -1.2701  1.5593  0.0325
 3577TIP3    H232147   1.769   3.383  16.948  0.8479 -0.2468 -0.8848
 3578TIP3   OH232148   0.724   5.670   3.229 -0.1342 -0.2675 -0.9498
 3578TIP3    H132149   0.636   5.683   3.264  0.8019  0.3884  1.2401
 3578TIP3    H232150   0.717   5.698   3.138 -1.7849  1.4578 -0.3310
 3579TIP3   OH232151   3.251   0.109   0.231 -0.3310  0.7191 -0.1531
 3579TIP3    H132152   3.156   0.120   0.231 -0.5473 -0.8982 -0.0593
 3579TIP3    H232153   3.274   0.094   0.139 -0.5092 -1.2502  0.0883
 3580TIP3   OH232154   5.064   6.377   0.391 -0.4597  0.1429 -0.0900
 3580TIP3    H132155   5.065   6.297   0.443  0.4782 -0.5359 -1.1347
 3580TIP3    H232156   5.006   6.436   0.439 -0.3715 -0.8060  1.2101
 3581TIP3   OH232157   4.563   3.630   2.493 -0.1427 -0.3511 -0.1487
 3581TIP3    H132158   4.470   3.607   2.493 -0.3793  0.5979 -0.5901
 3581TIP3    H232159   4.597   3.592   2.412 -0.1887 -0.5116 -0.0942
 3582TIP3   OH232160   3.242   5.951   3.609  0.0987 -0.1266 -0.2683
 3582TIP3    H132161   3.272   5.877   3.662  1.1585 -0.1355 -0.8481
 3582TIP3    H232162   3.292   5.944   3.527 -0.8292  0.4131 -0.8999
 3583TIP3   OH232163   2.119   0.386   5.614  0.0081  0.1443 -0.1963
 3583TIP3    H132164   2.080   0.453   5.670  0.9049 -0.1454  0.7970
 3583TIP3    H232165   2.116   0.306   5.667  3.0129  0.3593  0.4291
 3584TIP3   OH232166   0.809   4.274  11.765  0.6831 -0.7384 -0.0773
 3584TIP3    H132167   0.788   4.244  11.854 -0.0461 -2.0055 -0.6663
 3584TIP3    H232168   0.794   4.197  11.710  1.0042  0.0847 -1.3185
 3585TIP3   OH232169   0.315   4.713   4.870 -0.3945  0.3618  0.1675
 3585TIP3    H132170   0.264   4.728   4.791  1.1930 -0.3757 -1.0163
 3585TIP3    H232171   0.406   4.721   4.842  0.1725  2.9400  2.4809
 3586TIP3   OH232172   1.435   1.651   4.880 -0.2242 -0.1333  0.0616
 3586TIP3    H132173   1.343   1.624   4.875 -0.7416  1.6623 -0.9375
 3586TIP3    H232174   1.460   1.635   4.971 -1.5101 -0.7288  0.3219
 3587TIP3   OH232175   6.071   4.356  14.416 -0.2064 -0.5536 -0.0966
 3587TIP3    H132176   6.114   4.419  14.358 -1.4012 -1.0137 -1.5154
 3587TIP3    H232177   6.009   4.408  14.467 -1.8154 -0.6680 -1.8737
 3588TIP3   OH232178   3.854   0.265   2.105  0.2817 -0.1025  0.0309
 3588TIP3    H132179   3.766   0.239   2.076  0.4702 -1.1400  0.3667
 3588TIP3    H232180   3.867   0.218   2.187  0.2400  1.8677  1.2005
 3589TIP3   OH232181   3.381   0.111   4.208 -0.2524 -0.4726 -0.0392
 3589TIP3    H132182   3.399   0.204   4.220 -1.3913 -0.1299 -0.9950
 3589TIP3    H232183   3.464   0.068   4.230  0.0705  0.6982  1.1358
 3590TIP3   OH232184   0.768   1.583  14.279 -0.1878 -0.6721 -0.1648
 3590TIP3    H132185   0.728   1.667  14.299  1.0460 -0.0705 -0.2188
 3590TIP3    H232186   0.742   1.526  14.351 -0.8357 -0.1926 -0.0164
 3591TIP3   OH232187   2.741   3.993  15.632  0.1758  0.4684 -0.4503
 3591TIP3    H132188   2.836   4.001  15.641  0.3014  1.2031 -2.2036
 3591TIP3    H232189   2.728   3.900  15.611  0.3110 -0.0699  1.6927
 3592TIP3   OH232190   2.747   2.261   3.853  0.0343  0.0154 -0.5729
 3592TIP3    H132191   2.790   2.176   3.867 -2.6619 -1.1791  0.9751
 3592TIP3    H232192   2.792   2.321   3.913  0.0076 -1.0575  0.5595
 3593TIP3   OH232193   3.035   3.221   4.940  0.2638 -0.0146  0.7039
 3593TIP3    H132194   3.033   3.313   4.913 -0.8276 -0.0013  0.8046
 3593TIP3    H232195   3.040   3.172   4.857  0.9510  0.1407  0.6562
 3594TIP3   OH232196   6.438   4.711  12.802  0.2393 -0.2368 -0.3355
 3594TIP3    H132197   6.426   4.766  12.880  2.8853  0.1221 -0.1218
 3594TIP3    H232198   6.482   4.632  12.835 -0.2393 -0.8682 -1.2011
 3595TIP3   OH232199   3.044   3.654   2.302  0.4175  0.2740 -0.0140
 3595TIP3    H132200   3.029   3.560   2.312  2.3752  0.0970  1.5322
 3595TIP3    H232201   3.078   3.664   2.213 -0.4029 -0.3710 -0.4156
 3596TIP3   OH232202   3.614   0.963  12.791  0.3188 -0.3582 -1.0549
 3596TIP3    H132203   3.693   0.929  12.749 -0.9777 -2.8053 -1.6411
 3596TIP3    H232204   3.630   0.950  12.885 -0.0156 -2.4138 -1.2466
 3597TIP3   OH232205   3.065   5.062  11.621 -0.3547  0.5395 -0.2661
 3597TIP3    H132206   3.128   5.104  11.563  1.2675  0.9385  1.7349
 3597TIP3    H232207   3.091   5.089  11.709  0.4903 -4.2180  1.1173
 3598TIP3   OH232208   2.778   2.545  16.240 -0.2778  0.0036 -0.2212
 3598TIP3    H132209   2.689   2.524  16.212 -0.8363  0.6362  1.0206
 3598TIP3    H232210   2.800   2.475  16.302  1.0390 -1.5271 -2.3595
 3599TIP3   OH232211   6.523   5.266  15.855  0.6037  0.1485 -0.2568
 3599TIP3    H132212   6.458   5.207  15.894 -0.4403  1.7073  0.3860
 3599TIP3    H232213   6.472   5.341  15.825  2.2112  1.6921  0.8319
 3600TIP3   OH232214   0.509   3.984   3.185 -0.3684 -0.0710  0.2120
 3600TIP3    H132215   0.530   3.919   3.117 -1.3323 -1.1272  0.9034
 3600TIP3    H232216   0.421   4.013   3.164 -0.3014  0.3189  0.4670
 3601TIP3   OH232217   0.622   3.971   2.033  0.1348 -0.3596  0.7823
 3601TIP3    H132218   0.622   4.028   2.110  0.1812 -0.6274  0.9822
 3601TIP3    H232219   0.713   3.945   2.021  0.7358  2.5756 -1.5345
 3602TIP3   OH232220   6.752   6.164  16.289  0.0739 -0.0670 -0.2770
 3602TIP3    H132221   6.685   6.206  16.234  1.0740  2.2131  0.1891
 3602TIP3    H232222   6.789   6.095  16.233 -0.3778  0.8301 -1.7144
 3603TIP3   OH232223   4.093   1.692   2.749  0.4633  0.1616  0.3130
 3603TIP3    H132224   4.100   1.663   2.659 -0.4253 -0.8146  0.5549
 3603TIP3    H232225   4.028   1.762   2.747  0.8232  0.4922  0.1189
 3604TIP3   OH232226   6.422   4.957  16.184  0.0838  0.0099  0.3828
 3604TIP3    H132227   6.341   4.919  16.218 -0.4397  1.3267  0.6744
 3604TIP3    H232228   6.428   5.043  16.227  2.0444 -0.3878  0.9468
 3605TIP3   OH232229   4.737   2.309   4.633  0.8884  0.3558  0.0737
 3605TIP3    H132230   4.770   2.380   4.578  0.4195  1.5963  1.3829
 3605TIP3    H232231   4.659   2.277   4.588  0.4292  1.4597  0.0775
 3606TIP3   OH232232   2.546   1.507   3.443  0.3326 -0.1320 -0.2457
 3606TIP3    H132233   2.507   1.571   3.502  1.0771 -0.5535  0.7259
 3606TIP3    H232234   2.552   1.427   3.495  0.6306 -0.6216 -1.0208
 3607TIP3   OH232235   3.254   5.230   5.743 -0.5276 -0.2998  0.1251
 3607TIP3    H132236   3.331   5.262   5.791 -1.8047  1.3791  1.1570
 3607TIP3    H232237   3.241   5.141   5.774  0.3716 -0.2182  0.7466
 3608TIP3   OH232238   0.439   4.033   0.851  0.2275 -0.4079  0.2639
 3608TIP3    H132239   0.518   4.076   0.816  0.1069 -1.0553 -0.8403
 3608TIP3    H232240   0.373   4.102   0.853  0.4853 -0.1523  0.0594
 3609TIP3   OH232241   4.087   3.847   3.335  0.1037 -0.7348  0.0498
 3609TIP3    H132242   4.008   3.793   3.334 -0.7313  0.4480 -0.6379
 3609TIP3    H232243   4.147   3.802   3.394 -1.5858 -0.9554  1.6432
 3610TIP3   OH232244   1.971   6.145  14.663 -0.6121 -0.1749 -0.3546
 3610TIP3    H132245   2.049   6.091  14.648  0.5779  0.9659  1.5062
 3610TIP3    H232246   1.903   6.082  14.688 -0.3634 -1.2098 -2.2224
 3611TIP3   OH232247   4.723   5.657   5.845  0.4212  0.5703 -0.0933
 3611TIP3    H132248   4.762   5.594   5.785 -1.9931  0.7211 -1.8900
 3611TIP3    H232249   4.652   5.697   5.795 -2.9927 -0.7285  3.4349
 3612TIP3   OH232250   1.449   4.140   2.341 -0.2860 -0.3802  0.0599
 3612TIP3    H132251   1.523   4.120   2.283  0.0293 -2.3111  1.0866
 3612TIP3    H232252   1.393   4.063   2.336 -1.6551  0.6078  0.1675
 3613TIP3   OH232253   6.254   2.099  15.734  0.6306 -0.2319 -0.7208
 3613TIP3    H132254   6.290   2.184  15.759 -0.1560  0.5118 -2.0997
 3613TIP3    H232255   6.171   2.119  15.690 -0.4212 -1.7996  0.4660
 3614TIP3   OH232256   6.381   5.161   0.928  0.1203  0.2731  0.2447
 3614TIP3    H132257   6.460   5.215   0.927  1.1617 -1.2245 -0.5596
 3614TIP3    H232258   6.367   5.141   1.020  0.5418  0.7557  0.4143
 3615TIP3   OH232259   5.990   5.737  11.586 -0.9331  0.9127 -0.2375
 3615TIP3    H132260   5.903   5.724  11.623 -0.0506 -1.7728  0.9702
 3615TIP3    H232261   6.015   5.651  11.553  0.4703  2.1135 -2.3753
 3616TIP3   OH232262   0.114   3.403   4.295 -0.2898 -0.4146  0.0434
 3616TIP3    H132263   0.189   3.420   4.239 -1.0633  1.1067 -0.5883
 3616TIP3    H232264   0.087   3.490   4.325 -0.6353 -1.0957  1.8038
 3617TIP3   OH232265   2.955   3.183   3.043 -0.0577 -0.3330 -0.0179
 3617TIP3    H132266   2.905   3.235   3.106 -0.6618 -1.3239  0.3330
 3617TIP3    H232267   3.030   3.150   3.092 -0.8233 -1.5662  0.3558
 3618TIP3   OH232268   3.041   1.055   0.814 -0.1635  0.1818  0.3585
 3618TIP3    H132269   3.080   1.136   0.779 -0.9708  0.7034  0.6616
 3618TIP3    H232270   2.985   1.023   0.743 -0.3816  0.2531  0.5011
 3619TIP3   OH232271   2.138   2.614   5.506 -0.2463  0.0243  0.3668
 3619TIP3    H132272   2.128   2.616   5.411 -1.2602 -1.9635  0.4051
 3619TIP3    H232273   2.049   2.598   5.539  0.5675 -2.6140  1.4547
 3620TIP3   OH232274   0.397   5.107  15.750  0.0200  0.3039  0.4069
 3620TIP3    H132275   0.431   5.026  15.787 -0.2083  0.2484  0.5010
 3620TIP3    H232276   0.321   5.080  15.698 -0.3350  0.5042  0.8136
 3621TIP3   OH232277   4.019   0.902  11.525  0.4201  0.6772 -0.4224
 3621TIP3    H132278   4.022   0.934  11.435 -2.7880 -2.5345 -1.7696
 3621TIP3    H232279   4.098   0.848  11.533 -0.3167 -0.7043 -2.0497
 3622TIP3   OH232280   3.422   4.020  14.151  0.1029 -0.4377 -0.0414
 3622TIP3    H132281   3.341   4.069  14.139  0.1826 -0.4199 -0.5143
 3622TIP3    H232282   3.433   4.015  14.246  0.9157  1.8007  0.0071
 3623TIP3   OH232283   5.634   6.298  15.818  0.4768  0.3641  0.0676
 3623TIP3    H132284   5.695   6.302  15.745  2.0319 -0.1290  1.3178
 3623TIP3    H232285   5.582   6.219  15.801  1.0907  0.0375 -0.2958
 3624TIP3   OH232286   3.490   0.350   0.469  0.2320 -0.6004 -0.2444
 3624TIP3    H132287   3.414   0.303   0.503 -0.4296  0.2705 -0.4942
 3624TIP3    H232288   3.474   0.442   0.493  0.8677 -0.3189 -0.8895
 3625TIP3   OH232289   5.166   2.075  16.164  0.4596 -0.3409 -0.1693
 3625TIP3    H132290   5.226   2.085  16.089 -0.7906 -0.7471 -1.2507
 3625TIP3    H232291   5.151   1.980  16.169  1.8383 -0.4926  1.6661
 3626TIP3   OH232292   5.254   2.772  16.997  0.0141  0.0458  0.1050
 3626TIP3    H132293   5.318   2.769  16.926 -0.1466  2.3516 -0.1660
 3626TIP3    H232294   5.169   2.781  16.953 -0.5504 -2.9468  0.4635
 3627TIP3   OH232295   0.523   4.474  12.840 -0.2267 -0.2947  0.3059
 3627TIP3    H132296   0.552   4.439  12.924 -1.9499  1.0359  1.4920
 3627TIP3    H232297   0.429   4.485  12.850 -0.9640 -3.0163 -2.8928
 3628TIP3   OH232298   0.707   1.390  15.763  0.5930  0.0675  0.1175
 3628TIP3    H132299   0.760   1.469  15.769 -0.9354  1.2141 -1.0456
 3628TIP3    H232300   0.748   1.338  15.695  2.5170 -0.8998  1.9534
 3629TIP3   OH232301   3.530   2.196  14.598  0.1699 -0.5139  0.8234
 3629TIP3    H132302   3.585   2.245  14.537 -0.5252 -2.0921 -1.1395
 3629TIP3    H232303   3.440   2.214  14.569 -0.1832 -1.0666  1.5515
 3630TIP3   OH232304   5.938   4.135  12.804  0.2216  0.5745 -0.1520
 3630TIP3    H132305   6.027   4.115  12.832  0.1262  1.5089  0.8655
 3630TIP3    H232306   5.908   4.056  12.760  0.9771 -0.3314  0.9378
 3631TIP3   OH232307   0.133   6.035   5.658  0.5582  0.0288  0.5471
 3631TIP3    H132308   0.190   5.980   5.605  0.2218 -0.6094  0.8333
 3631TIP3    H232309   0.171   6.122   5.653  0.6249 -0.0653 -0.6041
 3632TIP3   OH232310   2.922   0.386  13.185  0.3966 -0.1445 -0.1972
 3632TIP3    H132311   2.884   0.471  13.207 -1.8367 -0.4644 -2.5478
 3632TIP3    H232312   2.870   0.323  13.235  1.4627 -0.1838  0.8544
 3633TIP3   OH232313   0.816   2.010   6.191 -0.7523  0.2042 -0.1443
 3633TIP3    H132314   0.746   1.948   6.209 -0.5105 -0.1592 -0.4407
 3633TIP3    H232315   0.772   2.089   6.159 -1.0492  0.1256  0.0764
 3634TIP3   OH232316   2.589   5.855   5.440  0.5231 -0.6676  0.2570
 3634TIP3    H132317   2.528   5.786   5.465  0.8342 -0.3605  1.9057
 3634TIP3    H232318   2.630   5.882   5.522 -0.1017  1.9797 -0.2410
 3635TIP3   OH232319   4.276   0.911   1.884 -0.2868  0.6156 -0.8420
 3635TIP3    H132320   4.345   0.916   1.818  2.4926 -0.5960  1.8327
 3635TIP3    H232321   4.267   1.000   1.916 -1.6320  1.2079 -2.7403
 3636TIP3   OH232322   6.242   5.527   4.025 -0.0501  0.1959 -0.0860
 3636TIP3    H132323   6.308   5.575   4.075 -1.0054  1.8794 -0.4003
 3636TIP3    H232324   6.288   5.498   3.946  0.3099  1.4540 -0.3533
 3637TIP3   OH232325   0.583   6.538   0.774 -0.2115  0.1094  0.3114
 3637TIP3    H132326   0.672   6.503   0.770  0.1518  0.7271  2.5356
 3637TIP3    H232327   0.537   6.478   0.833 -1.0115  0.3762 -0.0352
 3638TIP3   OH232328   1.271   0.123  12.098  0.4824 -0.0612 -0.7309
 3638TIP3    H132329   1.275   0.111  12.003  4.1733 -0.9101 -0.5272
 3638TIP3    H232330   1.326   0.053  12.134 -1.0198  0.1139  2.0793
 3639TIP3   OH232331   6.130   5.475   6.002  0.4600 -0.5970 -0.3088
 3639TIP3    H132332   6.081   5.501   6.080 -0.9280  1.6474 -1.8617
 3639TIP3    H232333   6.087   5.396   5.972 -1.7832  0.8973 -1.1840
 3640TIP3   OH232334   6.151   0.704   3.879 -0.3418 -0.4035  0.1173
 3640TIP3    H132335   6.217   0.663   3.933  1.3380  1.0937 -0.7533
 3640TIP3    H232336   6.194   0.782   3.842 -3.7296  2.8966  2.7257
 3641TIP3   OH232337   0.111   0.621  11.887  0.0954 -0.7935  0.3023
 3641TIP3    H132338   0.072   0.682  11.949 -0.5205  1.4103 -2.1339
 3641TIP3    H232339   0.035   0.577  11.847  0.3056 -0.1308 -0.8660
 3642TIP3   OH232340   1.593   2.653  16.422  0.5041 -0.3256 -0.5801
 3642TIP3    H132341   1.528   2.702  16.372  0.0257  0.9825  1.2476
 3642TIP3    H232342   1.545   2.625  16.501  1.6649 -0.8962 -0.0664
 3643TIP3   OH232343   6.533   2.910  16.948  0.1442  0.0875  0.5117
 3643TIP3    H132344   6.487   2.827  16.937 -0.9556  0.6544  0.7325
 3643TIP3    H232345   6.550   2.939  16.858 -1.8802  0.9277  0.3879
 3644TIP3   OH232346   6.425   5.912  11.080 -0.1764  0.5196  0.3591
 3644TIP3    H132347   6.359   5.932  11.014  0.8790  1.4600 -0.4182
 3644TIP3    H232348   6.405   5.822  11.108 -0.9487  0.3176 -0.8384
 3645TIP3   OH232349   1.095   3.539  15.865 -0.0580 -0.0114  0.0408
 3645TIP3    H132350   1.116   3.577  15.950 -0.3566 -1.4831  0.7902
 3645TIP3    H232351   1.036   3.602  15.824  0.7854  1.1174  0.5639
 3646TIP3   OH232352   1.753   6.613   4.269  0.4265 -0.5605 -0.0082
 3646TIP3    H132353   1.665   6.581   4.250  0.5157 -0.7760 -0.0570
 3646TIP3    H232354   1.752   6.704   4.239 -0.0053 -0.3395  0.6540
 3647TIP3   OH232355   4.729   0.643   0.097  0.7330  0.3889  0.1278
 3647TIP3    H132356   4.686   0.729   0.102 -0.4279 -0.2447  1.1126
 3647TIP3    H232357   4.702   0.598   0.177  0.6248 -1.2350 -0.8189
 3648TIP3   OH232358   2.190   6.027  10.552 -0.4680  0.3573 -0.0460
 3648TIP3    H132359   2.253   6.025  10.624 -0.4884  1.8706  0.0337
 3648TIP3    H232360   2.226   5.966  10.487  0.8726  0.9026  0.1652
 3649TIP3   OH232361   3.715   0.989  13.942  0.1783 -0.0515 -0.5880
 3649TIP3    H132362   3.678   0.904  13.922  0.3020 -1.2177  3.7719
 3649TIP3    H232363   3.652   1.031  14.000  0.7762  2.2677 -1.5303
 3650TIP3   OH232364   2.534   4.001   4.959  0.2299  0.2098 -0.3728
 3650TIP3    H132365   2.629   3.995   4.966  0.2675  0.8488 -0.3215
 3650TIP3    H232366   2.502   3.925   5.008  0.6645  1.2689  1.6178
 3651TIP3   OH232367   3.485   4.591   5.965  0.1678  0.2179 -0.3502
 3651TIP3    H132368   3.396   4.617   5.988 -0.3414 -0.7274 -1.1968
 3651TIP3    H232369   3.505   4.642   5.887 -0.5105 -1.2608 -1.5095
 3652TIP3   OH232370   3.257   0.892  13.553  0.0480  0.6362 -0.1618
 3652TIP3    H132371   3.210   0.871  13.633 -0.6969 -0.6136 -0.9053
 3652TIP3    H232372   3.247   0.986  13.542 -0.6745  0.6619  0.6940
 3653TIP3   OH232373   6.072   5.303   0.485  0.2374 -0.0094  0.2895
 3653TIP3    H132374   6.097   5.392   0.508  0.3383 -0.0225  0.2277
 3653TIP3    H232375   6.111   5.249   0.554  2.9116 -0.3300 -1.4218
 3654TIP3   OH232376   4.438   4.112  11.547  0.3375 -0.2112  0.3449
 3654TIP3    H132377   4.394   4.188  11.509 -1.6211 -0.4206  2.0798
 3654TIP3    H232378   4.383   4.038  11.522  2.0099 -1.0294 -0.9743
 3655TIP3   OH232379   0.122   5.852   0.458  0.0475  0.4073 -0.4692
 3655TIP3    H132380   0.082   5.876   0.375 -0.5448 -1.4369 -0.7427
 3655TIP3    H232381   0.095   5.921   0.519 -1.9085  0.2355 -1.1163
 3656TIP3   OH232382   3.445   5.591   1.945 -0.1869 -0.3413  0.0622
 3656TIP3    H132383   3.488   5.661   1.894  0.5501 -0.6892  0.1948
 3656TIP3    H232384   3.487   5.595   2.031  0.3396 -1.3795 -0.1334
 3657TIP3   OH232385   4.978   0.150  16.672  0.1936 -0.6341 -0.2223
 3657TIP3    H132386   4.945   0.071  16.629  0.7456 -0.0635 -1.7124
 3657TIP3    H232387   5.025   0.197  16.603 -1.3077  1.7063  0.3146
 3658TIP3   OH232388   4.384   6.643  10.674  0.0202  0.3181 -0.2182
 3658TIP3    H132389   4.355   6.708  10.610 -0.1880  0.4426  0.0044
 3658TIP3    H232390   4.399   6.564  10.622  0.4448  0.5888 -0.5195
 3659TIP3   OH232391   5.635   2.832   4.716 -0.1522 -0.0719  0.2088
 3659TIP3    H132392   5.721   2.792   4.708  0.0059  0.3287 -0.1194
 3659TIP3    H232393   5.600   2.797   4.798  0.0975 -0.6571  0.0688
 3660TIP3   OH232394   6.018   4.574  16.835  0.1888  0.1861 -0.1239
 3660TIP3    H132395   6.034   4.662  16.799 -0.7025 -0.0248 -1.0843
 3660TIP3    H232396   6.059   4.575  16.921  1.2581  1.1453 -0.6230
 3661TIP3   OH232397   2.600   6.085  13.399 -0.2392  0.0516  0.9014
 3661TIP3    H132398   2.633   5.997  13.416  0.2107 -0.0018 -0.2085
 3661TIP3    H232399   2.671   6.143  13.426  0.5236 -0.0378 -0.8819
 3662TIP3   OH232400   0.314   1.644  13.436 -0.1953 -0.1622  0.2153
 3662TIP3    H132401   0.250   1.580  13.405 -0.3762 -1.1840  2.5868
 3662TIP3    H232402   0.393   1.592  13.452 -0.2106  0.2657  1.7295
 3663TIP3   OH232403   0.058   6.081  12.192 -0.7005 -0.1352  0.0436
 3663TIP3    H132404   0.066   6.075  12.097 -0.5796 -0.0925  0.0514
 3663TIP3    H232405  -0.031   6.116  12.206 -0.6644 -0.0004 -0.0584
 3664TIP3   OH232406   3.698   2.230  13.344 -0.0502 -0.3074  0.0283
 3664TIP3    H132407   3.651   2.304  13.304 -0.5990  0.1968  1.5465
 3664TIP3    H232408   3.697   2.250  13.438 -0.6503 -2.5021  0.5061
 3665TIP3   OH232409   0.668   0.564  11.480  0.6678 -0.4326 -0.2720
 3665TIP3    H132410   0.637   0.519  11.559  2.6451 -0.0891  0.7322
 3665TIP3    H232411   0.678   0.494  11.415  2.1112 -1.2133  0.7711
 3666TIP3   OH232412   1.188   6.614   3.395 -0.2155 -0.1460  0.6962
 3666TIP3    H132413   1.143   6.552   3.453 -0.2296 -0.0744  0.7626
 3666TIP3    H232414   1.186   6.573   3.309 -0.9840  0.1510  0.5647
 3667TIP3   OH232415   5.664   6.056  15.640  0.0951  0.7689 -0.1896
 3667TIP3    H132416   5.696   5.982  15.693 -0.0371  1.4958  0.9215
 3667TIP3    H232417   5.738   6.117  15.638  0.8554 -0.1932 -2.6513
 3668TIP3   OH232418   1.926   0.620   3.738 -0.0445 -0.9649  0.3084
 3668TIP3    H132419   1.897   0.553   3.678  0.7213 -3.2134  2.3626
 3668TIP3    H232420   2.018   0.599   3.756  0.1817  0.5524  1.0918
 3669TIP3   OH232421   4.169   5.506  13.117 -0.1682  0.2540 -0.0293
 3669TIP3    H132422   4.208   5.590  13.091  0.9661  0.5719  2.6348
 3669TIP3    H232423   4.110   5.485  13.044 -2.2406  4.4989  0.2012
 3670TIP3   OH232424   3.657   3.017  13.228 -0.3968 -0.4367 -0.0516
 3670TIP3    H132425   3.714   3.024  13.304  0.5206 -0.5756 -0.7216
 3670TIP3    H232426   3.576   2.979  13.262  0.0313 -0.5549  0.8413
 3671TIP3   OH232427   0.254   1.870   0.970  0.2462 -0.3261  0.5448
 3671TIP3    H132428   0.182   1.814   0.942 -0.0360  0.0322  0.5548
 3671TIP3    H232429   0.215   1.957   0.979  0.9935  0.1592 -0.8280
 3672TIP3   OH232430   5.848   4.841   5.090  0.2293  0.3834 -0.7102
 3672TIP3    H132431   5.910   4.772   5.114  0.5038  1.1449  0.8151
 3672TIP3    H232432   5.810   4.811   5.007  0.1898 -1.6917  0.0406
 3673TIP3   OH232433   6.395   2.226  11.659  0.4106 -0.0464 -0.8749
 3673TIP3    H132434   6.462   2.239  11.592  1.8503  0.2309  0.5907
 3673TIP3    H232435   6.395   2.131  11.675  2.8378  0.2816  1.4677
 3674TIP3   OH232436   1.221   4.328   0.937  0.2966  0.5583 -0.0263
 3674TIP3    H132437   1.275   4.264   0.982  0.6762 -0.7397 -2.2687
 3674TIP3    H232438   1.138   4.329   0.985  0.2812 -1.6411  0.0119
 3675TIP3   OH232439   1.247   2.982  14.161  0.8738 -0.3811 -0.4718
 3675TIP3    H132440   1.292   2.945  14.237  1.6947 -0.4867 -0.9981
 3675TIP3    H232441   1.304   3.054  14.132  0.1505  0.1845 -0.4890
 3676TIP3   OH232442   4.799   3.500   3.795  0.4257  0.0294 -0.0393
 3676TIP3    H132443   4.734   3.433   3.774  1.3235 -0.5096 -1.1359
 3676TIP3    H232444   4.751   3.583   3.792 -0.3312 -0.4183 -0.3036
 3677TIP3   OH232445   4.833   4.963   2.918 -0.2144  0.2248  0.3757
 3677TIP3    H132446   4.898   4.971   2.848  0.3669 -1.5599  0.6840
 3677TIP3    H232447   4.882   4.983   2.998 -0.9789  2.6804  0.2543
 3678TIP3   OH232448   4.824   2.948  15.885 -0.5990 -0.1666 -0.6807
 3678TIP3    H132449   4.729   2.961  15.878 -0.6727  0.4453  1.2459
 3678TIP3    H232450   4.862   3.035  15.871 -0.4081 -0.1450 -0.0518
 3679TIP3   OH232451   4.517   6.719   4.492  0.1018  0.2537  0.2788
 3679TIP3    H132452   4.493   6.762   4.410 -0.0858  0.8518  0.6409
 3679TIP3    H232453   4.439   6.671   4.518  0.3306 -0.3615 -0.1556
 3680TIP3   OH232454   4.631   5.456  11.182  0.0785  0.2403 -0.3254
 3680TIP3    H132455   4.537   5.475  11.188  0.3876  2.2141 -1.2649
 3680TIP3    H232456   4.651   5.463  11.089  0.8285 -1.9463 -0.3500
 3681TIP3   OH232457   2.735   4.705   4.864  0.8987 -0.6582  0.2316
 3681TIP3    H132458   2.748   4.708   4.770  0.1808  1.4829  0.1655
 3681TIP3    H232459   2.641   4.692   4.876  1.0044 -1.0519  0.6421
 3682TIP3   OH232460   6.688   2.169   2.174  0.1269  0.3086  0.2430
 3682TIP3    H132461   6.690   2.145   2.082 -0.4457  0.6711  0.1304
 3682TIP3    H232462   6.688   2.086   2.221 -0.0312  0.1160 -0.0977
 3683TIP3   OH232463   1.747   4.012   0.842  0.0370 -0.8411 -0.1437
 3683TIP3    H132464   1.782   3.926   0.816  1.2999 -0.8361  1.4862
 3683TIP3    H232465   1.803   4.040   0.913 -0.9213  0.9665 -0.0828
 3684TIP3   OH232466   0.383   3.958   3.630  0.2665 -0.0038  0.7457
 3684TIP3    H132467   0.305   4.009   3.649 -0.0646 -0.6954  1.3065
 3684TIP3    H232468   0.379   3.885   3.692 -0.5195 -2.0153 -1.5686
 3685TIP3   OH232469   5.893   6.389  13.882 -0.5223 -0.8309 -0.2644
 3685TIP3    H132470   5.961   6.382  13.949  0.2322 -0.4634 -0.9771
 3685TIP3    H232471   5.906   6.311  13.828  0.0661 -0.1878 -1.0654
 3686TIP3   OH232472   2.171   6.256  12.746 -0.1817  0.1098 -0.3452
 3686TIP3    H132473   2.178   6.196  12.820  0.1370 -0.9102 -1.1948
 3686TIP3    H232474   2.154   6.200  12.670 -1.2073  1.1991 -0.9466
 3687TIP3   OH232475   2.150   0.661  10.769 -0.2796  0.1633  0.3185
 3687TIP3    H132476   2.077   0.630  10.823 -1.9478  1.0225 -1.3639
 3687TIP3    H232477   2.226   0.615  10.803 -1.9098 -2.2110  0.9257
 3688TIP3   OH232478   3.618   2.745  10.413 -0.4187 -0.1546 -0.2654
 3688TIP3    H132479   3.648   2.830  10.380  0.7075  0.0785  1.3609
 3688TIP3    H232480   3.698   2.696  10.432 -1.0692 -0.8119  0.8091
 3689TIP3   OH232481   5.370   5.532   5.225  0.2008  0.0617  0.0446
 3689TIP3    H132482   5.300   5.471   5.250 -0.3695  1.0198  0.8223
 3689TIP3    H232483   5.408   5.493   5.146 -0.6278 -0.9279  0.1138
 3690TIP3   OH232484   1.963   4.058  12.968  0.2446 -0.8705  0.1457
 3690TIP3    H132485   2.046   4.064  13.016  0.4517  1.7403 -0.5028
 3690TIP3    H232486   1.901   4.106  13.023 -0.0529  0.1190 -1.0583
 3691TIP3   OH232487   1.349   3.357   5.562 -0.3553 -0.3607 -1.0869
 3691TIP3    H132488   1.266   3.355   5.611 -0.1279  0.0888 -0.6747
 3691TIP3    H232489   1.387   3.442   5.584 -0.4643  0.0395 -2.4171
 3692TIP3   OH232490   3.191   4.055   2.576 -0.5049 -0.5903 -0.3553
 3692TIP3    H132491   3.141   3.998   2.517 -0.7654  0.0552 -0.7655
 3692TIP3    H232492   3.276   4.066   2.533  0.3649 -2.4844  0.8200
 3693TIP3   OH232493   0.896   2.450   5.023 -0.2367  0.9002 -0.0420
 3693TIP3    H132494   0.982   2.477   5.057  0.1467 -0.3061 -0.0209
 3693TIP3    H232495   0.893   2.486   4.935  0.6185  0.3012 -0.3248
 3694TIP3   OH232496   5.666   5.615   3.996 -0.0575  0.0841 -0.3444
 3694TIP3    H132497   5.718   5.537   3.974 -1.1347 -0.0461 -2.6111
 3694TIP3    H232498   5.664   5.616   4.092  2.5143 -0.9541 -0.2430
 3695TIP3   OH232499   5.445   0.089   0.050 -0.2681 -0.0354  0.4132
 3695TIP3    H132500   5.513   0.148   0.017 -1.4999  0.7701 -0.7010
 3695TIP3    H232501   5.421   0.126   0.135  0.4824 -0.1669  0.6885
 3696TIP3   OH232502   1.155   4.192  10.126  0.7850  0.0996  0.5098
 3696TIP3    H132503   1.232   4.167  10.177  0.4244 -2.5026 -0.1352
 3696TIP3    H232504   1.089   4.212  10.192  0.8039 -1.6931  1.1156
 3697TIP3   OH232505   0.201   2.957  15.792 -0.2183 -0.1696 -0.1894
 3697TIP3    H132506   0.237   3.029  15.844 -1.8080 -1.1493  2.3648
 3697TIP3    H232507   0.147   3.000  15.725  0.6162  1.0683 -0.0791
 3698TIP3   OH232508   6.547   2.207   5.226 -0.2547 -1.1069 -0.3421
 3698TIP3    H132509   6.477   2.232   5.166 -0.1794  0.4666  0.1959
 3698TIP3    H232510   6.515   2.233   5.312  0.7841 -0.8293 -0.0343
 3699TIP3   OH232511   1.743   4.214  16.511 -0.1978 -0.3826 -0.4639
 3699TIP3    H132512   1.694   4.143  16.552 -0.5736 -0.2682 -0.7189
 3699TIP3    H232513   1.747   4.191  16.418 -0.3873 -0.0335 -0.5602
 3700TIP3   OH232514   5.801   3.540  12.185  0.0254  0.4407 -0.1802
 3700TIP3    H132515   5.720   3.568  12.228  0.7729  0.2463  1.4228
 3700TIP3    H232516   5.774   3.475  12.121 -1.0896  0.3443  0.3897
 3701TIP3   OH232517   3.904   1.083   1.929 -0.3458  0.7449  0.6277
 3701TIP3    H132518   3.894   1.121   2.016  3.2731  4.6949 -0.4878
 3701TIP3    H232519   3.840   1.129   1.874  0.3689  1.4773  0.3820
 3702TIP3   OH232520   5.818   4.417  14.521 -0.5432 -0.7391  0.1920
 3702TIP3    H132521   5.765   4.367  14.584  0.1441 -1.0169  0.5535
 3702TIP3    H232522   5.778   4.398  14.436 -0.8670 -1.1544  0.4346
 3703TIP3   OH232523   4.729   4.937  14.489 -0.2359  0.3613 -0.4469
 3703TIP3    H132524   4.685   4.862  14.530  0.7684 -0.0349 -0.0834
 3703TIP3    H232525   4.658   4.986  14.448 -0.8331 -1.0966 -1.1844
 3704TIP3   OH232526   3.896   1.337  10.714  0.0131  0.1166  0.2992
 3704TIP3    H132527   3.959   1.297  10.654 -0.1737  0.6742 -0.2753
 3704TIP3    H232528   3.850   1.402  10.661 -1.0429 -0.2820  0.7141
 3705TIP3   OH232529   0.423   0.551  13.286 -0.2134 -0.2920 -0.1925
 3705TIP3    H132530   0.348   0.499  13.259  0.4218 -2.0346  1.2934
 3705TIP3    H232531   0.497   0.512  13.239  0.5177 -1.7927  2.1555
 3706TIP3   OH232532   5.914   3.794   1.578  0.4545 -0.1477 -0.6146
 3706TIP3    H132533   5.961   3.712   1.567  1.2287  0.3769 -1.2095
 3706TIP3    H232534   5.874   3.810   1.493 -0.3241 -0.2862 -0.2838
 3707TIP3   OH232535   2.578   3.759   1.734  0.5653  0.1360 -0.0795
 3707TIP3    H132536   2.530   3.747   1.816  1.3304  1.1191  0.5297
 3707TIP3    H232537   2.554   3.684   1.681 -1.3837  0.4328  0.3395
 3708TIP3   OH232538   4.423   2.724  11.351 -0.4884 -0.2021  0.2932
 3708TIP3    H132539   4.492   2.709  11.415 -0.3798 -2.6541 -0.3491
 3708TIP3    H232540   4.343   2.731  11.403 -0.1011  0.1286  0.8521
 3709TIP3   OH232541   4.259   0.197   2.045 -0.1806 -0.4914 -0.3826
 3709TIP3    H132542   4.312   0.241   2.111 -1.3273 -0.0130  0.2347
 3709TIP3    H232543   4.293   0.230   1.962 -0.2858  0.7224  0.0392
 3710TIP3   OH232544   2.817   1.325  16.810 -0.1599 -0.8147 -0.2467
 3710TIP3    H132545   2.821   1.404  16.756 -0.0986  1.1359  2.4885
 3710TIP3    H232546   2.769   1.262  16.757 -2.3721  1.8742 -1.5507
 3711TIP3   OH232547   2.086   4.262   6.410  0.5969  0.0825 -0.1427
 3711TIP3    H132548   2.152   4.194   6.394  1.2485  0.7303 -0.2103
 3711TIP3    H232549   2.021   4.248   6.341  1.6263  0.6419 -1.2496
 3712TIP3   OH232550   6.173   5.919   0.863 -0.1134  0.5359 -0.1255
 3712TIP3    H132551   6.208   6.004   0.890  0.9721  0.7007 -1.9651
 3712TIP3    H232552   6.250   5.868   0.839 -0.8460 -0.5895 -0.1270
 3713TIP3   OH232553   6.527   4.603   6.478  0.1186  0.1567 -0.0388
 3713TIP3    H132554   6.454   4.541   6.481  0.3826 -0.1359  0.5380
 3713TIP3    H232555   6.597   4.560   6.528  0.6167  0.5195 -0.4174
 3714TIP3   OH232556   4.703   6.313   5.992 -0.8921 -0.3586  0.3139
 3714TIP3    H132557   4.761   6.238   5.982  0.4335  0.5007  1.3720
 3714TIP3    H232558   4.670   6.306   6.081 -2.1222 -0.6215 -0.1496
 3715TIP3   OH232559   3.930   0.099   1.469 -0.1804 -0.5186  0.1820
 3715TIP3    H132560   4.015   0.125   1.506  0.5333 -1.5990 -0.6724
 3715TIP3    H232561   3.874   0.176   1.482  1.0447  0.3557  0.4028
 3716TIP3   OH232562   4.366   5.101   4.030 -0.4251 -0.3724  0.4597
 3716TIP3    H132563   4.361   5.193   4.004  1.3717 -0.0030  1.3386
 3716TIP3    H232564   4.404   5.103   4.117 -1.1563 -1.9200  0.8237
 3717TIP3   OH232565   2.388   0.347   0.284  0.6788 -0.4847 -0.1362
 3717TIP3    H132566   2.391   0.252   0.293  0.5946 -0.4615  0.1602
 3717TIP3    H232567   2.374   0.379   0.373 -0.5007 -0.2516 -0.3909
 3718TIP3   OH232568   4.474   4.097   5.109  0.2086 -0.0861  0.2509
 3718TIP3    H132569   4.447   4.023   5.055 -0.4185 -1.4536  2.3786
 3718TIP3    H232570   4.551   4.133   5.065 -2.2236  0.9745 -3.3913
 3719TIP3   OH232571   4.720   1.788  13.520 -0.0934  0.1274 -0.1907
 3719TIP3    H132572   4.701   1.696  13.503 -0.1588 -0.0644  0.8995
 3719TIP3    H232573   4.711   1.831  13.435 -1.5112 -0.6293 -0.4225
 3720TIP3   OH232574   5.606   5.270  13.138 -0.4595 -0.1520 -0.0679
 3720TIP3    H132575   5.701   5.260  13.139 -0.6923 -2.4839 -0.4083
 3720TIP3    H232576   5.588   5.313  13.054  0.2587  0.1283 -0.0864
 3721TIP3   OH232577   4.749   5.503   2.372 -0.1857 -0.0156 -0.0522
 3721TIP3    H132578   4.739   5.592   2.406  0.0403 -0.1291  0.3136
 3721TIP3    H232579   4.821   5.466   2.423 -0.7788 -0.6630  0.3230
 3722TIP3   OH232580   5.898   0.705   1.055  0.0279  0.6994  0.0676
 3722TIP3    H132581   5.946   0.767   1.110  0.6292  0.8996 -0.6703
 3722TIP3    H232582   5.871   0.757   0.979  0.3333  0.1160 -0.4437
 3723TIP3   OH232583   2.983   5.221  15.271 -0.3349 -0.1256 -0.5260
 3723TIP3    H132584   3.029   5.162  15.331 -1.0324  0.6458  0.7822
 3723TIP3    H232585   2.977   5.172  15.189 -1.5423 -2.1717  0.7420
 3724TIP3   OH232586   6.179   1.009   5.706  0.1720 -0.2412  0.3500
 3724TIP3    H132587   6.162   1.066   5.632  1.5044  0.3877  0.5099
 3724TIP3    H232588   6.093   0.978   5.733 -0.3983  0.2608 -0.8723
 3725TIP3   OH232589   4.245   5.343  12.155 -0.4454 -0.0944 -0.5644
 3725TIP3    H132590   4.206   5.340  12.243 -0.5050 -0.5526 -0.6051
 3725TIP3    H232591   4.179   5.388  12.102  0.1043  1.2452 -0.1196
 3726TIP3   OH232592   0.886   2.256  12.336  0.1021  0.1973 -0.8962
 3726TIP3    H132593   0.974   2.243  12.302 -0.1925 -2.2341 -0.8238
 3726TIP3    H232594   0.897   2.265  12.431  0.2339 -0.7340 -0.8171
 3727TIP3   OH232595   1.809   1.983   1.523  0.3102  0.3443 -0.0856
 3727TIP3    H132596   1.729   2.002   1.572 -0.8837  0.1675 -1.9185
 3727TIP3    H232597   1.779   1.936   1.446  2.5053 -2.7787  0.8650
 3728TIP3   OH232598   0.301   4.926   3.719  0.0112 -0.0796  0.1550
 3728TIP3    H132599   0.395   4.946   3.719  0.3480 -1.6714 -1.1645
 3728TIP3    H232600   0.294   4.841   3.762 -0.7824 -0.2202 -0.2420
 3729TIP3   OH232601   1.767   3.959  10.760 -0.0573 -1.1590  0.4170
 3729TIP3    H132602   1.774   3.875  10.714  0.4441 -0.6756 -0.3891
 3729TIP3    H232603   1.692   4.002  10.720  1.7425  0.2351 -1.5415
 3730TIP3   OH232604   1.859   6.227   0.988  0.1206  0.6424 -0.5730
 3730TIP3    H132605   1.907   6.145   0.978 -0.6528  0.2054 -0.7894
 3730TIP3    H232606   1.890   6.264   1.071 -0.2439 -0.3662  0.0176
 3731TIP3   OH232607   6.163   2.601   5.139 -0.5059  0.3082 -1.1188
 3731TIP3    H132608   6.093   2.658   5.172  1.5129  1.7353  0.8625
 3731TIP3    H232609   6.227   2.661   5.102  2.3649 -0.4309  2.3151
 3732TIP3   OH232610   3.848   5.983   1.787 -0.8388 -0.3042 -0.8953
 3732TIP3    H132611   3.859   5.962   1.694 -1.7005 -2.0280 -0.6311
 3732TIP3    H232612   3.777   6.048   1.789 -0.2524  0.3652 -1.4935
 3733TIP3   OH232613   5.153   4.784   5.432 -0.0321  0.1253 -0.2404
 3733TIP3    H132614   5.108   4.817   5.354 -1.0655  2.3469  1.2795
 3733TIP3    H232615   5.089   4.792   5.502  0.5480 -2.7837  0.7046
 3734TIP3   OH232616   3.370   1.025   2.015 -0.4039  0.6561  0.1863
 3734TIP3    H132617   3.390   0.937   2.047  0.5576  0.9162  0.3173
 3734TIP3    H232618   3.275   1.025   2.002 -0.2674 -0.8067 -1.0085
 3735TIP3   OH232619   5.855   5.486   1.773 -0.0738 -0.3440 -0.1304
 3735TIP3    H132620   5.913   5.442   1.711  0.6530 -0.5281  0.6798
 3735TIP3    H232621   5.797   5.539   1.718  1.0354  0.0437 -0.9290
 3736TIP3   OH232622   2.512   0.711   5.642 -0.1754 -0.0453  0.8547
 3736TIP3    H132623   2.544   0.789   5.686 -1.2336  0.4805  0.7105
 3736TIP3    H232624   2.573   0.697   5.569  0.4654  0.1852  1.3462
 3737TIP3   OH232625   6.483   4.916  12.059  0.0501 -0.1491  0.2195
 3737TIP3    H132626   6.513   4.849  12.121 -1.5053 -0.6793  0.4388
 3737TIP3    H232627   6.406   4.954  12.102  0.2356  0.9667 -0.4341
 3738TIP3   OH232628   6.024   1.166   2.484  0.6305 -0.0674 -0.0006
 3738TIP3    H132629   6.015   1.190   2.577  0.9805  1.1464 -0.2646
 3738TIP3    H232630   5.993   1.076   2.479 -0.8210  0.3488  1.0394
 3739TIP3   OH232631   4.057   2.253  12.739 -0.1714 -0.4136 -0.5324
 3739TIP3    H132632   4.092   2.342  12.730  0.5775 -0.5839  0.4686
 3739TIP3    H232633   3.963   2.262  12.722 -0.3013  0.7868  0.6977
 3740TIP3   OH232634   6.736   4.252   3.037  0.3349  0.4004  0.5217
 3740TIP3    H132635   6.812   4.228   2.984 -0.4924 -1.2860  0.0712
 3740TIP3    H232636   6.770   4.256   3.126  0.7929 -1.1773  0.4336
 3741TIP3   OH232637   1.148   5.102  16.819  0.1707  0.6118  0.2979
 3741TIP3    H132638   1.223   5.135  16.869 -0.0362  0.1743  0.8944
 3741TIP3    H232639   1.100   5.047  16.881 -1.0879  1.5368  0.1645
 3742TIP3   OH232640   4.043   6.525  15.641  0.2596  0.2613  0.3128
 3742TIP3    H132641   4.030   6.431  15.633  0.4042  0.1087  1.7463
 3742TIP3    H232642   4.138   6.536  15.645  0.2154  0.3684  1.1834
 3743TIP3   OH232643   1.137   3.157  17.014 -0.2490 -0.7096 -0.4364
 3743TIP3    H132644   1.166   3.091  17.077  1.0462 -0.9754 -1.2915
 3743TIP3    H232645   1.073   3.209  17.062 -0.6154 -2.0195  0.5395
 3744TIP3   OH232646   6.598   0.123   1.634  0.0419 -0.0852 -0.0569
 3744TIP3    H132647   6.607   0.152   1.543  2.5681 -0.1812  0.1201
 3744TIP3    H232648   6.650   0.186   1.684  1.3972 -1.9410  0.9224
 3745TIP3   OH232649   5.577   6.052  14.857 -0.2107 -0.2290 -0.0761
 3745TIP3    H132650   5.512   6.017  14.796  1.0839 -0.5676 -1.2749
 3745TIP3    H232651   5.553   6.145  14.865 -0.0545 -0.0439 -1.5492
 3746TIP3   OH232652   3.619   0.022  14.604  0.3072  0.4006  0.3331
 3746TIP3    H132653   3.622  -0.068  14.571  0.1735 -0.0526  1.5453
 3746TIP3    H232654   3.658   0.075  14.533  2.1793 -0.8437  0.3884
 3747TIP3   OH232655   6.459   5.441   4.444 -0.2347  0.1893  0.3972
 3747TIP3    H132656   6.489   5.354   4.420 -0.8116  0.3915 -1.0903
 3747TIP3    H232657   6.486   5.497   4.371 -1.6867  0.8893  0.3875
 3748TIP3   OH232658   4.609   3.256  17.143  0.3081 -0.0275 -0.0402
 3748TIP3    H132659   4.567   3.193  17.084  0.4241  0.1311 -0.2977
 3748TIP3    H232660   4.700   3.229  17.146  0.0507 -0.7686  1.0497
 3749TIP3   OH232661   4.781   5.800   3.260  0.2151  0.2882 -0.3437
 3749TIP3    H132662   4.777   5.878   3.204  1.3486  0.0476 -0.7768
 3749TIP3    H232663   4.873   5.774   3.259  0.0067 -0.5219  0.5430
 3750TIP3   OH232664   6.205   3.458   1.955 -0.0315 -0.6337  0.4597
 3750TIP3    H132665   6.164   3.433   2.038  2.6730 -0.2283  1.9822
 3750TIP3    H232666   6.284   3.404   1.951  0.6588  0.4788 -1.0942
 3751TIP3   OH232667   1.393   4.344  14.499 -0.3418 -0.0762  0.7166
 3751TIP3    H132668   1.417   4.383  14.583  1.6024  0.2596  0.0072
 3751TIP3    H232669   1.432   4.401  14.433  1.4424 -2.4833 -0.3588
 3752TIP3   OH232670   1.237   5.002   3.313  0.1821 -0.1708  0.2162
 3752TIP3    H132671   1.228   5.001   3.218  1.4162 -1.3339  0.0863
 3752TIP3    H232672   1.229   4.910   3.339  0.9986 -0.0096  1.1028
 3753TIP3   OH232673   5.623   1.314   5.671  0.1737 -0.1105  1.0714
 3753TIP3    H132674   5.673   1.279   5.745  0.8860  1.6780  1.4821
 3753TIP3    H232675   5.542   1.263   5.671  0.5736 -0.7901  2.4998
 3754TIP3   OH232676   4.087   0.097  12.976  0.3231  0.2255  0.3003
 3754TIP3    H132677   3.998   0.132  12.979  0.4390  0.9425 -2.7618
 3754TIP3    H232678   4.135   0.161  12.923  2.2374 -1.0299  0.5049
 3755TIP3   OH232679   5.504   1.055  12.000 -0.3822 -0.3130 -0.1275
 3755TIP3    H132680   5.542   0.969  11.986  1.6141  0.7058 -1.1008
 3755TIP3    H232681   5.485   1.088  11.912  1.1689  1.2441  0.1043
 3756TIP3   OH232682   1.875   5.970   2.310 -0.1189 -0.2250  0.9148
 3756TIP3    H132683   1.846   5.953   2.400 -0.1395 -2.3601  0.5185
 3756TIP3    H232684   1.954   5.917   2.300  1.0418  1.5455  0.2955
 3757TIP3   OH232685   0.211   1.796   2.085  0.3051 -0.6050  0.2394
 3757TIP3    H132686   0.219   1.889   2.066 -0.1715 -0.3331  1.3341
 3757TIP3    H232687   0.120   1.785   2.114  0.0051 -1.6206 -1.0353
 3758TIP3   OH232688   2.195   6.755   4.869  0.3292  0.0592  0.3687
 3758TIP3    H132689   2.111   6.799   4.882  1.1230  2.7731 -2.9089
 3758TIP3    H232690   2.184   6.706   4.788  1.2769 -1.2882  1.0333
 3759TIP3   OH232691   6.198   4.173  12.512 -0.0832 -0.5880  0.6261
 3759TIP3    H132692   6.173   4.082  12.529  0.0447 -0.7132  0.1411
 3759TIP3    H232693   6.258   4.168  12.438  0.5830 -0.1901  1.1378
 3760TIP3   OH232694   4.264   1.326  16.483 -0.6071  0.5781  0.2386
 3760TIP3    H132695   4.335   1.304  16.544  0.5495  1.2884 -0.8522
 3760TIP3    H232696   4.271   1.261  16.413 -0.3833  1.2820 -0.3957
 3761TIP3   OH232697   2.089   3.789  11.102 -0.1037  0.0195  0.1772
 3761TIP3    H132698   2.171   3.783  11.052 -0.3099  2.1226 -0.4610
 3761TIP3    H232699   2.046   3.868  11.068 -2.5073 -1.1733  0.3560
 3762TIP3   OH232700   4.350   3.617   5.900  0.0008  0.3649 -0.7478
 3762TIP3    H132701   4.355   3.627   5.805 -1.5759  0.5514 -0.8217
 3762TIP3    H232702   4.257   3.617   5.919  0.2681 -1.3012  0.6401
 3763TIP3   OH232703   4.512   0.202  14.276 -0.1790  0.2021  0.7487
 3763TIP3    H132704   4.565   0.275  14.305  1.0924 -1.1809  1.9804
 3763TIP3    H232705   4.575   0.132  14.259 -1.5206 -1.1876  1.3889
 3764TIP3   OH232706   0.318   5.820   5.960  0.1410  0.1139 -0.3084
 3764TIP3    H132707   0.346   5.910   5.977  2.9843 -0.7419 -0.2018
 3764TIP3    H232708   0.305   5.782   6.047  1.0897 -0.1914 -0.2892
 3765TIP3   OH232709   2.977   6.694  17.149 -0.1249 -0.1565  0.2698
 3765TIP3    H132710   2.947   6.638  17.078  0.5445  0.8788 -0.8384
 3765TIP3    H232711   2.996   6.634  17.221  2.8306 -1.6258 -1.6504
 3766TIP3   OH232712   4.151   1.963  15.797  0.1878 -0.2924 -0.7132
 3766TIP3    H132713   4.129   1.898  15.730 -0.1734  2.0753 -2.9723
 3766TIP3    H232714   4.244   1.948  15.814  0.6336 -0.0567 -2.7744
 3767TIP3   OH232715   5.243   3.537  16.341 -0.3017  0.4227 -0.1085
 3767TIP3    H132716   5.271   3.471  16.277  1.0941  1.8167 -0.9825
 3767TIP3    H232717   5.325   3.574  16.373 -1.0154  0.0947  2.1501
 3768TIP3   OH232718   6.560   0.520   5.757 -0.3713  0.3814  0.4663
 3768TIP3    H132719   6.603   0.593   5.711  0.8302 -1.6385 -1.7194
 3768TIP3    H232720   6.483   0.501   5.704 -1.3419  0.8431  1.7085
 3769TIP3   OH232721   5.226   4.824   3.566  0.6292  0.3694  0.1281
 3769TIP3    H132722   5.207   4.738   3.526  1.8480 -0.7016  1.7806
 3769TIP3    H232723   5.144   4.849   3.607  0.3562 -0.1776 -0.0657
 3770TIP3   OH232724   6.687   5.488  11.546 -0.6061  0.1522 -0.3416
 3770TIP3    H132725   6.779   5.516  11.547 -1.1863  2.1571 -0.8665
 3770TIP3    H232726   6.667   5.468  11.637  0.1052  0.5490 -0.0932
 3771TIP3   OH232727   5.925   2.919  11.836  0.0798  0.1517 -0.3690
 3771TIP3    H132728   5.850   2.961  11.795 -0.4172  0.3156  0.7046
 3771TIP3    H232729   5.892   2.834  11.866  0.2693  0.2992  0.2631
 3772TIP3   OH232730   6.026   0.738  14.644 -0.1461 -0.4248  0.3728
 3772TIP3    H132731   6.012   0.832  14.658  0.4413 -0.5166  1.7234
 3772TIP3    H232732   5.941   0.698  14.663 -0.7444 -0.0456 -1.5018
 3773TIP3   OH232733   3.374   0.841   2.576 -0.7190 -0.1513 -0.1505
 3773TIP3    H132734   3.406   0.824   2.664 -1.0534 -0.3544 -0.0645
 3773TIP3    H232735   3.428   0.913   2.543  0.8489 -1.4914 -0.5849
 3774TIP3   OH232736   5.622   5.228   0.384 -0.2566  0.4067  0.2718
 3774TIP3    H132737   5.637   5.179   0.303  0.9223  0.6752  0.3189
 3774TIP3    H232738   5.545   5.186   0.424  0.3750 -1.0157  0.0044
 3775TIP3   OH232739   2.258   4.340   4.049  0.7116  0.0846 -0.0221
 3775TIP3    H132740   2.269   4.425   4.008  0.6762 -0.3922 -1.0433
 3775TIP3    H232741   2.327   4.286   4.011  2.2368  0.2749  2.3796
 3776TIP3   OH232742   4.396   2.192   3.219 -0.4395 -0.6917 -0.5379
 3776TIP3    H132743   4.375   2.112   3.172  1.5535 -1.7340  0.3122
 3776TIP3    H232744   4.380   2.171   3.311  0.9185 -0.4097 -0.2273
 3777TIP3   OH232745   4.054   2.992   1.724 -0.1272  0.0799  0.2109
 3777TIP3    H132746   3.974   3.042   1.735 -0.4475 -0.8780  2.5946
 3777TIP3    H232747   4.034   2.928   1.656 -1.1901  0.2672  0.3439
 3778TIP3   OH232748   4.976   3.440  12.968 -0.4670 -0.2440 -0.1772
 3778TIP3    H132749   5.064   3.463  12.996 -0.3242  0.2074 -1.0017
 3778TIP3    H232750   4.928   3.424  13.050  0.3516 -0.4112  0.2679
 3779TIP3   OH232751   1.136   0.232   1.773 -0.5656 -0.1584  0.2490
 3779TIP3    H132752   1.221   0.210   1.735 -0.5679  0.8317 -0.3517
 3779TIP3    H232753   1.156   0.283   1.851 -0.6042 -0.2070  0.2909
 3780TIP3   OH232754   5.952   1.229   0.988  0.4230  0.0164  0.1405
 3780TIP3    H132755   5.917   1.169   0.922 -1.7239  0.5775  0.6951
 3780TIP3    H232756   5.895   1.306   0.981  1.0598  0.6349  1.6809
 3781TIP3   OH232757   5.769   5.363   1.263 -0.0949 -0.1304  0.3267
 3781TIP3    H132758   5.761   5.438   1.204 -1.2118  0.2155  0.8965
 3781TIP3    H232759   5.817   5.298   1.213  0.1155  0.6464 -0.4916
 3782TIP3   OH232760   1.496   0.651  11.947 -0.1541 -0.4804 -0.1157
 3782TIP3    H132761   1.588   0.632  11.963  0.5818  1.0931 -2.1796
 3782TIP3    H232762   1.450   0.571  11.972  1.8493 -1.5482  0.2402
 3783TIP3   OH232763   5.140   5.183   5.996  0.0545 -0.3543 -0.2142
 3783TIP3    H132764   5.059   5.133   5.985 -0.1231  0.4552 -3.2601
 3783TIP3    H232765   5.205   5.137   5.943  0.0358  2.1829 -2.5994
 3784TIP3   OH232766   1.073   5.163  14.581  0.1900  0.4195  0.5664
 3784TIP3    H132767   0.988   5.160  14.536  0.2921 -0.8000  0.4365
 3784TIP3    H232768   1.138   5.155  14.511  0.4311  1.7628  0.6241
 3785TIP3   OH232769   5.833   2.195   5.773  0.1640  0.0988 -0.2798
 3785TIP3    H132770   5.766   2.126   5.774 -2.3170  2.4254  0.6956
 3785TIP3    H232771   5.806   2.254   5.703  1.3584  0.9633 -0.0321
 3786TIP3   OH232772   6.217   3.841   4.822  0.7145 -0.2268  0.0013
 3786TIP3    H132773   6.237   3.910   4.886  0.7614 -0.9598  0.7936
 3786TIP3    H232774   6.154   3.785   4.868  2.1558 -1.8024  0.0965
 3787TIP3   OH232775   1.172   3.466   4.969  0.2996 -0.1464 -0.7554
 3787TIP3    H132776   1.081   3.446   4.990  0.4625 -2.1667 -1.8707
 3787TIP3    H232777   1.205   3.387   4.926  3.9727 -1.3295  3.8175
 3788TIP3   OH232778   3.739   5.949  15.558  0.7919 -0.9252  0.4886
 3788TIP3    H132779   3.786   6.004  15.620  0.1800 -1.8234  1.7709
 3788TIP3    H232780   3.751   5.860  15.591 -0.7009 -1.2860  0.0853
 3789TIP3   OH232781   1.509   1.871  12.464 -0.1976 -0.0704 -0.0612
 3789TIP3    H132782   1.414   1.885  12.458 -0.3949 -0.0856  2.7754
 3789TIP3    H232783   1.544   1.954  12.495  0.5354 -0.5795  0.4948
 3790TIP3   OH232784   0.103   2.691   5.118 -0.4991  0.0619 -0.1378
 3790TIP3    H132785   0.068   2.750   5.185  2.8753  0.0724  1.7593
 3790TIP3    H232786   0.111   2.606   5.162 -0.0633 -0.4187 -1.1260
 3791TIP3   OH232787   3.463   0.595  16.216  0.1396 -0.1131 -0.6424
 3791TIP3    H132788   3.485   0.534  16.146 -0.0142 -1.0013  0.0747
 3791TIP3    H232789   3.462   0.541  16.296  1.5956  1.1237  0.2423
 3792TIP3   OH232790   2.612   4.530   3.016 -0.1782 -0.0047  0.4163
 3792TIP3    H132791   2.535   4.480   2.988  0.1871 -0.0454 -0.5328
 3792TIP3    H232792   2.644   4.484   3.093 -0.1071 -0.9912 -0.1945
 3793TIP3   OH232793   0.893   0.356   5.280  0.4511  0.1732  0.1804
 3793TIP3    H132794   0.964   0.371   5.343 -0.1775  1.1178  0.6690
 3793TIP3    H232795   0.933   0.372   5.195  1.0884 -0.3004  0.3866
 3794TIP3   OH232796   0.905   2.281   5.523  0.3162 -0.0402 -0.1126
 3794TIP3    H132797   0.894   2.192   5.556 -0.5143 -0.3549 -1.1827
 3794TIP3    H232798   0.988   2.278   5.475  0.6885 -0.0221  0.5253
 3795TIP3   OH232799   4.807   3.554   1.445 -0.1237  0.0955 -0.0410
 3795TIP3    H132800   4.891   3.519   1.475 -1.3346 -1.7713  1.2479
 3795TIP3    H232801   4.797   3.521   1.356  0.6205  0.5224 -0.2851
 3796TIP3   OH232802   6.434   1.632   1.418  0.4571  0.3182 -0.1626
 3796TIP3    H132803   6.473   1.657   1.334 -0.3413 -0.5244 -0.8072
 3796TIP3    H232804   6.352   1.589   1.394 -1.1018  2.4870  1.1963
 3797TIP3   OH232805   0.083   1.633   4.035  0.1155  0.1638 -0.5401
 3797TIP3    H132806   0.134   1.686   4.096  1.6570  0.9154 -2.4070
 3797TIP3    H232807  -0.002   1.676   4.030  0.6906  1.3186 -0.5062
 3798TIP3   OH232808   4.022   2.463   0.488 -1.0702  0.2810  0.5030
 3798TIP3    H132809   4.037   2.375   0.451  0.9213 -0.4308  2.7980
 3798TIP3    H232810   4.089   2.517   0.447 -0.0648 -0.0925  1.5993
 3799TIP3   OH232811   2.633   3.894  16.295  0.7958  0.0842  0.4070
 3799TIP3    H132812   2.598   3.820  16.245  0.1374  1.0507 -0.5851
 3799TIP3    H232813   2.726   3.895  16.274  1.0312 -1.1931  1.3738
 3800TIP3   OH232814   0.561   3.750   0.891 -0.3779  0.3255 -0.2356
 3800TIP3    H132815   0.478   3.799   0.887 -1.0478 -0.7955 -0.2780
 3800TIP3    H232816   0.628   3.814   0.868 -1.2044  1.3301  0.1165
 3801TIP3   OH232817   5.746   1.020  13.559 -0.4051 -0.7281 -0.3625
 3801TIP3    H132818   5.789   1.074  13.493  0.1403 -0.2298  0.3988
 3801TIP3    H232819   5.817   0.988  13.614 -1.0990  0.9754  1.5536
 3802TIP3   OH232820   6.561   4.184   2.246 -0.4043  0.3155 -0.5122
 3802TIP3    H132821   6.615   4.130   2.304 -1.6503  0.9389  1.2738
 3802TIP3    H232822   6.523   4.250   2.304 -0.4093  1.9460 -2.3372
 3803TIP3   OH232823   4.332   4.520  16.342  0.4372 -0.8297  0.0358
 3803TIP3    H132824   4.278   4.495  16.417 -0.2239 -2.3100 -0.9043
 3803TIP3    H232825   4.394   4.448  16.333  1.5247  0.0947  0.1126
 3804TIP3   OH232826   2.122   4.708  15.723  0.0646 -0.6861 -1.0128
 3804TIP3    H132827   2.099   4.670  15.638 -0.3803 -1.5080 -0.5303
 3804TIP3    H232828   2.168   4.637  15.769  1.9054  0.3221 -1.2394
 3805TIP3   OH232829   3.157   1.847  16.316  0.4388  0.1151 -0.5752
 3805TIP3    H132830   3.124   1.767  16.275  1.1869 -1.3246  1.4987
 3805TIP3    H232831   3.250   1.850  16.291  0.4549  0.2276 -0.5016
 3806TIP3   OH232832   4.907   0.796   4.305 -0.2643 -0.1409 -0.0843
 3806TIP3    H132833   4.824   0.831   4.338  0.2301  1.7084 -0.7622
 3806TIP3    H232834   4.923   0.844   4.225  2.3582  0.7683  0.9386
 3807TIP3   OH232835   3.887   1.213  12.714 -0.5776 -0.0599  0.7136
 3807TIP3    H132836   3.950   1.168  12.658  0.7496 -0.3588  2.3727
 3807TIP3    H232837   3.804   1.207  12.668  0.4235 -0.5022 -1.0774
 3808TIP3   OH232838   2.587   1.011   5.708 -0.1690 -0.1969 -1.0533
 3808TIP3    H132839   2.544   1.074   5.649 -0.2782  0.1850 -0.5718
 3808TIP3    H232840   2.680   1.031   5.700 -0.2341  0.3161 -0.5787
 3809TIP3   OH232841   3.894   4.763   2.082 -0.7983 -0.2210 -0.0953
 3809TIP3    H132842   3.982   4.748   2.118  0.4510 -0.2660 -3.0445
 3809TIP3    H232843   3.893   4.856   2.060 -1.3975 -0.2684 -0.2695
 3810TIP3   OH232844   6.696   3.942   5.084  0.0437  0.3889 -0.2769
 3810TIP3    H132845   6.772   3.898   5.122 -1.9633  1.0320  4.8683
 3810TIP3    H232846   6.720   4.034   5.083 -0.2779  0.4845  0.4427
 3811TIP3   OH232847   5.546   5.753  11.163  0.3229  0.2468 -0.2137
 3811TIP3    H132848   5.521   5.835  11.121  0.3038  1.5237  2.1918
 3811TIP3    H232849   5.641   5.759  11.172  0.2694  0.2098  0.3724
 3812TIP3   OH232850   1.777   0.264  14.826 -0.1401 -0.1050 -0.3658
 3812TIP3    H132851   1.854   0.305  14.866  1.4491 -0.4850 -2.8776
 3812TIP3    H232852   1.795   0.170  14.830 -0.9878 -0.2566  0.0062
 3813TIP3   OH232853   2.624   5.682   2.445  0.1070  0.2807 -0.5461
 3813TIP3    H132854   2.611   5.651   2.535 -2.1237 -0.0856 -0.9567
 3813TIP3    H232855   2.701   5.635   2.415  0.0102 -0.7303  0.6936
 3814TIP3   OH232856   0.356   5.456   4.153  0.5819 -0.1551 -0.6352
 3814TIP3    H132857   0.281   5.417   4.108  0.9488 -1.7905  0.1306
 3814TIP3    H232858   0.327   5.545   4.175 -1.6041 -1.1698  0.7613
 3815TIP3   OH232859   3.699   3.524  11.676 -0.1756 -0.5593 -0.1017
 3815TIP3    H132860   3.653   3.467  11.739 -1.1410  0.2720 -0.0388
 3815TIP3    H232861   3.680   3.485  11.591 -1.4071  0.0381 -0.1160
 3816TIP3   OH232862   5.738   4.048   5.451  0.0094  0.1498 -0.3820
 3816TIP3    H132863   5.741   4.007   5.365  0.0253 -0.2077 -0.2111
 3816TIP3    H232864   5.647   4.036   5.480  0.0169  0.2267 -0.3244
 3817TIP3   OH232865   2.570   4.570   3.733 -0.1400  0.3815  0.1194
 3817TIP3    H132866   2.658   4.598   3.706 -0.0820 -0.6096 -0.7207
 3817TIP3    H232867   2.517   4.650   3.726  0.2525  0.5301 -1.2704
 3818TIP3   OH232868   2.650   4.355  13.706  0.3247 -0.1696  0.2038
 3818TIP3    H132869   2.614   4.267  13.699  0.9824 -0.2979 -1.8010
 3818TIP3    H232870   2.600   4.396  13.777 -0.9255 -1.6900  0.2181
 3819TIP3   OH232871   1.077   4.342  17.043 -1.0419 -0.3999  0.4869
 3819TIP3    H132872   1.037   4.256  17.027 -1.8732  0.2861 -1.2224
 3819TIP3    H232873   1.171   4.326  17.035 -1.1350 -1.3766  1.2714
 3820TIP3   OH232874   1.477   1.527  15.313  0.3271  0.7767 -0.1968
 3820TIP3    H132875   1.535   1.574  15.374 -0.7739  1.5002  0.3014
 3820TIP3    H232876   1.390   1.537  15.350 -0.1270 -0.3327 -0.9400
 3821TIP3   OH232877   4.915   5.746  13.535 -0.2466 -0.1948  0.9643
 3821TIP3    H132878   4.939   5.677  13.597  1.1928 -0.1686  0.4514
 3821TIP3    H232879   4.891   5.820  13.590 -2.5243 -1.3017  1.5387
 3822TIP3   OH232880   6.295   0.130  12.854  0.1237 -0.2099  0.2633
 3822TIP3    H132881   6.247   0.198  12.900 -1.6793 -0.9874 -0.4411
 3822TIP3    H232882   6.234   0.095  12.789  1.7427 -0.9726 -0.9185
 3823TIP3   OH232883   2.392   4.691  14.662  0.0792 -0.6373  0.0599
 3823TIP3    H132884   2.367   4.633  14.591  0.8972 -0.5678 -0.2961
 3823TIP3    H232885   2.343   4.772  14.646  0.1514 -0.6725 -0.3460
 3824TIP3   OH232886   4.052   3.408   0.055 -0.1701 -0.2083  0.6839
 3824TIP3    H132887   4.001   3.485   0.082  1.2917  0.1576  2.5051
 3824TIP3    H232888   4.141   3.429   0.082  0.9747 -0.8312 -2.4722
 3825TIP3   OH232889   2.162   2.360  14.898  0.0172 -0.5152  0.3384
 3825TIP3    H132890   2.159   2.273  14.938  0.3671 -1.4373 -1.6102
 3825TIP3    H232891   2.076   2.370  14.856 -0.2573  0.3428  1.0867
 3826TIP3   OH232892   4.424   1.761  13.396 -0.2272 -0.1153 -0.1839
 3826TIP3    H132893   4.404   1.719  13.479  0.7771 -0.0224  0.1064
 3826TIP3    H232894   4.462   1.845  13.420 -1.6515  0.7272 -0.7538
 3827TIP3   OH232895   1.344   3.204   3.773  0.3479 -0.0522 -0.2985
 3827TIP3    H132896   1.339   3.242   3.686 -0.9752 -2.5221 -1.3356
 3827TIP3    H232897   1.434   3.222   3.802  1.0762 -0.0110 -2.5409
 3828TIP3   OH232898   2.102   0.107   2.667  0.5191  0.1710 -0.3267
 3828TIP3    H132899   2.186   0.117   2.713 -0.0023 -0.6220  0.8291
 3828TIP3    H232900   2.125   0.066   2.583  1.1833 -1.1735  0.4850
 3829TIP3   OH232901   4.125   4.328   2.940 -0.3119 -0.4426 -0.0255
 3829TIP3    H132902   4.169   4.246   2.961  1.1402  0.5045  0.6640
 3829TIP3    H232903   4.077   4.351   3.020  1.8887  1.0189  0.9393
 3830TIP3   OH232904   0.705   6.623  17.200 -0.8536  0.7276  0.0414
 3830TIP3    H132905   0.620   6.582  17.185 -0.2477 -0.7633  0.5428
 3830TIP3    H232906   0.769   6.554  17.180  0.1582  1.1208  1.7963
 3831TIP3   OH232907   2.748   5.008  16.165  0.8644  0.1217  0.1703
 3831TIP3    H132908   2.755   5.043  16.254  0.1962 -0.8925  0.6238
 3831TIP3    H232909   2.802   4.929  16.166  1.6173  0.6105 -0.6032
 3832TIP3   OH232910   5.373   2.063  16.868 -0.0393 -0.2750  0.3375
 3832TIP3    H132911   5.366   2.023  16.781 -0.7760  0.2860  0.1256
 3832TIP3    H232912   5.393   2.155  16.850 -1.4461  0.1204  0.7066
 3833TIP3   OH232913   3.366   3.524   0.072 -0.3909  0.2458 -0.1153
 3833TIP3    H132914   3.329   3.437   0.060 -0.2644  0.1820 -0.0373
 3833TIP3    H232915   3.333   3.574  -0.003 -0.2373  0.0565 -0.3100
 3834TIP3   OH232916   2.110   4.170  16.661 -0.1270 -0.4576 -0.2835
 3834TIP3    H132917   2.191   4.123  16.643  0.5357 -0.1631  1.7498
 3834TIP3    H232918   2.068   4.120  16.731  0.5679  1.9009  1.8855
 3835TIP3   OH232919   4.536   5.484  14.304  0.0324  0.2528  0.2889
 3835TIP3    H132920   4.570   5.535  14.231  1.0174 -0.2334  0.4065
 3835TIP3    H232921   4.512   5.399  14.265  0.9245 -0.1447  0.6034
 3836TIP3   OH232922   6.389   0.486  11.925 -0.5727 -0.0123  0.4823
 3836TIP3    H132923   6.347   0.533  11.853  0.4051 -1.1274 -0.8551
 3836TIP3    H232924   6.464   0.540  11.949 -0.7293  0.2145  0.4629
 3837TIP3   OH232925   0.103   4.642  11.885  0.3435  0.6024  0.1733
 3837TIP3    H132926   0.012   4.614  11.876  1.1150 -1.7225 -0.5600
 3837TIP3    H232927   0.125   4.681  11.800 -0.0244  1.4438  0.4489
 3838TIP3   OH232928   4.401   0.674  13.071 -0.4804 -0.2425  0.5908
 3838TIP3    H132929   4.319   0.625  13.078 -0.4073 -0.4219  0.2198
 3838TIP3    H232930   4.417   0.680  12.977  0.4775 -1.1336  0.6759
 3839TIP3   OH232931   3.995   1.528   4.088 -0.2432  0.0131 -0.3524
 3839TIP3    H132932   3.912   1.482   4.071 -0.3394 -0.5776  1.5787
 3839TIP3    H232933   4.046   1.466   4.139 -0.2928  1.9520  2.1195
 3840TIP3   OH232934   6.300   2.441  12.421 -0.3641  0.2873 -0.1554
 3840TIP3    H132935   6.258   2.400  12.345  0.4707  1.9965 -1.5889
 3840TIP3    H232936   6.287   2.535  12.408  2.1802  0.7618  0.3379
 3841TIP3   OH232937   2.579   3.199  15.936 -0.1906  0.3272 -0.1039
 3841TIP3    H132938   2.657   3.143  15.932 -0.8973 -0.6216 -0.9383
 3841TIP3    H232939   2.543   3.197  15.847 -1.4174  0.3877  0.3736
 3842TIP3   OH232940   1.273   2.135  14.377 -0.6343  0.0758  0.2657
 3842TIP3    H132941   1.265   2.098  14.289  0.5339 -1.5943  0.8310
 3842TIP3    H232942   1.366   2.153  14.387 -0.5352 -1.1812  1.7068
 3843TIP3   OH232943   1.456   2.259  15.260  0.4974 -0.0497 -0.3186
 3843TIP3    H132944   1.537   2.298  15.226  1.0662 -0.9076  0.0642
 3843TIP3    H232945   1.388   2.291  15.200  1.0919  0.7783 -0.5644
 3844TIP3   OH232946   6.304   6.741   4.887 -0.2297 -0.1422  0.5314
 3844TIP3    H132947   6.330   6.759   4.978  1.3158 -1.5203  0.3770
 3844TIP3    H232948   6.274   6.826   4.854 -0.1749  0.5146  2.1244
 3845TIP3   OH232949   6.071   6.433   3.302  0.4490  0.1792 -0.0552
 3845TIP3    H132950   6.153   6.389   3.281  0.2533 -0.1102 -0.2126
 3845TIP3    H232951   6.090   6.526   3.293  0.2890  0.0624 -1.8197
 3846TIP3   OH232952   1.530   3.166  15.255  0.1040  0.3122  0.0320
 3846TIP3    H132953   1.563   3.104  15.189  0.1765 -0.8091  1.0870
 3846TIP3    H232954   1.609   3.207  15.290  0.2535 -0.9541  1.1983
 3847TIP3   OH232955   4.237   1.342   1.008  0.6692 -0.6388 -0.0562
 3847TIP3    H132956   4.257   1.435   1.003  0.5702 -0.6178 -0.0772
 3847TIP3    H232957   4.322   1.298   1.013  0.7782 -0.6356 -1.6044
 3848TIP3   OH232958   5.076   5.094  10.830 -0.0056 -0.0317  0.4779
 3848TIP3    H132959   5.118   5.010  10.811  0.7710  0.3756  0.3769
 3848TIP3    H232960   4.984   5.072  10.842 -0.5081 -0.3937 -3.3367
 3849TIP3   OH232961   4.821   3.981  13.801  0.0989 -0.2737 -0.7863
 3849TIP3    H132962   4.760   3.955  13.733  0.8076  0.1269 -1.5876
 3849TIP3    H232963   4.870   4.055  13.763  0.2623  0.1810  0.2776
 3850TIP3   OH232964   2.035   5.894   5.910 -0.0725  0.1569 -0.5774
 3850TIP3    H132965   2.084   5.878   5.829  1.6103  0.5734  0.3316
 3850TIP3    H232966   2.074   5.834   5.974 -0.6932  0.5710  0.1955
 3851TIP3   OH232967   6.516   2.275  12.552 -0.1871  0.6115  0.4276
 3851TIP3    H132968   6.448   2.329  12.511  0.3212  1.3626  0.5488
 3851TIP3    H232969   6.481   2.250  12.637 -0.8861 -0.1939 -0.0986
 3852TIP3   OH232970   3.357   5.745  15.608 -0.2328  0.7125 -0.0314
 3852TIP3    H132971   3.393   5.830  15.632 -1.0582  1.5013 -1.5749
 3852TIP3    H232972   3.299   5.762  15.534 -1.8480 -0.9185  0.8088
 3853TIP3   OH232973   3.528   4.944  15.225  0.4131  0.4452  0.7383
 3853TIP3    H132974   3.596   4.995  15.179  0.8275  0.5718  1.4895
 3853TIP3    H232975   3.577   4.895  15.291 -0.2208  0.4251  1.1843
 3854TIP3   OH232976   1.631   6.374   4.578 -0.3869 -0.5133 -0.3255
 3854TIP3    H132977   1.644   6.380   4.673  2.8481 -1.6688 -0.6325
 3854TIP3    H232978   1.629   6.281   4.560  0.3849 -0.2922 -1.5617
 3855TIP3   OH232979   5.518   2.858  10.635 -0.5045 -0.0714  0.4446
 3855TIP3    H132980   5.464   2.936  10.626 -0.8324 -0.3246  0.1915
 3855TIP3    H232981   5.504   2.809  10.554 -0.2286 -0.3464  0.5610
 3856TIP3   OH232982   1.291   1.002  12.959  0.3000  0.2664  0.3234
 3856TIP3    H132983   1.288   0.944  12.883  1.4131  0.6076  0.0135
 3856TIP3    H232984   1.260   0.947  13.031  0.0922 -0.3323 -0.2126
 3857TIP3   OH232985   1.233   0.458  14.688 -0.4328  0.0294  0.0921
 3857TIP3    H132986   1.299   0.523  14.712 -1.2485  0.5204  0.9946
 3857TIP3    H232987   1.265   0.377  14.728  0.1588  0.0396 -0.3474
 3858TIP3   OH232988   3.651   2.691   3.307 -0.0279  0.3104 -0.4502
 3858TIP3    H132989   3.727   2.648   3.345 -1.2763 -1.4257  0.1697
 3858TIP3    H232990   3.616   2.746   3.378 -1.1087 -1.2653  0.2620
 3859TIP3   OH232991   0.563   5.404  13.153 -0.0803  0.0331  0.1300
 3859TIP3    H132992   0.624   5.466  13.113  1.0202  0.3033  2.1832
 3859TIP3    H232993   0.612   5.322  13.158 -0.0333  0.1182  1.3067
 3860TIP3   OH232994   5.344   2.090   6.075  0.5862 -0.6157 -0.2238
 3860TIP3    H132995   5.436   2.106   6.096  0.5869  1.4586 -1.6448
 3860TIP3    H232996   5.345   2.027   6.003  0.9015 -0.6065 -0.2255
 3861TIP3   OH232997   2.678   3.855   3.707  0.0445 -1.2834 -0.0949
 3861TIP3    H132998   2.615   3.787   3.682  0.6472 -1.6590 -0.6304
 3861TIP3    H232999   2.735   3.863   3.631 -0.8007  0.7557 -0.5249
 3862TIP3   OH233000   3.779   2.673   0.569  0.2756 -0.4239 -0.5195
 3862TIP3    H133001   3.829   2.715   0.499 -0.3274  0.4712 -0.4322
 3862TIP3    H233002   3.844   2.628   0.623  0.7078 -1.3771 -1.8276
 3863TIP3   OH233003   0.917   2.723   6.466 -0.7589  0.1434 -0.3291
 3863TIP3    H133004   0.954   2.750   6.382  0.5992 -1.3089 -0.2319
 3863TIP3    H233005   0.987   2.741   6.529 -1.8019  1.3022  0.5187
 3864TIP3   OH233006   3.150   4.125   0.690 -0.1529 -0.7535 -0.3686
 3864TIP3    H133007   3.096   4.074   0.751  1.2864 -0.3845  1.2338
 3864TIP3    H233008   3.096   4.131   0.611 -2.9109  0.4366  1.5010
 3865TIP3   OH233009   5.644   2.538  14.421  0.1285 -0.5488 -0.0651
 3865TIP3    H133010   5.557   2.561  14.389  0.4329  0.7725  0.0501
 3865TIP3    H233011   5.634   2.533  14.517  0.6616  1.7097  0.1203
 3866TIP3   OH233012   1.059   1.972  13.472  0.0570 -0.3891 -0.1183
 3866TIP3    H133013   1.124   2.042  13.465 -1.3138  1.0097  0.6656
 3866TIP3    H233014   0.994   2.007  13.534  0.1470 -2.9915  1.5027
 3867TIP3   OH233015   2.784   4.980  15.396 -0.0768  0.2602  0.2694
 3867TIP3    H133016   2.875   4.991  15.368 -0.1713 -0.0948 -0.1882
 3867TIP3    H233017   2.768   4.886  15.388  0.0606  0.0689  2.0537
 3868TIP3   OH233018   1.667   4.541  14.122 -0.2891  0.6845  0.3291
 3868TIP3    H133019   1.614   4.579  14.052 -1.0914  0.4387  0.7991
 3868TIP3    H233020   1.651   4.447  14.116  1.0351  0.4808 -0.2884
 3869TIP3   OH233021   0.480   3.954  15.874 -0.2970  0.2721  0.1321
 3869TIP3    H133022   0.570   3.921  15.878  0.8211  3.0920 -0.1613
 3869TIP3    H233023   0.470   4.006  15.953 -1.7814 -0.2410  0.2918
 3870TIP3   OH233024   6.169   3.819   4.316 -0.1440  0.4009 -0.2611
 3870TIP3    H133025   6.174   3.891   4.379  1.8665 -0.0029  0.0727
 3870TIP3    H233026   6.239   3.836   4.253 -0.6620 -0.4303 -1.0839
 3871TIP3   OH233027   4.360   4.456   4.102 -0.0979  0.1904  0.0392
 3871TIP3    H133028   4.446   4.471   4.062  1.2830 -1.3076  2.3041
 3871TIP3    H233029   4.356   4.519   4.174  0.2575 -1.4588  1.5510
 3872TIP3   OH233030   1.069   1.707   6.203 -0.6270  0.0670 -0.5899
 3872TIP3    H133031   1.030   1.717   6.290  1.0558  0.1512  0.1738
 3872TIP3    H233032   1.163   1.721   6.217 -0.4381  0.9170 -2.5760
 3873TIP3   OH233033   5.583   2.626   4.398  0.2830 -0.4030  0.0300
 3873TIP3    H133034   5.612   2.636   4.307  0.6921 -0.3346  0.1683
 3873TIP3    H233035   5.642   2.561   4.435  2.5490  2.2885  1.3317
 3874TIP3   OH233036   1.103   5.863   5.621  0.2399 -0.1439  0.2198
 3874TIP3    H133037   1.162   5.856   5.696 -0.4366  2.1747  0.9867
 3874TIP3    H233038   1.152   5.911   5.555  0.3728 -1.0764 -0.3781
 3875TIP3   OH233039   3.365   1.213  15.981  1.0162 -0.0532  0.3252
 3875TIP3    H133040   3.347   1.210  16.075  0.8539  1.4949  0.3541
 3875TIP3    H233041   3.458   1.235  15.975  0.9658  0.1086  0.1290
 3876TIP3   OH233042   2.957   6.285  12.136 -0.2811 -0.2763 -0.0546
 3876TIP3    H133043   3.017   6.272  12.210 -1.6731  1.8463  1.5164
 3876TIP3    H233044   2.947   6.380  12.130 -1.8256 -0.5185 -1.6332
 3877TIP3   OH233045   1.328   0.644   5.393 -1.0846 -0.0817  0.3403
 3877TIP3    H133046   1.276   0.694   5.456 -2.2521 -0.1915 -0.5089
 3877TIP3    H233047   1.263   0.590   5.347 -0.3277  0.4162 -1.3519
 3878TIP3   OH233048   4.560   0.946  11.661  0.2709 -0.2705  0.3312
 3878TIP3    H133049   4.478   0.952  11.710  0.2277 -0.7239  0.3205
 3878TIP3    H233050   4.602   0.867  11.695  1.5305  0.9132  1.5834
 3879TIP3   OH233051   6.697   5.481  11.869  0.4662 -0.2391 -0.0880
 3879TIP3    H133052   6.609   5.516  11.883  0.7636  0.0808  0.9640
 3879TIP3    H233053   6.740   5.488  11.954  1.0793 -1.6121 -0.2750
 3880TIP3   OH233054   2.834   6.550  16.072 -0.4692 -0.4698  0.0094
 3880TIP3    H133055   2.845   6.470  16.020 -0.7483 -0.3004 -0.3105
 3880TIP3    H233056   2.756   6.592  16.035  0.0569  0.2867 -0.2384
 3881TIP3   OH233057   4.438   5.053  13.524  0.9223 -0.3352  0.0755
 3881TIP3    H133058   4.426   4.965  13.558 -0.3083 -0.1980  0.0136
 3881TIP3    H233059   4.437   5.043  13.429 -0.3401 -0.1196  0.0577
 3882TIP3   OH233060   1.227   4.472  12.976 -0.5802 -0.3646  0.5679
 3882TIP3    H133061   1.144   4.444  13.015  0.2639 -0.8085  2.0940
 3882TIP3    H233062   1.251   4.551  13.026 -0.4021  0.1481 -0.3135
 3883TIP3   OH233063   3.369   2.313  15.625  0.7427  0.2476  0.5339
 3883TIP3    H133064   3.382   2.367  15.703 -1.8456  1.2496  0.3484
 3883TIP3    H233065   3.392   2.369  15.552  0.3357  0.3139  0.4520
 3884TIP3   OH233066   5.832   5.679  14.428  0.5320  0.1442  0.0215
 3884TIP3    H133067   5.799   5.590  14.431  1.4854 -0.1713  1.6352
 3884TIP3    H233068   5.763   5.728  14.383 -0.0580 -1.3691 -0.7576
 3885TIP3   OH233069   4.404   1.916  13.766  0.5423  0.4950 -0.3005
 3885TIP3    H133070   4.363   1.903  13.680 -0.9652 -0.2051  0.5005
 3885TIP3    H233071   4.376   1.840  13.817  2.4751  0.2550  0.4270
 3886TIP3   OH233072   2.572   2.165   0.893  0.4377 -0.2205  0.3822
 3886TIP3    H133073   2.496   2.111   0.914  0.4664 -0.5953 -0.4334
 3886TIP3    H233074   2.561   2.185   0.800  1.0024  0.2574  0.4206
 3887TIP3   OH233075   5.309   6.207  15.576  0.5013 -0.0021  0.4118
 3887TIP3    H133076   5.250   6.207  15.652  0.4205  1.5965  0.3671
 3887TIP3    H233077   5.389   6.166  15.608  0.0186 -0.5141  0.9944
 3888TIP3   OH233078   3.070   3.949   2.344 -0.2986 -0.5199  0.8324
 3888TIP3    H133079   3.045   3.857   2.332  0.8333 -0.6982 -0.2383
 3888TIP3    H233080   3.100   3.977   2.257  1.4465  0.2202  1.6538
 3889TIP3   OH233081   3.485   4.908   0.108  0.1740  0.5587 -0.0855
 3889TIP3    H133082   3.520   4.979   0.053  1.7169  0.4562  0.7332
 3889TIP3    H233083   3.414   4.949   0.157 -1.4420  0.5804 -2.3523
 3890TIP3   OH233084   4.550   4.015   2.793 -0.1845 -0.0334  0.0066
 3890TIP3    H133085   4.556   3.954   2.719 -1.2825 -0.1915  0.0358
 3890TIP3    H233086   4.559   3.960   2.871 -0.3090 -0.0373  0.0179
 3891TIP3   OH233087   5.132   0.266  13.968  0.0622 -0.3120 -0.2440
 3891TIP3    H133088   5.218   0.300  13.944 -0.0535  0.5471  0.4985
 3891TIP3    H233089   5.126   0.282  14.063 -1.4431  0.8737 -0.5232
 3892TIP3   OH233090   4.111   6.754  14.825  0.2749  0.1396 -0.3089
 3892TIP3    H133091   4.019   6.731  14.815 -0.1218  1.2298  0.8063
 3892TIP3    H233092   4.119   6.782  14.916  1.6634  0.2599 -0.4608
 3893TIP3   OH233093   5.555   5.072   1.021 -0.1337 -0.1440 -0.0782
 3893TIP3    H133094   5.637   5.045   1.061  1.3290  0.9570 -2.1910
 3893TIP3    H233095   5.488   5.018   1.063  1.6099 -0.8002  1.9489
 3894TIP3   OH233096   5.277   4.673  12.511 -0.3307  0.0914  0.3617
 3894TIP3    H133097   5.353   4.621  12.539 -0.8598  0.3536  2.3065
 3894TIP3    H233098   5.313   4.761  12.498 -0.3752  0.2954  1.6242
 3895TIP3   OH233099   5.851   3.819  13.094 -0.3037 -0.1164 -0.3326
 3895TIP3    H133100   5.767   3.773  13.101 -0.8108  0.7087 -0.8972
 3895TIP3    H233101   5.828   3.905  13.059  1.0343 -0.6497 -2.6060
 3896TIP3   OH233102   3.145   0.296  14.262  0.7426  0.6929  0.2090
 3896TIP3    H133103   3.206   0.239  14.309  1.2957  1.4790  0.4542
 3896TIP3    H233104   3.122   0.364  14.325 -2.2085 -0.8453  0.8854
 3897TIP3   OH233105   5.261   2.864   0.031  0.2717  0.6459  0.4510
 3897TIP3    H133106   5.293   2.777   0.053 -2.2972 -0.0131  1.7245
 3897TIP3    H233107   5.273   2.871  -0.064 -0.2183 -1.4039  0.2150
 3898TIP3   OH233108   5.335   3.655  11.977 -0.0685 -0.3972  0.2658
 3898TIP3    H133109   5.309   3.640  12.068 -1.5784  0.5360  0.0068
 3898TIP3    H233110   5.417   3.704  11.983 -1.3695  1.7424  1.1478
 3899TIP3   OH233111   6.633   6.427  14.193  0.0349 -0.2614 -0.1784
 3899TIP3    H133112   6.559   6.428  14.253  0.3545  3.4382  0.2626
 3899TIP3    H233113   6.709   6.416  14.249  0.1759  1.1239 -0.0787
 3900TIP3   OH233114   1.089   1.889  11.613  0.5904  0.5832  0.3217
 3900TIP3    H133115   1.020   1.850  11.666 -0.3527  1.5334 -0.1906
 3900TIP3    H233116   1.116   1.966  11.662  2.7283 -0.8801  1.5285
 3901TIP3   OH233117   4.425   3.868   1.797 -0.0619 -0.3327 -0.2419
 3901TIP3    H133118   4.480   3.793   1.820  0.2867 -0.1468 -0.4597
 3901TIP3    H233119   4.451   3.937   1.857  1.6053  0.4878 -1.8612
 3902TIP3   OH233120   1.342   4.312   6.898  0.7186 -0.1407 -0.4504
 3902TIP3    H133121   1.366   4.403   6.880  1.9262 -0.2895  0.3492
 3902TIP3    H233122   1.364   4.265   6.818 -0.4444  0.3528 -1.0777
 3903TIP3   OH233123   5.501   5.724  15.312 -0.8536  0.6827  0.2656
 3903TIP3    H133124   5.409   5.739  15.335 -0.8198  1.5496 -0.1017
 3903TIP3    H233125   5.541   5.811  15.319  0.0447  0.2188  0.8864
 3904TIP3   OH233126   2.159   3.761   1.029  0.2079  0.1893 -0.3094
 3904TIP3    H133127   2.200   3.678   1.052  1.8497  0.8165 -0.9048
 3904TIP3    H233128   2.222   3.828   1.056 -0.5670  1.1956 -0.9221
 3905TIP3   OH233129   3.186   5.908   5.674 -0.5928  0.1484 -0.1061
 3905TIP3    H133130   3.162   5.939   5.586 -1.1388 -0.3982 -0.1494
 3905TIP3    H233131   3.195   5.988   5.726  0.6748  0.5314 -0.8905
 3906TIP3   OH233132   3.934   6.224   4.324  0.1275 -0.5944 -0.1453
 3906TIP3    H133133   3.957   6.294   4.385 -1.5216 -0.3413  0.2089
 3906TIP3    H233134   3.881   6.267   4.257  0.8596 -1.1179 -1.0900
 3907TIP3   OH233135   5.622   2.501   2.579  0.0873 -0.6390 -0.2379
 3907TIP3    H133136   5.625   2.570   2.645  1.8290 -2.7317  1.9493
 3907TIP3    H233137   5.600   2.547   2.498  0.4309  2.3662  1.2913
 3908TIP3   OH233138   2.149   0.054  16.093  0.3701  0.5227  0.1549
 3908TIP3    H133139   2.111   0.111  16.026  0.8407  0.1190 -0.4614
 3908TIP3    H233140   2.215   0.108  16.136  1.4319  0.1796 -1.0134
 3909TIP3   OH233141   3.258   3.744  12.993  0.9494 -0.0088 -0.3636
 3909TIP3    H133142   3.336   3.693  13.013 -0.6673 -1.9888  1.0012
 3909TIP3    H233143   3.277   3.831  13.029  2.5190 -0.4753 -0.0384
 3910TIP3   OH233144   5.611   2.483  16.026 -0.3864  0.5710 -0.5029
 3910TIP3    H133145   5.620   2.401  16.075 -2.4807  0.5434 -0.1274
 3910TIP3    H233146   5.622   2.457  15.934 -2.4760 -0.4202 -0.5166
 3911TIP3   OH233147   1.190   5.329  15.167 -0.3964 -0.7341  0.1654
 3911TIP3    H133148   1.254   5.272  15.210 -0.2696 -0.1915  0.6982
 3911TIP3    H233149   1.233   5.357  15.086  0.0160 -0.4237  0.4888
 3912TIP3   OH233150   6.687   3.969  13.366 -0.7267  0.2204 -0.5676
 3912TIP3    H133151   6.664   3.884  13.331  2.5615 -0.9359 -0.0536
 3912TIP3    H233152   6.661   3.965  13.459  1.2763 -0.9890 -0.0426
 3913TIP3   OH233153   1.721   5.306  12.273 -0.2347  0.5111 -0.1964
 3913TIP3    H133154   1.662   5.258  12.214 -1.4235  0.8722  0.6892
 3913TIP3    H233155   1.683   5.394  12.279  0.8124  0.9729 -0.2057
 3914TIP3   OH233156   3.885   6.055  16.443  0.3197  0.2007 -0.2471
 3914TIP3    H133157   3.904   6.017  16.529 -0.3039  0.0951 -0.1599
 3914TIP3    H233158   3.832   6.132  16.462  0.3184  0.2678 -0.5248
 3915TIP3   OH233159   0.727   1.907  16.468 -0.0680  0.1049  0.1142
 3915TIP3    H133160   0.695   1.838  16.409  0.6470 -0.0731 -0.0722
 3915TIP3    H233161   0.681   1.891  16.550 -1.6708  0.8458 -0.6241
 3916TIP3   OH233162   6.758   2.990   3.663 -0.2264 -0.4212  0.1481
 3916TIP3    H133163   6.820   2.928   3.702  0.9660  1.6666  1.6731
 3916TIP3    H233164   6.775   3.073   3.708 -2.7535  0.6987 -0.8427
 3917TIP3   OH233165   6.292   6.095   0.418 -0.1063 -0.0251  0.3729
 3917TIP3    H133166   6.289   6.010   0.374 -3.0027  0.0980  0.2033
 3917TIP3    H233167   6.317   6.157   0.350  0.7657 -0.5760  0.1920
 3918TIP3   OH233168   5.581   1.805   2.892 -0.5178  0.6266  0.1116
 3918TIP3    H133169   5.526   1.749   2.837 -0.0765  0.7211 -0.4365
 3918TIP3    H233170   5.581   1.890   2.847  0.2349  0.5712  0.0022
 3919TIP3   OH233171   3.718   5.540   4.729 -0.6127  0.2190 -0.4583
 3919TIP3    H133172   3.678   5.627   4.728 -3.0679 -0.8538  0.6053
 3919TIP3    H233173   3.694   5.503   4.814  2.7271 -0.4838  0.2644
 3920TIP3   OH233174   1.881   3.005   0.463 -0.1198  0.2502 -0.1480
 3920TIP3    H133175   1.878   3.095   0.430 -0.9946  0.1718 -0.2967
 3920TIP3    H233176   1.948   2.962   0.411 -0.8817  0.3637 -1.2395
 3921TIP3   OH233177   3.360   4.776   5.441  0.3048 -0.0375 -0.5671
 3921TIP3    H133178   3.278   4.749   5.398  0.5523  0.6147 -1.4559
 3921TIP3    H233179   3.428   4.733   5.391  0.5534 -0.0003 -0.2609
 3922TIP3   OH233180   2.245   6.363  13.671  0.2642 -0.5528 -0.3465
 3922TIP3    H133181   2.170   6.397  13.623  0.0759  0.7386  0.8291
 3922TIP3    H233182   2.214   6.282  13.711 -1.2254  1.1242  2.0027
 3923TIP3   OH233183   2.493   1.915   0.511  0.2556 -0.7654  0.0405
 3923TIP3    H133184   2.422   1.967   0.549  2.2001  1.2033  1.0208
 3923TIP3    H233185   2.523   1.966   0.436  2.0624 -0.5181  0.9064
 3924TIP3   OH233186   4.999   1.112   2.751 -0.6269 -0.1747 -0.3605
 3924TIP3    H133187   4.931   1.095   2.686 -0.5791  0.4788 -0.5847
 3924TIP3    H233188   5.049   1.030   2.756 -0.8163 -0.3251 -0.9232
 3925TIP3   OH233189   1.745   6.505   2.558  0.0152  0.2036  0.5679
 3925TIP3    H133190   1.677   6.439   2.558 -0.9035  1.1013 -1.1008
 3925TIP3    H233191   1.720   6.565   2.488  2.5656  0.4949 -0.1585
 3926TIP3   OH233192   1.697   5.157   0.555 -0.0084  0.5925  0.0163
 3926TIP3    H133193   1.613   5.149   0.510 -0.4129 -0.3958  0.9118
 3926TIP3    H233194   1.674   5.184   0.644  0.7007  1.3427 -0.0188
 3927TIP3   OH233195   4.068   6.051  17.095  0.0060 -0.0774 -0.1470
 3927TIP3    H133196   3.992   6.003  17.062 -1.1928  0.9814  1.0124
 3927TIP3    H233197   4.119   6.070  17.017 -1.1938 -0.3217 -1.0213
 3928TIP3   OH233198   4.584   0.621  11.055  0.5358  0.0853  0.7058
 3928TIP3    H133199   4.508   0.591  11.005  0.2761 -2.9057  2.7339
 3928TIP3    H233200   4.642   0.659  10.990 -1.0813 -0.9870 -1.4296
 3929TIP3   OH233201   1.644   2.735  11.767 -0.3181  0.5426 -0.1314
 3929TIP3    H133202   1.599   2.651  11.774 -0.1291  0.3990 -0.5723
 3929TIP3    H233203   1.720   2.727  11.825 -0.4181  0.4882 -0.0091
 3930TIP3   OH233204   3.311   0.120  12.001  0.0302  0.4990 -0.1586
 3930TIP3    H133205   3.219   0.092  12.009  0.4108 -1.0827 -1.0534
 3930TIP3    H233206   3.309   0.189  11.934 -0.7031  1.5519  0.9216
 3931TIP3   OH233207   1.895   2.723   4.316 -0.1678  0.1770  0.2543
 3931TIP3    H133208   1.802   2.701   4.319 -0.4121  1.1836  0.2818
 3931TIP3    H233209   1.906   2.771   4.234 -0.0232  1.5401  1.0427
 3932TIP3   OH233210   0.072   1.309   0.089  0.2481  0.4269 -0.2395
 3932TIP3    H133211   0.037   1.268   0.169  0.6766  0.4741 -0.0284
 3932TIP3    H233212   0.028   1.263   0.018 -1.7939  1.8541  0.0577
 3933TIP3   OH233213   0.422   2.558   2.338  0.0785  0.1325 -0.0716
 3933TIP3    H133214   0.378   2.642   2.330 -1.1225 -0.4582  0.1755
 3933TIP3    H233215   0.448   2.537   2.248  0.9757  1.0765 -0.0328
 3934TIP3   OH233216   4.208   6.573   2.086  0.2124 -0.4761  0.1496
 3934TIP3    H133217   4.269   6.590   2.014  1.6677  1.8739  1.8436
 3934TIP3    H233218   4.134   6.632   2.069 -0.0274 -0.8316 -0.0617
 3935TIP3   OH233219   4.148   4.055  12.725 -0.4524  0.3558 -0.3591
 3935TIP3    H133220   4.239   4.073  12.750 -0.1624 -0.2318 -0.9630
 3935TIP3    H233221   4.130   3.968  12.761 -0.4833  0.0946 -1.0032
 3936TIP3   OH233222   4.415   0.223   1.436 -0.0497 -0.4644 -0.3003
 3936TIP3    H133223   4.334   0.273   1.434  0.4766  0.4024  0.0914
 3936TIP3    H233224   4.413   0.177   1.520  0.3657  0.4025  0.1939
 3937TIP3   OH233225   4.510   3.640   1.155  0.1294 -0.4387 -0.0186
 3937TIP3    H133226   4.490   3.613   1.065  1.6831 -0.0668 -0.4872
 3937TIP3    H233227   4.448   3.591   1.208 -0.5993 -0.9139 -1.2710
 3938TIP3   OH233228   3.250   1.641   3.517  0.2448  0.2698  0.0065
 3938TIP3    H133229   3.312   1.627   3.446  1.4743  1.6943  0.7661
 3938TIP3    H233230   3.228   1.734   3.511 -0.6449  0.1057  0.6859
 3939TIP3   OH233231   2.284   1.200  15.831  0.0258  0.8689  0.4449
 3939TIP3    H133232   2.341   1.123  15.828 -1.0428  0.0449  0.9723
 3939TIP3    H233233   2.339   1.269  15.868  1.5383  0.8620 -1.6683
 3940TIP3   OH233234   6.401   0.793  14.656 -0.0192 -0.3737 -0.1603
 3940TIP3    H133235   6.369   0.792  14.566  0.9343 -0.9390 -0.5057
 3940TIP3    H233236   6.481   0.846  14.653 -0.9959  1.1800  0.7182
 3941TIP3   OH233237   0.700   5.937  11.832 -0.9788 -0.0996  0.0421
 3941TIP3    H133238   0.628   5.990  11.867 -0.5236  0.5747 -0.0435
 3941TIP3    H233239   0.697   5.950  11.737 -1.6870 -1.2678 -0.1101
 3942TIP3   OH233240   3.060   1.931   2.868 -0.1232 -0.3467 -0.0721
 3942TIP3    H133241   3.133   1.869   2.863 -0.2420 -0.5663  0.8925
 3942TIP3    H233242   3.037   1.934   2.961 -0.8795  0.2639 -0.2744
 3943TIP3   OH233243   5.033   4.224   3.718  0.3352  0.6398 -0.0096
 3943TIP3    H133244   5.092   4.207   3.644 -1.8927 -0.4514 -1.5967
 3943TIP3    H233245   5.045   4.149   3.776  0.5327  0.4580 -0.2840
 3944TIP3   OH233246   2.201   5.856   4.417  0.0565 -0.5420 -0.2978
 3944TIP3    H133247   2.260   5.908   4.471 -2.3277  1.6180  0.3024
 3944TIP3    H233248   2.242   5.857   4.330  1.0736  0.6494  0.1775
 3945TIP3   OH233249   0.012   3.767  10.327  0.2977  0.0865  0.5374
 3945TIP3    H133250  -0.069   3.795  10.286  1.7869  0.8696 -1.9643
 3945TIP3    H233251   0.040   3.690  10.277  0.4690 -0.9292  2.1585
 3946TIP3   OH233252   1.214   5.942  11.375 -0.6972  0.0890 -0.1991
 3946TIP3    H133253   1.204   6.037  11.371 -3.1101 -0.0503  1.5863
 3946TIP3    H233254   1.281   5.923  11.309 -0.8398  2.9101 -1.2631
 3947TIP3   OH233255   1.524   0.623  13.163  0.2404 -0.0965  0.1079
 3947TIP3    H133256   1.538   0.529  13.173  2.0379  0.3170  1.7456
 3947TIP3    H233257   1.470   0.631  13.084 -1.2882 -2.5854  0.8241
 3948TIP3   OH233258   6.653   4.950   3.709 -0.0779  0.4425 -0.3489
 3948TIP3    H133259   6.716   4.970   3.639 -0.2778 -0.3796 -0.7690
 3948TIP3    H233260   6.685   5.000   3.784  0.4784  0.8687 -0.8590
 3949TIP3   OH233261   0.055   2.205  14.297 -0.9798 -0.3036 -0.1618
 3949TIP3    H133262   0.103   2.128  14.264  0.8646  0.8585 -0.2766
 3949TIP3    H233263   0.058   2.195  14.392 -0.7122 -0.3611 -0.1760
 3950TIP3   OH233264   6.336   2.039  13.734 -0.3567 -0.5496  0.2397
 3950TIP3    H133265   6.327   1.945  13.722 -0.5239 -0.4486 -0.4264
 3950TIP3    H233266   6.253   2.066  13.775 -1.3455 -0.3105 -1.8501
 3951TIP3   OH233267   5.756   1.939   5.625 -0.5682 -0.3911 -0.3414
 3951TIP3    H133268   5.829   1.991   5.659 -0.2715 -1.3732  0.5718
 3951TIP3    H233269   5.723   1.892   5.701 -3.1718  1.2026 -0.4228
 3952TIP3   OH233270   3.083   5.598  11.732 -0.0749  0.1130 -0.4081
 3952TIP3    H133271   3.000   5.569  11.770 -0.2335 -1.2596 -1.7555
 3952TIP3    H233272   3.141   5.611  11.807 -0.9043 -0.8279  0.4141
 3953TIP3   OH233273   3.369   6.673   1.312 -0.6701 -0.2034  0.1768
 3953TIP3    H133274   3.390   6.759   1.349 -2.8721  0.6664 -0.4851
 3953TIP3    H233275   3.343   6.620   1.387 -0.3767  0.0586  0.4642
 3954TIP3   OH233276   5.885   3.330   3.067  0.2019  0.0741  0.1674
 3954TIP3    H133277   5.832   3.407   3.049 -0.1991 -0.2001  0.1643
 3954TIP3    H233278   5.867   3.310   3.159  1.8782  1.1910  0.7589
 3955TIP3   OH233279   5.267   1.576   5.075 -0.0866  0.0243  0.3733
 3955TIP3    H133280   5.318   1.533   5.006 -0.8225  1.4010 -1.0456
 3955TIP3    H233281   5.302   1.540   5.157 -0.2182 -2.7416 -0.7483
 3956TIP3   OH233282   0.591   5.561  12.614  0.0438  0.5229 -0.2807
 3956TIP3    H133283   0.587   5.620  12.539 -0.3856 -0.2378 -0.8637
 3956TIP3    H233284   0.684   5.557  12.637 -0.0929  2.5028  0.6289
 3957TIP3   OH233285   0.074   5.744  11.626 -0.1615  0.2483 -0.4784
 3957TIP3    H133286  -0.004   5.741  11.680  0.1622  0.0915 -0.0160
 3957TIP3    H233287   0.144   5.768  11.686 -0.0720  1.7045 -1.1334
 3958TIP3   OH233288   3.300   6.088  14.573 -0.2695  0.6537 -0.3825
 3958TIP3    H133289   3.248   6.008  14.588 -0.3619  0.2669 -2.6230
 3958TIP3    H233290   3.391   6.058  14.574 -0.1937  0.8971  0.9288
 3959TIP3   OH233291   0.459   2.338  15.901 -0.2962 -0.5136  0.2387
 3959TIP3    H133292   0.522   2.402  15.935  0.5501 -0.5216 -1.3101
 3959TIP3    H233293   0.490   2.254  15.934  1.6229 -0.7552 -2.0897
 3960TIP3   OH233294   5.011   0.977  15.974 -0.2057 -0.1083 -0.2662
 3960TIP3    H133295   4.945   0.993  16.041 -0.9042  1.3352 -1.2672
 3960TIP3    H233296   5.052   1.063  15.960 -0.4043 -0.2818 -2.0143
 3961TIP3   OH233297   3.197   1.334  16.727 -0.1544  0.1367  0.0989
 3961TIP3    H133298   3.192   1.330  16.822  0.1259 -1.0187  0.0692
 3961TIP3    H233299   3.187   1.427  16.706  0.0224  0.4220  1.2663
 3962TIP3   OH233300   0.518   5.757   0.416 -0.2737  0.2035 -0.5973
 3962TIP3    H133301   0.453   5.785   0.480  1.4614  0.1495  1.2716
 3962TIP3    H233302   0.536   5.836   0.364 -1.6278  0.2756 -0.9687
 3963TIP3   OH233303   6.520   1.652  12.551 -0.2308 -0.3731 -0.2777
 3963TIP3    H133304   6.447   1.709  12.573  0.2783  0.7534 -1.4262
 3963TIP3    H233305   6.539   1.605  12.632  0.3174  2.1906  1.1361
 3964TIP3   OH233306   0.209   0.306   4.757 -0.2208  0.2052  0.0637
 3964TIP3    H133307   0.275   0.238   4.772 -1.3896 -0.9314  0.1713
 3964TIP3    H233308   0.259   0.386   4.741  1.1516 -0.3958  1.2899
 3965TIP3   OH233309   0.135   6.665  11.067 -0.0212  0.1314 -0.7104
 3965TIP3    H133310   0.139   6.747  11.019 -0.2319  0.3931 -0.2792
 3965TIP3    H233311   0.081   6.684  11.144 -0.1356 -0.4265 -0.6491
 3966TIP3   OH233312   0.742   1.542   5.188  0.3174  0.5098  0.4779
 3966TIP3    H133313   0.650   1.563   5.208 -0.9437 -2.4204 -1.9006
 3966TIP3    H233314   0.784   1.533   5.274 -1.8448  0.8458  1.6095
 3967TIP3   OH233315   1.523   1.831   5.887  0.4081 -0.1254 -0.2137
 3967TIP3    H133316   1.609   1.872   5.884 -0.8269  2.4978 -0.7744
 3967TIP3    H233317   1.536   1.754   5.944  2.9036  0.6616  0.3673
 3968TIP3   OH233318   5.229   2.582   3.182 -0.6264 -0.4977 -0.7535
 3968TIP3    H133319   5.313   2.583   3.226 -1.4914  0.8286  0.9357
 3968TIP3    H233320   5.220   2.670   3.144 -2.4494  0.3650  1.5220
 3969TIP3   OH233321   5.356   0.731  11.080 -0.7745  0.0261  0.0621
 3969TIP3    H133322   5.312   0.794  11.137 -1.7999 -0.7125  0.1129
 3969TIP3    H233323   5.291   0.711  11.012 -0.7248 -1.4567  0.4205
 3970TIP3   OH233324   1.412   4.428  13.217 -0.2340 -0.1457  0.0888
 3970TIP3    H133325   1.319   4.413  13.229 -0.0456 -2.6866 -1.2602
 3970TIP3    H233326   1.437   4.371  13.145  2.1637  1.3078 -0.3022
 3971TIP3   OH233327   4.654   6.512  15.869  0.0787 -0.1151  0.1003
 3971TIP3    H133328   4.569   6.469  15.861 -0.5995  1.1098  0.5531
 3971TIP3    H233329   4.673   6.509  15.963  0.5260 -0.3642  0.0016
 3972TIP3   OH233330   1.693   4.811   1.947 -0.2394 -0.5476  0.0913
 3972TIP3    H133331   1.664   4.817   1.856  0.7529 -1.7689 -0.3198
 3972TIP3    H233332   1.695   4.902   1.977  1.4386  0.0681 -1.7586
 3973TIP3   OH233333   4.123   6.052   5.949  0.4737  0.1599  0.3513
 3973TIP3    H133334   4.154   5.975   5.996  0.0047 -0.4330 -0.2992
 3973TIP3    H233335   4.187   6.066   5.880  0.7731  0.5962  0.7163
 3974TIP3   OH233336   5.050   2.358  11.015  0.0846  0.1057  0.1134
 3974TIP3    H133337   5.112   2.287  10.997 -0.2550 -0.2122  0.1838
 3974TIP3    H233338   5.043   2.360  11.111  1.2074  1.2063  0.1898
 3975TIP3   OH233339   2.607   5.471   0.423 -0.6032 -0.4311 -0.7616
 3975TIP3    H133340   2.524   5.484   0.378 -1.1610 -2.1295 -0.2817
 3975TIP3    H233341   2.586   5.478   0.516  0.0234  0.3436 -0.6742
 3976TIP3   OH233342   1.547   2.464   6.301  0.0508 -0.0422 -0.0553
 3976TIP3    H133343   1.521   2.372   6.290  0.7124 -0.1106 -1.1463
 3976TIP3    H233344   1.573   2.471   6.393 -0.2648 -0.8802  0.0998
 3977TIP3   OH233345   0.214   6.277  15.516 -0.1163  0.2370  0.7407
 3977TIP3    H133346   0.143   6.326  15.477  0.0831 -0.8566 -1.0738
 3977TIP3    H233347   0.173   6.228  15.588 -1.4012 -1.0867 -0.8556
 3978TIP3   OH233348   1.184   1.857  15.494 -0.1847  0.2501  0.1157
 3978TIP3    H133349   1.197   1.816  15.409 -2.4275  1.2033 -0.7373
 3978TIP3    H233350   1.164   1.784  15.553  1.3998 -0.4101 -0.1436
 3979TIP3   OH233351   3.940   5.146  12.214  0.2140 -0.2369  0.0203
 3979TIP3    H133352   4.012   5.088  12.238  0.7560 -0.1946 -1.4968
 3979TIP3    H233353   3.961   5.229  12.257  2.3602  0.5236 -2.4064
 3980TIP3   OH233354   3.139   3.348  11.872 -0.7456  0.2474  0.4706
 3980TIP3    H133355   3.141   3.405  11.949  0.5901 -0.7725  1.1982
 3980TIP3    H233356   3.175   3.402  11.801 -2.7178  1.4523  0.3617
 3981TIP3   OH233357   5.586   1.195   1.590  0.6643 -0.4332  0.1161
 3981TIP3    H133358   5.498   1.200   1.628  0.2656 -2.6923 -0.4394
 3981TIP3    H233359   5.626   1.119   1.633  1.5480 -0.7586 -1.2607
 3982TIP3   OH233360   4.286   3.736  11.815 -0.0018 -0.4377 -0.2459
 3982TIP3    H133361   4.310   3.761  11.905 -0.2369  2.3792 -0.9144
 3982TIP3    H233362   4.357   3.679  11.786  0.4575 -0.7679  1.4701
 3983TIP3   OH233363   2.203   3.376   3.331  0.4701 -0.0896 -0.2778
 3983TIP3    H133364   2.195   3.338   3.243 -2.0935 -1.2375  0.4137
 3983TIP3    H233365   2.297   3.373   3.350  1.0478  0.0574 -2.9215
 3984TIP3   OH233366   4.935   0.773  12.597 -0.2350 -0.1951 -0.1221
 3984TIP3    H133367   5.010   0.831  12.606 -0.0659 -0.7281  2.1601
 3984TIP3    H233368   4.957   0.696  12.650 -0.7038 -2.1335 -2.5984
 3985TIP3   OH233369   6.198   0.082   4.062 -0.8844  0.4320 -0.4468
 3985TIP3    H133370   6.257   0.007   4.068 -2.3298 -0.6389  1.0473
 3985TIP3    H233371   6.225   0.128   3.983 -0.0413 -1.7430 -1.4686
 3986TIP3   OH233372   3.280   4.591  13.263 -0.0784  0.0976 -0.1605
 3986TIP3    H133373   3.279   4.530  13.337 -1.4604  0.8929  0.4985
 3986TIP3    H233374   3.241   4.671  13.298  0.2296  0.8314 -1.4687
 3987TIP3   OH233375   5.369   2.355   1.331 -0.3840 -0.2079 -0.0572
 3987TIP3    H133376   5.286   2.383   1.291 -0.2986 -0.7831 -0.6554
 3987TIP3    H233377   5.436   2.391   1.273 -0.1700  1.3617  1.1465
 3988TIP3   OH233378   1.792   0.103   0.309  0.3520  0.2068  0.3474
 3988TIP3    H133379   1.731   0.076   0.240  0.4403  0.4095  0.1890
 3988TIP3    H233380   1.757   0.064   0.389  1.6465 -2.1804 -0.1987
 3989TIP3   OH233381   5.559   3.768  14.527  0.1656 -0.2175  0.2017
 3989TIP3    H133382   5.488   3.775  14.592  0.9658  0.9899  0.9722
 3989TIP3    H233383   5.532   3.827  14.456  0.5320  0.4962  0.6422
 3990TIP3   OH233384   5.257   4.369  13.824 -0.6368 -0.2412 -0.1552
 3990TIP3    H133385   5.240   4.316  13.903 -0.2678 -0.0771  0.0311
 3990TIP3    H233386   5.323   4.319  13.776 -0.1592  0.1356  0.1049
 3991TIP3   OH233387   6.246   0.575   0.347  0.0377 -0.7106  0.0670
 3991TIP3    H133388   6.324   0.521   0.343  1.3776  1.1102  0.7314
 3991TIP3    H233389   6.206   0.554   0.432 -0.0776 -1.4545 -0.1661
 3992TIP3   OH233390   3.932   6.371  13.585 -0.6138  0.2442  0.6295
 3992TIP3    H133391   3.929   6.280  13.553  1.2872 -0.1484  1.4822
 3992TIP3    H233392   3.846   6.386  13.624 -0.1697 -1.9906  2.5761
 3993TIP3   OH233393   2.378   6.030   6.662  0.7129 -0.1344  0.6438
 3993TIP3    H133394   2.310   6.011   6.727 -1.0605  1.0563 -0.7972
 3993TIP3    H233395   2.407   6.119   6.684  2.3883 -0.9089  1.7072
 3994TIP3   OH233396   3.895   5.801   0.983 -0.2317  0.3509  0.6874
 3994TIP3    H133397   3.833   5.873   0.978  0.1844  0.6481 -0.3258
 3994TIP3    H233398   3.978   5.842   1.006  0.5381  0.5337 -2.2301
 3995TIP3   OH233399   5.007   4.928  15.927  0.5188  0.3579  0.2449
 3995TIP3    H133400   4.951   4.945  15.851 -0.2928 -2.4048  0.1551
 3995TIP3    H233401   4.945   4.907  15.997  1.3661 -0.2614  0.8108
 3996TIP3   OH233402   1.892   3.041  14.462 -0.7856  0.2086  0.1147
 3996TIP3    H133403   1.975   3.076  14.494 -0.6013  0.2403 -0.4004
 3996TIP3    H233404   1.850   3.114  14.417 -1.0405  0.1612  0.2746
 3997TIP3   OH233405   0.928   2.321  13.757 -0.0432 -0.1096 -0.2380
 3997TIP3    H133406   0.954   2.376  13.831 -0.1400  0.0903 -0.3527
 3997TIP3    H233407   1.009   2.307  13.707 -0.3580  1.4708 -1.2301
 3998TIP3   OH233408   3.883   2.859   2.498 -0.3237 -0.2981 -0.2562
 3998TIP3    H133409   3.813   2.892   2.442 -2.2916 -0.8479  1.7800
 3998TIP3    H233410   3.854   2.880   2.587  1.4950 -1.6633  0.6954
 3999TIP3   OH233411   1.241   6.123  15.357 -0.2325  0.2576 -0.5071
 3999TIP3    H133412   1.176   6.168  15.411 -1.3056  0.3587 -1.8655
 3999TIP3    H233413   1.236   6.031  15.384  0.8656  0.6750  1.1731
 4000TIP3   OH233414   5.149   1.119   3.217  0.7180  0.1569  0.0838
 4000TIP3    H133415   5.231   1.122   3.167 -0.1223 -1.0971 -1.4625
 4000TIP3    H233416   5.151   1.034   3.261 -0.1098 -0.2515 -0.6410
 4001TIP3   OH233417   4.129   4.999  13.594 -0.3560  0.0234  0.2558
 4001TIP3    H133418   4.181   5.013  13.514 -0.7077 -2.4815 -0.4458
 4001TIP3    H233419   4.078   4.921  13.576 -0.8318 -0.2810  2.7675
 4002TIP3   OH233420   2.397   4.402  15.732  0.6578  0.6165 -0.0477
 4002TIP3    H133421   2.352   4.334  15.683  1.4775  0.2386 -0.2954
 4002TIP3    H233422   2.330   4.442  15.786 -0.3466  1.2612 -1.7272
 4003TIP3   OH233423   2.245   4.449  16.571 -0.0817  0.6187  0.2418
 4003TIP3    H133424   2.336   4.471  16.552  0.4951 -1.7367  0.1430
 4003TIP3    H233425   2.216   4.400  16.494 -1.0948  0.4074  0.7585
 4004TIP3   OH233426   2.163   2.228  13.932 -0.8003 -0.4832  0.2992
 4004TIP3    H133427   2.075   2.261  13.950 -0.7950 -0.7817  0.8865
 4004TIP3    H233428   2.164   2.214  13.837 -0.7860  1.2070  0.0317
 4005TIP3   OH233429   5.961   6.431  12.361 -0.3113  0.1292 -0.1368
 4005TIP3    H133430   5.877   6.439  12.316 -0.5179  0.7033  0.3375
 4005TIP3    H233431   5.990   6.522  12.372 -1.5082  0.2089  3.1897
 4006TIP3   OH233432   6.461   2.546  14.613 -0.1029  0.4101  0.6594
 4006TIP3    H133433   6.418   2.467  14.580 -0.7469  0.7813  0.6211
 4006TIP3    H233434   6.400   2.582  14.677 -0.9534  2.2668 -1.1420
 4007TIP3   OH233435   6.581   1.900  14.818  0.1596  0.2971 -0.2246
 4007TIP3    H133436   6.664   1.855  14.805  0.1826  0.0480  0.7827
 4007TIP3    H233437   6.527   1.837  14.866 -0.1158  1.0128  0.4080
 4008TIP3   OH233438   1.354   5.865   3.054 -0.4952 -0.4097  0.3093
 4008TIP3    H133439   1.367   5.790   3.113 -1.1239 -0.0030  0.9639
 4008TIP3    H233440   1.284   5.836   2.995  1.4225 -1.5484 -1.4769
 4009TIP3   OH233441   2.548   1.605   2.538 -0.0426  0.5113  0.2271
 4009TIP3    H133442   2.491   1.530   2.555 -1.5022  2.2612  3.3526
 4009TIP3    H233443   2.491   1.681   2.545  1.0580  1.9812 -4.4543
 4010TIP3   OH233444   4.224   6.494  16.519  0.4909 -0.2912  0.5150
 4010TIP3    H133445   4.302   6.438  16.517  0.0810 -0.8825  0.9439
 4010TIP3    H233446   4.177   6.474  16.438  0.2617 -0.6879  0.7467
 4011TIP3   OH233447   6.111   3.556   4.271  0.2195  0.5211 -0.1632
 4011TIP3    H133448   6.127   3.648   4.293  2.1219  0.2474 -0.3204
 4011TIP3    H233449   6.090   3.557   4.178  1.3277  0.6959 -0.4219
 4012TIP3   OH233450   6.700   2.787  12.185  0.2800  0.7313  0.1085
 4012TIP3    H133451   6.718   2.772  12.278 -0.8851  2.9126  0.7227
 4012TIP3    H233452   6.771   2.741  12.140  0.6980 -0.6291  2.0440
 4013TIP3   OH233453   1.614   4.792   6.140 -0.4739  1.1805 -0.5265
 4013TIP3    H133454   1.651   4.853   6.204 -0.2641 -0.1514  0.6323
 4013TIP3    H233455   1.520   4.811   6.141 -0.7872 -0.3840  1.8709
 4014TIP3   OH233456   6.589   2.568  13.553  0.1380  0.2521  0.2575
 4014TIP3    H133457   6.584   2.504  13.483 -1.7233 -0.1252  0.7099
 4014TIP3    H233458   6.640   2.525  13.622 -2.3626 -1.3925  1.1756
 4015TIP3   OH233459   5.383   4.067   2.360  0.2883 -0.0663  0.5706
 4015TIP3    H133460   5.312   4.015   2.398  0.0178 -0.8162 -0.9218
 4015TIP3    H233461   5.365   4.157   2.388 -1.4878 -0.1889 -0.1175
 4016TIP3   OH233462   6.189   4.120  12.969  0.4870 -0.0218 -0.4642
 4016TIP3    H133463   6.160   4.033  12.999 -1.4122  0.4758 -0.7908
 4016TIP3    H233464   6.213   4.166  13.049 -3.1410  0.7893  0.2452
 4017TIP3   OH233465   5.602   5.180   0.762  0.4641  0.0198  0.0347
 4017TIP3    H133466   5.575   5.143   0.847 -0.0429  0.5572  0.1108
 4017TIP3    H233467   5.584   5.274   0.770  0.5010  0.0868 -0.6412
 4018TIP3   OH233468   2.061   5.120   4.210  0.0025  0.4948  0.2446
 4018TIP3    H133469   2.060   5.061   4.134  1.5771  1.4608 -0.5701
 4018TIP3    H233470   1.998   5.189   4.188  1.9444  1.9050 -1.1947
 4019TIP3   OH233471   0.611   5.274   5.683  0.2339  0.2390  0.3222
 4019TIP3    H133472   0.663   5.268   5.603 -0.8117  2.1663 -0.5598
 4019TIP3    H233473   0.675   5.273   5.754  1.2232 -0.8043 -0.5855
 4020TIP3   OH233474   4.376   1.074  11.099 -0.6180 -0.1990 -0.6792
 4020TIP3    H133475   4.415   1.003  11.049 -0.5653 -0.9962  0.4675
 4020TIP3    H233476   4.416   1.067  11.186 -0.5518  1.2790 -0.5738
 4021TIP3   OH233477   0.823   3.185   1.611  0.2309 -0.3272  0.1477
 4021TIP3    H133478   0.821   3.244   1.536  0.7811  1.6851  1.6907
 4021TIP3    H233479   0.858   3.103   1.576 -2.1405 -0.3437 -2.4035
 4022TIP3   OH233480   6.132   0.027   2.201 -0.2226  0.6486 -0.2163
 4022TIP3    H133481   6.157   0.070   2.283  0.2648 -2.2374  1.2017
 4022TIP3    H233482   6.037   0.023   2.204 -0.2753  1.6357 -0.3770
 4023TIP3   OH233483   5.441   3.455  15.483  0.3114 -0.3530  0.4360
 4023TIP3    H133484   5.376   3.430  15.550 -1.6244  0.0713 -1.2456
 4023TIP3    H233485   5.448   3.550  15.491 -2.7139  0.2129 -2.3287
 4024TIP3   OH233486   1.091   1.264   2.384  0.2544  0.2340 -0.0483
 4024TIP3    H133487   1.185   1.257   2.401  0.1976  1.4652  0.8266
 4024TIP3    H233488   1.082   1.346   2.335 -0.8395  2.4926  3.7783
 4025TIP3   OH233489   2.923   4.737   5.782  0.0644 -0.0442  0.0749
 4025TIP3    H133490   2.906   4.782   5.699  1.2142  0.8206  0.3011
 4025TIP3    H233491   2.861   4.664   5.783 -1.1604  0.9606 -0.7519
 4026TIP3   OH233492   2.886   2.690  14.980 -0.4805  0.2845 -0.1365
 4026TIP3    H133493   2.829   2.762  14.953 -1.7988 -1.2205 -1.4975
 4026TIP3    H233494   2.949   2.681  14.909 -0.7393 -0.3297 -0.2913
 4027TIP3   OH233495   0.661   5.364   5.990 -0.1449  0.3231 -0.3589
 4027TIP3    H133496   0.567   5.359   6.004 -0.4211 -0.0606 -2.3029
 4027TIP3    H233497   0.687   5.446   6.031 -0.6843 -1.3568  3.5990
 4028TIP3   OH233498   4.195   6.481  15.117  1.2347  0.0582  0.0080
 4028TIP3    H133499   4.185   6.574  15.096 -1.1279  0.1103  1.2305
 4028TIP3    H233500   4.160   6.436  15.040  0.2922  0.2015  0.3474
 4029TIP3   OH233501   1.403   5.585  15.506 -0.3263 -0.6789  0.3650
 4029TIP3    H133502   1.374   5.522  15.439 -2.8473 -0.0656  0.8413
 4029TIP3    H233503   1.421   5.532  15.583 -1.7944 -0.8919  0.5618
 4030TIP3   OH233504   1.803   2.635   0.593  0.4234 -0.1987  0.0506
 4030TIP3    H133505   1.857   2.667   0.665 -2.3905  0.5381  1.9169
 4030TIP3    H233506   1.788   2.542   0.613  0.0177 -0.1038  0.2079
 4031TIP3   OH233507   1.685   0.728  10.987  0.1427  0.4282  0.8471
 4031TIP3    H133508   1.758   0.665  10.989 -0.6532 -0.4920  1.2539
 4031TIP3    H233509   1.727   0.814  10.989  1.1783 -0.1039  2.6024
 4032TIP3   OH233510   5.305   1.631  16.888  0.2428  0.2718 -0.0908
 4032TIP3    H133511   5.212   1.647  16.904 -0.1585 -0.7196 -1.3271
 4032TIP3    H233512   5.350   1.698  16.940 -1.1440  0.5943  0.7257
 4033TIP3   OH233513   3.553   2.368   4.886 -0.0600 -0.2585 -0.5227
 4033TIP3    H133514   3.508   2.298   4.934  0.4119 -2.4715 -3.1781
 4033TIP3    H233515   3.640   2.372   4.925  0.6120 -2.6402 -1.6353
 4034TIP3   OH233516   0.895   0.431  12.773  0.3500  0.3653  0.7886
 4034TIP3    H133517   0.924   0.442  12.682  0.1869 -0.6750  0.6042
 4034TIP3    H233518   0.890   0.336  12.785 -1.7651  0.5057  1.2062
 4035TIP3   OH233519   5.625   6.148   3.914  0.0544 -0.1235  0.1681
 4035TIP3    H133520   5.572   6.182   3.842 -2.3123 -1.1723  1.3930
 4035TIP3    H233521   5.709   6.194   3.905 -0.5577  0.5724 -2.5902
 4036TIP3   OH233522   0.449   5.525   5.404  0.0359  0.0900  0.4424
 4036TIP3    H133523   0.501   5.588   5.353 -0.4937 -0.1415 -0.4010
 4036TIP3    H233524   0.513   5.482   5.461  0.5235  0.8740  0.4901
 4037TIP3   OH233525   0.465   6.744  13.099 -0.3501 -0.8234 -0.1781
 4037TIP3    H133526   0.403   6.673  13.111 -0.7097 -0.4167  0.3978
 4037TIP3    H233527   0.412   6.824  13.103  0.4127 -0.3822  2.1472
 4038TIP3   OH233528   4.545   0.268  10.366  1.1169 -0.7102  0.0692
 4038TIP3    H133529   4.542   0.351  10.413  0.3413 -1.1198  0.7684
 4038TIP3    H233530   4.515   0.289  10.277  1.7355 -0.0905  0.0085
 4039TIP3   OH233531   3.446   2.664   0.564 -0.5762 -0.0185  0.2893
 4039TIP3    H133532   3.366   2.692   0.609  1.0469  0.9309  2.6589
 4039TIP3    H233533   3.516   2.679   0.627  1.5039 -0.8511 -1.7444
 4040TIP3   OH233534   2.354   0.740  15.774  0.6096 -0.1438 -0.0806
 4040TIP3    H133535   2.307   0.786  15.705  0.4455 -0.7002 -0.3413
 4040TIP3    H233536   2.327   0.649  15.766  1.6115 -0.4467 -0.1328
 4041TIP3   OH233537   1.891   0.758   1.557 -0.0732 -0.0655  0.8924
 4041TIP3    H133538   1.803   0.779   1.527 -0.1599  0.2306  1.3368
 4041TIP3    H233539   1.901   0.809   1.638  0.7177  0.3694  0.5345
 4042TIP3   OH233540   0.895   3.321   0.424  0.3553  0.2517  0.2012
 4042TIP3    H133541   0.800   3.322   0.410  0.3039  0.4933  0.5767
 4042TIP3    H233542   0.906   3.352   0.514  0.8661  1.5264 -0.2857
 4043TIP3   OH233543   6.014   2.734  17.236 -0.5727 -0.4558 -0.3107
 4043TIP3    H133544   6.082   2.668  17.253 -0.8014 -0.5455  0.2550
 4043TIP3    H233545   6.048   2.814  17.276  0.0031 -0.0522 -1.5568
 4044TIP3   OH233546   4.346   1.711   4.649 -0.3360  0.5960 -0.6845
 4044TIP3    H133547   4.324   1.669   4.732 -2.1783  3.7882  0.5732
 4044TIP3    H233548   4.323   1.646   4.582 -1.0158 -1.1746  1.2175
 4045TIP3   OH233549   6.207   0.045   5.821 -0.8861  0.5500  0.5645
 4045TIP3    H133550   6.231   0.071   5.910 -0.6537  0.3458  0.5605
 4045TIP3    H233551   6.285   0.003   5.786 -0.5104  1.8977 -0.2406
 4046TIP3   OH233552   4.502   5.534   5.213  0.1064  0.1392  0.1794
 4046TIP3    H133553   4.409   5.524   5.193  0.1854  1.0549 -0.7028
 4046TIP3    H233554   4.536   5.588   5.142  0.7433  2.1435  1.9348
 4047TIP3   OH233555   4.221   5.859   6.136  0.4343  0.3527  0.0058
 4047TIP3    H133556   4.299   5.865   6.191  0.2670  1.3967  0.1284
 4047TIP3    H233557   4.152   5.829   6.196  0.5049  0.4190  0.1214
 4048TIP3   OH233558   4.457   0.028  13.692  0.3027 -0.0979 -0.4121
 4048TIP3    H133559   4.366   0.051  13.710  0.7736  1.3684  0.2371
 4048TIP3    H233560   4.507   0.106  13.719  1.8457 -1.3411  0.4184
 4049TIP3   OH233561   4.075   1.856   4.360  0.3729 -0.2671 -0.0672
 4049TIP3    H133562   4.023   1.913   4.417  0.9680 -0.4250  0.6306
 4049TIP3    H233563   4.055   1.887   4.271 -2.7599 -1.8206 -0.0061
 4050TIP3   OH233564   3.592   5.429  14.432 -0.3754 -0.1781  0.2907
 4050TIP3    H133565   3.584   5.334  14.426  0.6093 -0.2190 -0.6096
 4050TIP3    H233566   3.567   5.461  14.345  0.5619  0.2721  0.1698
 4051TIP3   OH233567   2.212   4.493  17.121 -0.4415 -0.0866  0.3963
 4051TIP3    H133568   2.170   4.499  17.206 -1.0066 -0.7863  0.1733
 4051TIP3    H233569   2.139   4.484  17.059 -0.0916  1.4515 -0.2669
 4052TIP3   OH233570   3.659   0.670   1.334  0.5334  0.4757  0.6780
 4052TIP3    H133571   3.619   0.663   1.247  1.1158  0.0767  0.4385
 4052TIP3    H233572   3.618   0.601   1.386 -1.1735  1.8955  1.2683
 4053TIP3   OH233573   2.528   6.781  13.808 -0.0576  0.1742 -0.3785
 4053TIP3    H133574   2.441   6.742  13.815 -0.0325 -0.1557 -1.8393
 4053TIP3    H233575   2.578   6.741  13.879 -1.1296  0.4692  0.5547
 4054TIP3   OH233576   0.659   5.934  11.557 -0.5941 -0.0775  0.2138
 4054TIP3    H133577   0.720   5.980  11.500 -0.5848 -0.4789 -0.1043
 4054TIP3    H233578   0.697   5.847  11.568 -0.4743  0.0663  1.0262
 4055TIP3   OH233579   6.173   5.866  14.524 -0.0935  0.4697  0.0442
 4055TIP3    H133580   6.164   5.960  14.509  1.0265  0.5748  0.0018
 4055TIP3    H233581   6.263   5.846  14.499 -0.2752 -0.5893  0.2003
 4056TIP3   OH233582   5.071   2.783   2.001  0.2274 -0.0379  0.1719
 4056TIP3    H133583   5.000   2.747   1.949 -0.8768  0.8511  1.0283
 4056TIP3    H233584   5.139   2.804   1.938  0.6602 -3.0052 -0.4099
 4057TIP3   OH233585   1.788   4.665   3.560  0.0634  0.1864 -0.8318
 4057TIP3    H133586   1.841   4.744   3.568 -1.5732  1.3856 -1.4224
 4057TIP3    H233587   1.846   4.594   3.584  1.3907  1.6367  0.3390
 4058TIP3   OH233588   2.719   3.187  11.567 -0.4796  0.0327 -0.1279
 4058TIP3    H133589   2.785   3.205  11.634 -1.1407  0.0682  0.5244
 4058TIP3    H233590   2.734   3.097  11.541  0.9503  0.5803 -1.2544
 4059TIP3   OH233591   3.301   2.026   6.279  0.0264  0.1161  0.7374
 4059TIP3    H133592   3.247   2.095   6.241  0.2394  0.2245  0.6328
 4059TIP3    H233593   3.389   2.063   6.283 -0.0183  0.1552  1.4688
 4060TIP3   OH233594   5.029   1.715   1.810 -0.2964 -0.1797  0.1408
 4060TIP3    H133595   5.099   1.724   1.746 -0.2806 -0.3872  0.1286
 4060TIP3    H233596   5.016   1.804   1.844 -0.9522  0.1116 -0.8317
 4061TIP3   OH233597   0.940   0.298  13.552  0.8389 -1.3627  0.3437
 4061TIP3    H133598   1.011   0.334  13.499 -0.0997 -1.8254 -1.2568
 4061TIP3    H233599   0.897   0.233  13.495 -3.9577  2.3467 -0.6523
 4062TIP3   OH233600   6.494   1.438   3.856  0.4855  0.6711 -0.2311
 4062TIP3    H133601   6.440   1.498   3.806 -2.1599 -0.7061  0.8323
 4062TIP3    H233602   6.487   1.470   3.946  0.3334 -0.2669  0.1006
 4063TIP3   OH233603   0.015   4.476   4.685 -0.3236 -0.1393 -0.2986
 4063TIP3    H133604  -0.060   4.530   4.661 -0.1562 -0.9706 -2.8373
 4063TIP3    H233605   0.004   4.459   4.779 -1.6372  2.2932  0.0244
 4064TIP3   OH233606   2.914   3.584   5.520  0.2738  0.3944  0.3005
 4064TIP3    H133607   2.930   3.587   5.614  1.2115  1.4663  0.1114
 4064TIP3    H233608   2.900   3.675   5.495 -2.3059 -0.0907 -0.2118
 4065TIP3   OH233609   3.345   3.716  11.182  0.3432  0.8352  1.0018
 4065TIP3    H133610   3.352   3.761  11.098  1.0806  1.0638  1.1859
 4065TIP3    H233611   3.265   3.751  11.221  0.8256  1.8735  1.0764
 4066TIP3   OH233612   5.526   4.741   4.898  0.6551  0.3232 -0.2245
 4066TIP3    H133613   5.451   4.720   4.842  1.2977 -0.0248 -0.9518
 4066TIP3    H233614   5.566   4.818   4.857 -0.3226  1.5876  1.1342
 4067TIP3   OH233615   1.478   1.199  15.531 -0.2824 -0.1499  0.7982
 4067TIP3    H133616   1.500   1.185  15.439  2.1264 -0.6991  1.4124
 4067TIP3    H233617   1.475   1.111  15.570 -0.6300  0.1123  1.3812
 4068TIP3   OH233618   0.891   2.705  11.155  0.3001  0.1549 -0.1008
 4068TIP3    H133619   0.815   2.683  11.209  0.1512  1.0979  0.0707
 4068TIP3    H233620   0.853   2.737  11.073  0.5083 -2.7346 -1.4054
 4069TIP3   OH233621   5.710   5.826  15.000 -0.4268  0.2003  0.0669
 4069TIP3    H133622   5.628   5.778  15.014  0.0706 -1.5168 -2.4589
 4069TIP3    H233623   5.684   5.903  14.949 -0.9366  1.6027  2.3733
 4070TIP3   OH233624   2.436   6.042  15.614 -0.2190  0.3710 -0.8470
 4070TIP3    H133625   2.473   6.120  15.656 -2.4239  2.1285 -2.0881
 4070TIP3    H233626   2.462   6.050  15.522 -1.2139  0.1216 -1.1556
 4071TIP3   OH233627   5.056   1.535   4.039 -0.8281 -0.3530  0.2068
 4071TIP3    H133628   5.101   1.534   3.954 -0.0061 -0.8743  0.6404
 4071TIP3    H233629   5.074   1.449   4.077 -1.4715 -0.2454  0.7676
 4072TIP3   OH233630   3.870   4.999   0.261  0.1727 -0.1709  0.2216
 4072TIP3    H133631   3.844   5.087   0.288  1.1984  0.9517 -2.2484
 4072TIP3    H233632   3.799   4.942   0.290  0.0744  1.2763  2.9523
 4073TIP3   OH233633   5.049   1.490   0.565  0.6710 -0.7985 -0.3736
 4073TIP3    H133634   4.983   1.535   0.512  0.7854 -1.0498 -0.7292
 4073TIP3    H233635   5.084   1.423   0.507  0.4174 -1.4262  0.1961
 4074TIP3   OH233636   4.913   6.563  17.091 -0.1350  0.3358  0.0009
 4074TIP3    H133637   4.972   6.548  17.165 -0.1288  1.7597  0.3066
 4074TIP3    H233638   4.926   6.656  17.069 -0.5111  0.0504 -1.4525
 4075TIP3   OH233639   4.262   6.170   2.557 -0.2375  0.1326  0.1466
 4075TIP3    H133640   4.300   6.104   2.615  0.0630 -0.9307 -1.2491
 4075TIP3    H233641   4.332   6.192   2.496 -1.6076 -1.4282 -2.0834
 4076TIP3   OH233642   2.233   4.326   3.176  0.1367 -0.9285  0.3858
 4076TIP3    H133643   2.215   4.418   3.193  0.6375 -0.8696  0.6073
 4076TIP3    H233644   2.246   4.287   3.263 -1.4371 -1.4950  0.3753
 4077TIP3   OH233645   5.279   2.421  15.271 -0.4007 -0.5773  0.4352
 4077TIP3    H133646   5.369   2.387  15.269 -0.3140 -0.3235 -2.4397
 4077TIP3    H233647   5.228   2.352  15.314  0.9214 -1.4228  0.6752
 4078TIP3   OH233648   6.082   2.956  12.985 -0.5514  0.4070 -0.6746
 4078TIP3    H133649   6.036   2.947  12.901 -2.0526 -0.1947  0.1925
 4078TIP3    H233650   6.086   2.867  13.020 -0.3108  0.7129  0.0850
 4079TIP3   OH233651   3.817   5.784  16.374  0.0156  0.4246  0.4144
 4079TIP3    H133652   3.740   5.770  16.429 -0.8348  0.2813 -0.7785
 4079TIP3    H233653   3.851   5.869  16.401 -1.0047  0.8328  0.4602
 4080TIP3   OH233654   1.750   0.087   4.142  0.0961 -0.2256 -0.2416
 4080TIP3    H133655   1.791   0.138   4.211 -2.2319 -0.0475  1.0670
 4080TIP3    H233656   1.723   0.151   4.077 -1.8844  0.1240  0.9047
 4081TIP3   OH233657   1.929   4.378  11.330 -0.2051 -0.0446 -0.2035
 4081TIP3    H133658   2.017   4.361  11.298 -0.5295  1.5397 -2.0043
 4081TIP3    H233659   1.871   4.352  11.259 -1.1791 -0.6516  0.7913
 4082TIP3   OH233660   1.220   1.065  17.199  0.1539 -0.1834 -0.5644
 4082TIP3    H133661   1.130   1.054  17.231  0.0112  0.5065 -0.7174
 4082TIP3    H233662   1.228   1.159  17.182  1.0524 -0.1803 -0.1246
 4083TIP3   OH233663   0.760   1.539   2.354 -0.3341 -0.1752  0.2539
 4083TIP3    H133664   0.832   1.504   2.301  1.1519  1.0662  1.3993
 4083TIP3    H233665   0.702   1.465   2.369  0.7799 -1.2339 -0.5699
 4084TIP3   OH233666   1.951   5.955   1.865  0.0706  0.5082  0.0755
 4084TIP3    H133667   1.932   6.033   1.813  4.2508  1.1400 -0.6866
 4084TIP3    H233668   1.950   5.883   1.801 -1.5663  0.2162  0.3954
 4085TIP3   OH233669   2.600   3.885  13.181 -0.2272 -0.0098 -0.1396
 4085TIP3    H133670   2.621   3.792  13.182  0.1258  0.0430 -1.6622
 4085TIP3    H233671   2.660   3.923  13.246  0.7110 -0.6189 -0.6347
 4086TIP3   OH233672   4.105   0.023  12.267 -0.2344  0.0956 -0.2115
 4086TIP3    H133673   4.091   0.010  12.361  2.1209  0.4729  0.2226
 4086TIP3    H233674   4.024   0.065  12.237 -0.2838  1.6732  2.0005
 4087TIP3   OH233675   4.752   3.283   3.007  0.3194 -0.6119  0.0149
 4087TIP3    H133676   4.685   3.344   2.978  0.5040 -1.7390 -2.9223
 4087TIP3    H233677   4.827   3.300   2.950  1.5155 -1.4013  1.2948
 4088TIP3   OH233678   2.492   5.314  14.034 -0.3442  0.3906 -0.4606
 4088TIP3    H133679   2.464   5.223  14.033  0.9595 -0.0409  0.8190
 4088TIP3    H233680   2.582   5.311  14.000  0.1081  1.0462  0.6609
 4089TIP3   OH233681   6.245   5.193   4.814  0.2815 -0.1823  0.0805
 4089TIP3    H133682   6.165   5.168   4.861  0.4264  0.1890  0.5421
 4089TIP3    H233683   6.297   5.240   4.880  0.6723 -0.0111 -0.3448
 4090TIP3   OH233684   0.728   6.327  16.708 -0.2121 -0.3069  0.3088
 4090TIP3    H133685   0.772   6.297  16.788  0.5103  0.7477  0.3099
 4090TIP3    H233686   0.772   6.279  16.637  1.3221  1.1238  0.2592
 4091TIP3   OH233687   2.183   3.522   4.615  0.1271  0.0777  0.6616
 4091TIP3    H133688   2.252   3.513   4.548 -0.9966  0.5131 -0.5671
 4091TIP3    H233689   2.147   3.609   4.601 -1.7199 -0.7386  0.3044
 4092TIP3   OH233690   3.809   6.688  16.628  0.0317 -0.0839 -0.0954
 4092TIP3    H133691   3.806   6.700  16.534  1.3247  0.1945 -0.0974
 4092TIP3    H233692   3.828   6.775  16.664  0.4535 -0.3623  0.3683
 4093TIP3   OH233693   2.780   1.765  12.441  0.7444 -0.2353  0.2150
 4093TIP3    H133694   2.851   1.709  12.473  0.4723 -0.7558 -0.0914
 4093TIP3    H233695   2.702   1.734  12.487  0.6021 -0.0702  0.0879
 4094TIP3   OH233696   4.094   1.318  12.093 -0.7138 -0.2810 -0.2823
 4094TIP3    H133697   4.158   1.379  12.056 -1.3043  0.4478 -0.1020
 4094TIP3    H233698   4.028   1.374  12.133 -2.7711 -0.9431 -2.5952
 4095TIP3   OH233699   6.009   3.578   3.202 -0.8195  0.1471  0.1897
 4095TIP3    H133700   5.919   3.557   3.228 -0.2844 -1.4893  0.8004
 4095TIP3    H233701   6.052   3.493   3.196  0.3108  0.8275 -1.5453
 4096TIP3   OH233702   5.918   0.040   2.818  0.7010  0.0890  0.2154
 4096TIP3    H133703   5.922  -0.055   2.808  0.8709 -0.0475  1.4918
 4096TIP3    H233704   5.976   0.074   2.749  0.3357 -0.7062 -0.4928
 4097TIP3   OH233705   1.998   1.335   5.667  0.1210  0.1360 -0.1555
 4097TIP3    H133706   2.018   1.243   5.685 -2.5366 -0.3118  0.7376
 4097TIP3    H233707   2.066   1.383   5.714  0.8589 -1.3504  0.3521
 4098TIP3   OH233708   3.418   0.691  12.955 -0.3519 -0.4085 -0.2487
 4098TIP3    H133709   3.408   0.707  13.049  1.1249  0.1911 -0.1725
 4098TIP3    H233710   3.373   0.764  12.913  0.0311 -0.0250  0.0066
 4099TIP3   OH233711   5.300   6.482   4.555 -0.0217 -0.6170 -0.0562
 4099TIP3    H133712   5.261   6.560   4.595 -0.1092 -0.8795  0.3756
 4099TIP3    H233713   5.323   6.426   4.629  0.4228 -0.8213 -0.3465
 4100TIP3   OH233714   1.138   3.128  16.214  0.1999 -0.0137  0.5350
 4100TIP3    H133715   1.206   3.179  16.171  0.2955  1.3954  2.2778
 4100TIP3    H233716   1.129   3.049  16.161  0.5002  1.5296 -1.8542
 4101TIP3   OH233717   2.748   2.078  16.158  0.0944  0.0039  0.2201
 4101TIP3    H133718   2.786   2.161  16.130  1.0256  0.1756  1.9105
 4101TIP3    H233719   2.811   2.012  16.130  0.0762  0.0064  0.1749
 4102TIP3   OH233720   6.250   4.432   3.522  0.4425 -0.1931 -0.5335
 4102TIP3    H133721   6.208   4.468   3.600  0.1741 -0.0193 -0.7558
 4102TIP3    H233722   6.275   4.343   3.547  0.7758  0.0190 -0.1014
 4103TIP3   OH233723   2.240   2.325   4.703 -0.3447 -0.2640  0.1487
 4103TIP3    H133724   2.296   2.330   4.780 -0.1498 -0.9984  0.0596
 4103TIP3    H233725   2.180   2.253   4.722 -1.4565  0.7178  0.3701
 4104TIP3   OH233726   0.983   0.855  14.304  0.1069  1.0160 -0.0910
 4104TIP3    H133727   1.031   0.785  14.349 -2.9271  0.1872  1.9650
 4104TIP3    H233728   1.044   0.885  14.236  2.2549 -2.2319  0.2713
 4105TIP3   OH233729   3.651   0.103  16.298  0.8703  0.2729 -0.1054
 4105TIP3    H133730   3.740   0.072  16.316  0.9093 -0.1273 -0.9310
 4105TIP3    H233731   3.620   0.138  16.381  1.1440 -1.2413  0.6440
 4106TIP3   OH233732   1.447   3.442  13.816 -0.1524 -0.7318  0.0801
 4106TIP3    H133733   1.475   3.463  13.905  0.2556 -2.2703  0.3254
 4106TIP3    H233734   1.423   3.527  13.777 -0.2302 -0.0466  1.6093
 4107TIP3   OH233735   5.311   1.784  13.462  0.2639  0.1413 -0.3176
 4107TIP3    H133736   5.264   1.804  13.382  1.1559 -1.9808 -1.4274
 4107TIP3    H233737   5.247   1.797  13.532 -0.5427  1.9290 -1.3646
 4108TIP3   OH233738   3.164   5.554  14.316 -0.1588  0.4655  0.1417
 4108TIP3    H133739   3.170   5.646  14.342 -1.1966  0.6701 -0.3299
 4108TIP3    H233740   3.147   5.557  14.221  1.1023 -0.2298 -0.1156
 4109TIP3   OH233741   1.355   1.822  14.433 -0.0744 -0.3562  0.2730
 4109TIP3    H133742   1.354   1.801  14.527  1.5759 -0.2321  0.3352
 4109TIP3    H233743   1.360   1.918  14.431  1.2472 -0.4186  0.0878
 4110TIP3   OH233744   6.215   1.725   5.266 -0.2538 -0.7050 -0.3282
 4110TIP3    H133745   6.168   1.752   5.344  0.9427 -0.8858  0.4648
 4110TIP3    H233746   6.185   1.785   5.198 -0.8652 -0.1770  0.4026
 4111TIP3   OH233747   4.322   5.269   6.094  0.4383  0.6377 -0.2211
 4111TIP3    H133748   4.330   5.297   6.186  0.7758  0.8634 -0.3186
 4111TIP3    H233749   4.274   5.340   6.052 -0.7873 -0.0317  0.0430
 4112TIP3   OH233750   0.864   3.308  16.014 -0.3128 -0.2553 -0.4258
 4112TIP3    H133751   0.897   3.225  16.049  1.5855  1.1230  1.1963
 4112TIP3    H233752   0.833   3.287  15.926  2.2318 -2.2525 -0.9011
 4113TIP3   OH233753   0.935   3.272   5.015 -0.1636 -0.4631 -0.7938
 4113TIP3    H133754   0.878   3.198   4.999 -1.1010  0.2474 -0.7820
 4113TIP3    H233755   0.979   3.251   5.097 -2.0570 -0.0305  0.3644
 4114TIP3   OH233756   4.767   1.573  11.837  0.5879  0.3782  0.2605
 4114TIP3    H133757   4.707   1.634  11.879  0.5252  0.1040  0.5746
 4114TIP3    H233758   4.712   1.518  11.782  0.2009 -1.5110  2.4688
 4115TIP3   OH233759   5.098   0.319   0.336  0.3884 -0.0401  0.6014
 4115TIP3    H133760   5.020   0.373   0.352 -0.0559 -0.4863 -0.0337
 4115TIP3    H233761   5.124   0.289   0.423 -0.5132 -0.3856  0.7568
 4116TIP3   OH233762   1.737   0.043  15.468  0.2108 -0.0122  0.4604
 4116TIP3    H133763   1.644   0.039  15.487 -0.5593 -0.3786 -3.0588
 4116TIP3    H233764   1.772  -0.040  15.501 -1.1213 -0.8472 -0.1925
 4117TIP3   OH233765   5.656   2.794   4.047  0.0770  0.1522  0.3774
 4117TIP3    H133766   5.705   2.777   3.967 -1.1553  0.8762 -0.5471
 4117TIP3    H233767   5.636   2.707   4.082  0.7884 -0.1631  0.0075
 4118TIP3   OH233768   1.629   0.762   0.659 -0.3613  0.2916  0.1040
 4118TIP3    H133769   1.642   0.673   0.624 -0.1849 -0.2661  1.5531
 4118TIP3    H233770   1.586   0.809   0.588  0.2404 -0.7419 -0.9651
 4119TIP3   OH233771   2.713   3.604  16.850 -0.1885  0.1754  0.2996
 4119TIP3    H133772   2.779   3.571  16.911  1.5552  0.1813 -1.5386
 4119TIP3    H233773   2.662   3.527  16.825  0.6715 -0.2548 -0.1293
 4120TIP3   OH233774   4.343   6.586   0.979 -0.3449 -0.2321 -0.2538
 4120TIP3    H133775   4.319   6.494   0.970  1.6366 -0.8811  0.7664
 4120TIP3    H233776   4.300   6.613   1.061 -0.7036 -0.3323 -0.4086
 4121TIP3   OH233777   5.295   1.553  13.845  0.2112  0.4850 -0.1535
 4121TIP3    H133778   5.277   1.508  13.928  2.2067 -0.0092  0.0496
 4121TIP3    H233779   5.266   1.643  13.860  0.4654  0.3756  1.0685
 4122TIP3   OH233780   2.240   1.805  14.595  0.1472  0.6531  0.7477
 4122TIP3    H133781   2.255   1.841  14.507 -0.2469 -0.8855  0.0352
 4122TIP3    H233782   2.268   1.874  14.654  2.3777  0.9367 -0.5922
 4123TIP3   OH233783   2.710   3.161  16.530 -0.0454 -0.6091  0.5541
 4123TIP3    H133784   2.708   3.120  16.444  0.6332 -1.1110  0.7783
 4123TIP3    H233785   2.720   3.255  16.512  3.4000 -0.9737  0.1126
 4124TIP3   OH233786   5.653   1.617  15.543 -0.2048  0.1076 -0.1888
 4124TIP3    H133787   5.632   1.701  15.503  2.9653  0.9126 -0.2844
 4124TIP3    H233788   5.727   1.635  15.601  0.0982 -2.4764  0.3136
 4125TIP3   OH233789   6.029   1.358   4.082 -0.0307 -0.6400 -0.3957
 4125TIP3    H133790   5.948   1.343   4.033  0.8902 -0.9438 -1.8818
 4125TIP3    H233791   6.062   1.270   4.101  0.3851 -0.5241 -0.5721
 4126TIP3   OH233792   1.529   6.732   3.221 -0.1434  0.0469  0.2348
 4126TIP3    H133793   1.588   6.718   3.295  1.4771 -1.5097 -1.2855
 4126TIP3    H233794   1.483   6.648   3.211 -1.0077  0.5418  0.0405
 4127TIP3   OH233795   0.095   0.121   0.259 -0.2183 -0.2768  0.7465
 4127TIP3    H133796   0.054   0.079   0.335  0.4772  0.3289  1.4653
 4127TIP3    H233797   0.136   0.049   0.211 -1.9401 -0.8682  0.1134
 4128TIP3   OH233798   2.495   4.208   2.143  0.2629 -0.1056  0.2145
 4128TIP3    H133799   2.509   4.274   2.211 -1.7964 -0.4522  1.0128
 4128TIP3    H233800   2.491   4.125   2.190  0.2594 -0.5137 -0.4912
 4129TIP3   OH233801   1.002   3.529   0.121 -0.8328  0.3534 -0.1843
 4129TIP3    H133802   1.023   3.567   0.206  0.2030 -1.5894  0.4695
 4129TIP3    H233803   1.048   3.445   0.120  2.6738  2.1249 -4.3804
 4130TIP3   OH233804   6.053   5.953  16.015 -0.4794  0.4312  0.3061
 4130TIP3    H133805   6.049   5.889  15.944 -0.6856  0.0619  0.6436
 4130TIP3    H233806   5.962   5.961  16.045 -0.3588  0.4072  0.6800
 4131TIP3   OH233807   6.207   4.123   2.514  0.1463  0.1232  0.6775
 4131TIP3    H133808   6.299   4.150   2.511  0.3655 -0.7664 -1.3456
 4131TIP3    H233809   6.209   4.037   2.555  0.2332  0.0101  0.4354
 4132TIP3   OH233810   6.401   5.658  11.146 -0.5616 -0.2500 -0.1121
 4132TIP3    H133811   6.450   5.608  11.081  0.9473 -0.4157  1.1243
 4132TIP3    H233812   6.450   5.647  11.228 -2.9412 -0.8791  1.3046
 4133TIP3   OH233813   1.558   1.424  13.702  0.4977  0.3470  0.4462
 4133TIP3    H133814   1.571   1.404  13.795  0.6398  2.1642  0.8220
 4133TIP3    H233815   1.630   1.379  13.658  2.0376  1.7273  1.4907
 4134TIP3   OH233816   1.572   1.698   3.518  0.1286 -0.2090 -0.2824
 4134TIP3    H133817   1.515   1.645   3.574 -0.4369  0.5318 -0.1452
 4134TIP3    H233818   1.512   1.753   3.468  0.7503  1.9006  1.1811
 4135TIP3   OH233819   2.511   1.717  11.526  0.2198 -0.1343  0.9361
 4135TIP3    H133820   2.567   1.678  11.459 -1.0581  0.4202 -0.4878
 4135TIP3    H233821   2.463   1.785  11.480 -0.4977  0.4209  2.4860
 4136TIP3   OH233822   1.485   5.478   3.388  0.5804 -0.3583 -0.0646
 4136TIP3    H133823   1.404   5.466   3.338  0.5014  1.2145 -0.3492
 4136TIP3    H233824   1.516   5.389   3.406 -0.6054 -0.9613 -0.9391
 4137TIP3   OH233825   2.894   2.421  11.210 -0.2889  0.2239  0.4122
 4137TIP3    H133826   2.893   2.326  11.206  0.5930  0.1992  0.6731
 4137TIP3    H233827   2.803   2.446  11.227 -0.4916 -0.5731  0.4916
 4138TIP3   OH233828   1.399   6.296  13.161  0.1204  0.2144  0.0403
 4138TIP3    H133829   1.335   6.261  13.099  1.4453 -0.2099 -1.1204
 4138TIP3    H233830   1.435   6.220  13.205  0.3196  0.4016  0.2039
 4139TIP3   OH233831   5.291   6.743   1.965 -0.2415  0.2623  0.4783
 4139TIP3    H133832   5.306   6.828   2.006 -1.7515  0.5902  0.3741
 4139TIP3    H233833   5.300   6.759   1.871  2.4901 -0.3389  0.6072
 4140TIP3   OH233834   3.553   0.605  15.248 -0.6233  0.1169 -0.1023
 4140TIP3    H133835   3.610   0.613  15.324 -0.2118  1.3944 -0.5420
 4140TIP3    H233836   3.605   0.555  15.184 -0.4906  0.1515 -0.0198
 4141TIP3   OH233837   4.518   0.526  12.874 -0.3427  0.4881 -0.0713
 4141TIP3    H133838   4.464   0.446  12.870  1.3546 -0.7755  1.5524
 4141TIP3    H233839   4.539   0.536  12.966  1.3304  1.5689 -0.5568
 4142TIP3   OH233840   3.784   6.553  15.621  0.1215 -0.2787  0.3400
 4142TIP3    H133841   3.876   6.560  15.647  0.7468 -0.3368 -1.7220
 4142TIP3    H233842   3.757   6.466  15.649  0.8971 -0.5119  0.3657
 4143TIP3   OH233843   4.300   0.744   0.873  0.4013 -0.1568  0.4252
 4143TIP3    H133844   4.289   0.656   0.835 -0.0852 -0.1041  0.4369
 4143TIP3    H233845   4.241   0.744   0.949 -1.9158  1.2113 -1.3238
 4144TIP3   OH233846   1.702   0.143  12.354  0.5792 -0.1334  0.2202
 4144TIP3    H133847   1.647   0.221  12.347 -1.6797 -1.6299  0.7233
 4144TIP3    H233848   1.690   0.097  12.270 -0.0297 -1.1635  0.8661
 4145TIP3   OH233849   3.464   2.240  15.071  0.4769 -0.3318  0.6283
 4145TIP3    H133850   3.488   2.276  14.986  1.2438 -0.8244  0.6377
 4145TIP3    H233851   3.478   2.146  15.063 -0.8163 -0.5655  0.8481
 4146TIP3   OH233852   0.209   2.147  11.939 -0.6720 -0.4021  0.5764
 4146TIP3    H133853   0.244   2.058  11.949  0.2908  0.0107  1.0007
 4146TIP3    H233854   0.179   2.151  11.848  1.1067 -0.5350 -0.0473
 4147TIP3   OH233855   2.554   5.753  14.719  0.0841 -0.4412  0.0437
 4147TIP3    H133856   2.601   5.835  14.735 -0.2358 -0.4024  0.8482
 4147TIP3    H233857   2.521   5.728  14.806  0.3272 -1.5096 -0.1726
 4148TIP3   OH233858   2.895   3.359   1.483  0.0300  0.4462  0.2582
 4148TIP3    H133859   2.818   3.350   1.427  0.4225  1.7851 -0.5163
 4148TIP3    H233860   2.929   3.270   1.492 -0.8256  0.0364 -0.5036
 4149TIP3   OH233861   5.179   4.610   5.678 -0.0075 -0.1940  0.2085
 4149TIP3    H133862   5.218   4.593   5.592 -0.6824 -1.2321  0.0989
 4149TIP3    H233863   5.096   4.654   5.658  0.7145  1.2627  0.4068
 4150TIP3   OH233864   1.480   2.376  12.384  0.8584 -0.0988 -0.3692
 4150TIP3    H133865   1.507   2.440  12.319  0.4105 -0.0218 -0.4782
 4150TIP3    H233866   1.483   2.423  12.467  1.6701 -0.2653 -0.3013
 4151TIP3   OH233867   6.074   0.403  16.927 -0.1098 -0.4377  0.2646
 4151TIP3    H133868   6.158   0.358  16.922  1.0926  2.0125 -3.0938
 4151TIP3    H233869   6.011   0.339  16.895  0.7776 -1.4950  0.5834
 4152TIP3   OH233870   3.583   5.737  16.530  0.2160 -0.5451  0.0978
 4152TIP3    H133871   3.595   5.649  16.566 -0.4464 -0.5855  0.2419
 4152TIP3    H233872   3.593   5.795  16.605 -0.4925 -0.5838  0.2340
 4153TIP3   OH233873   3.213   4.754   5.971 -0.1148  0.0116  0.0561
 4153TIP3    H133874   3.255   4.760   5.885 -1.1054  0.4913 -0.4075
 4153TIP3    H233875   3.260   4.818   6.024 -0.0020  0.2804 -0.3559
 4154TIP3   OH233876   1.071   4.369   4.195 -0.1092 -0.2076  0.4066
 4154TIP3    H133877   0.993   4.315   4.208 -0.9634  0.6095 -1.2392
 4154TIP3    H233878   1.040   4.459   4.204  0.6593  0.1214 -0.1374
 4155TIP3   OH233879   2.514   2.367   1.476 -0.4349  0.9562 -0.1528
 4155TIP3    H133880   2.477   2.292   1.430  0.0491  0.5226  0.1585
 4155TIP3    H233881   2.456   2.380   1.551 -1.0699  1.4953 -0.7373
 4156TIP3   OH233882   1.958   1.095  12.576 -0.5180  0.0909 -0.0583
 4156TIP3    H133883   1.970   1.187  12.553 -0.7804 -0.2620 -1.6991
 4156TIP3    H233884   2.043   1.067  12.608 -0.2651  0.7412 -0.1563
 4157TIP3   OH233885   5.453   2.352   4.020  0.0356 -0.6075  0.2844
 4157TIP3    H133886   5.366   2.316   4.040 -0.2001  0.2255  0.7916
 4157TIP3    H233887   5.514   2.296   4.069 -0.3740  0.0282  1.5468
 4158TIP3   OH233888   3.864   1.413  15.382 -0.0294 -0.3336 -0.2240
 4158TIP3    H133889   3.835   1.480  15.320 -0.5327 -0.5921 -0.2773
 4158TIP3    H233890   3.864   1.332  15.331 -0.1824 -0.5014  0.0410
 4159TIP3   OH233891   4.265   2.423  15.790  0.4534 -0.3525  0.6403
 4159TIP3    H133892   4.286   2.334  15.761  1.3459  0.1109 -0.1560
 4159TIP3    H233893   4.243   2.470  15.710  1.7206  0.6165  0.8569
 4160TIP3   OH233894   0.738   1.393  12.955 -0.2982 -0.1390  0.6290
 4160TIP3    H133895   0.783   1.360  12.877  0.0335  0.4205  0.5771
 4160TIP3    H233896   0.646   1.370  12.941 -0.1841 -0.3763  0.2465
 4161TIP3   OH233897   6.167   6.705   1.848  0.2248  0.3355  0.2345
 4161TIP3    H133898   6.209   6.778   1.895  2.0382  0.5511 -1.6839
 4161TIP3    H233899   6.224   6.687   1.774 -2.5772 -0.0184 -1.9384
 4162TIP3   OH233900   2.272   6.607  12.866  0.2511  0.3483 -0.6981
 4162TIP3    H133901   2.298   6.676  12.804 -0.2133  1.2034  0.0553
 4162TIP3    H233902   2.178   6.596  12.851  0.0500  0.8597  0.1366
 4163TIP3   OH233903   0.271   0.477  17.036 -0.0156  0.3525  0.7196
 4163TIP3    H133904   0.345   0.446  17.089  1.9764 -0.7338 -2.5138
 4163TIP3    H233905   0.244   0.400  16.986  0.0939  2.0117 -1.9758
 4164TIP3   OH233906   0.626   6.067  12.756 -0.4872  0.3054  0.0633
 4164TIP3    H133907   0.626   6.085  12.662  2.9413  1.8223  0.2814
 4164TIP3    H233908   0.555   6.120  12.791 -0.7659  0.9455 -1.4507
 4165TIP3   OH233909   2.788   5.804  17.100 -0.1140 -0.2086  0.4315
 4165TIP3    H133910   2.868   5.842  17.137  0.7393 -0.9206 -0.6795
 4165TIP3    H233911   2.762   5.865  17.031  0.2071 -0.6611 -0.0901
 4166TIP3   OH233912   2.498   6.084  15.922  0.5164  0.2904 -0.1873
 4166TIP3    H133913   2.473   6.045  15.838 -1.3743 -0.8504  0.8677
 4166TIP3    H233914   2.423   6.139  15.946  0.6176 -0.1694  1.2184
 4167TIP3   OH233915   1.065   0.720  14.712 -0.6178 -0.1306 -0.0796
 4167TIP3    H133916   1.068   0.664  14.789  0.0112 -0.2372 -0.1767
 4167TIP3    H233917   1.154   0.754  14.704 -0.4976 -0.6801 -1.1644
 4168TIP3   OH233918   0.273   6.518   1.619 -0.3018 -0.0292  0.8195
 4168TIP3    H133919   0.292   6.581   1.689 -0.4218  0.5878  0.3017
 4168TIP3    H233920   0.206   6.460   1.656  0.0166 -0.0373  1.3992
 4169TIP3   OH233921   5.094   3.536   2.090  0.0028 -0.2469  0.3250
 4169TIP3    H133922   5.101   3.440   2.091  0.2031 -0.2775 -1.5388
 4169TIP3    H233923   5.184   3.566   2.085 -0.1493 -0.0604 -1.8931
 4170TIP3   OH233924   0.658   6.196   3.480  0.6982 -0.2892  0.0535
 4170TIP3    H133925   0.566   6.189   3.505  0.7654 -2.0954 -0.1896
 4170TIP3    H233926   0.687   6.278   3.520 -0.1110 -1.3834  3.0131
 4171TIP3   OH233927   1.326   6.637  13.817  0.1657  0.5214 -0.1692
 4171TIP3    H133928   1.419   6.654  13.836 -0.2031  1.4870  0.7848
 4171TIP3    H233929   1.327   6.595  13.731  1.5470 -0.1345  0.1472
 4172TIP3   OH233930   1.433   4.995  17.223  0.3119  0.1781 -0.4728
 4172TIP3    H133931   1.449   4.918  17.168  0.9320  1.0255 -1.4901
 4172TIP3    H233932   1.519   5.034  17.236 -0.1334  1.2692 -0.8064
 4173TIP3   OH233933   6.344   5.448   0.680 -0.3620 -0.0507 -0.3901
 4173TIP3    H133934   6.398   5.394   0.622  0.5298  0.6199 -0.2051
 4173TIP3    H233935   6.270   5.476   0.626  0.5500  0.7139 -1.2667
 4174TIP3   OH233936   3.005   0.036  15.298 -0.6510  0.0637  0.4523
 4174TIP3    H133937   2.951  -0.024  15.248  0.1848  0.0441 -0.4547
 4174TIP3    H233938   3.094   0.023  15.264 -0.0890  0.1677  1.8271
 4175TIP3   OH233939   1.060   4.768  14.671 -0.3407  0.7971  0.3554
 4175TIP3    H133940   0.965   4.767  14.681 -0.3847  0.9238 -0.0341
 4175TIP3    H233941   1.076   4.827  14.598  0.0867  1.4376  0.9555
 4176TIP3   OH233942   0.330   4.205  16.188 -0.0301 -0.4958  0.1819
 4176TIP3    H133943   0.328   4.290  16.145 -0.0130 -1.0688 -0.9955
 4176TIP3    H233944   0.420   4.175  16.179 -0.6483 -1.8656 -1.9575
 4177TIP3   OH233945   6.784   6.398   6.400  0.0939  0.3550  0.1194
 4177TIP3    H133946   6.866   6.441   6.377 -0.2485  1.7490  1.4432
 4177TIP3    H233947   6.808   6.306   6.411  1.6201  0.8504  1.1190
 4178TIP3   OH233948   5.374   6.524  15.033 -0.1783  0.1620 -0.1066
 4178TIP3    H133949   5.427   6.591  14.991  0.1610 -0.2760 -0.3815
 4178TIP3    H233950   5.310   6.573  15.086  2.1288  0.6973  2.2803
 4179TIP3   OH233951   1.323   4.912  13.913  0.0911  0.0447  0.8571
 4179TIP3    H133952   1.368   4.991  13.882  0.4255 -0.1479  0.8388
 4179TIP3    H233953   1.251   4.945  13.967 -0.0967  0.3686  0.4127
 4180TIP3   OH233954   4.078   1.048   4.222 -0.2241  0.1389 -0.0369
 4180TIP3    H133955   4.076   0.996   4.302  0.6992  2.2565  1.4120
 4180TIP3    H233956   4.096   0.985   4.152 -0.9048 -1.7112  1.4403
 4181TIP3   OH233957   1.288   4.597   2.360 -0.2229 -0.1089 -0.5022
 4181TIP3    H133958   1.270   4.542   2.285 -0.0835 -4.5465  2.5227
 4181TIP3    H233959   1.217   4.579   2.422  0.7517  1.8323  1.2721
 4182TIP3   OH233960   3.673   1.871   2.474 -0.2248 -0.0972 -0.0596
 4182TIP3    H133961   3.581   1.851   2.490 -0.2864  0.9160  0.9572
 4182TIP3    H233962   3.721   1.813   2.532 -0.2442 -0.1939 -0.1402
 4183TIP3   OH233963   5.124   3.962  13.433  0.7035 -0.0047  0.1369
 4183TIP3    H133964   5.193   3.972  13.367 -0.4992 -0.1743 -1.1616
 4183TIP3    H233965   5.157   3.894  13.491  0.9983 -1.1619 -1.3342
 4184TIP3   OH233966   4.348   5.571   3.029 -0.1806 -0.2680 -0.3377
 4184TIP3    H133967   4.403   5.616   3.093  0.3123 -0.7404 -0.4243
 4184TIP3    H233968   4.329   5.486   3.068 -3.5550  1.0609  1.1283
 4185TIP3   OH233969   0.386   2.040   0.589 -0.4065 -0.4486  0.2721
 4185TIP3    H133970   0.477   2.016   0.603 -0.1290 -1.0284 -2.2049
 4185TIP3    H233971   0.379   2.130   0.621  0.0190 -1.7136  4.0918
 4186TIP3   OH233972   1.991   2.060   3.179  0.2479 -0.1626  0.2092
 4186TIP3    H133973   1.988   1.971   3.145 -0.8602 -0.5164  1.2115
 4186TIP3    H233974   1.905   2.097   3.158 -0.1407 -0.1113  1.8413
 4187TIP3   OH233975   2.049   4.556  12.383 -0.1328  0.2094 -0.5554
 4187TIP3    H133976   2.110   4.552  12.309  0.8466  0.5381  0.2255
 4187TIP3    H233977   2.101   4.530  12.459 -0.3352  2.7838  0.5148
 4188TIP3   OH233978   1.071   1.801  12.685  0.1798  0.3236  0.4040
 4188TIP3    H133979   0.993   1.856  12.676 -1.7007 -2.4867 -0.8837
 4188TIP3    H233980   1.061   1.759  12.771  0.3676  0.0733  0.3023
 4189TIP3   OH233981   3.246   2.074   0.428 -0.4347 -0.5879 -0.5388
 4189TIP3    H133982   3.261   1.996   0.375  0.0449  0.2060 -1.5998
 4189TIP3    H233983   3.333   2.113   0.438 -0.4119 -1.0866  1.4264
 4190TIP3   OH233984   1.673   5.455  14.736 -0.0094 -0.1522  0.1300
 4190TIP3    H133985   1.671   5.521  14.667 -0.2332  1.0075  1.2144
 4190TIP3    H233986   1.632   5.378  14.698 -0.2339  0.5175 -0.9856
 4191TIP3   OH233987   6.040   6.098  12.104 -0.3336 -0.1025 -0.0069
 4191TIP3    H133988   6.042   6.139  12.190 -0.6789  0.2277 -0.1558
 4191TIP3    H233989   6.109   6.032  12.107 -0.0788  0.1816  0.3858
 4192TIP3   OH233990   4.975   1.066   0.566  0.4808 -0.1348  0.0328
 4192TIP3    H133991   5.001   1.000   0.502  0.5823 -1.1646  1.1294
 4192TIP3    H233992   5.028   1.047   0.643  0.0335  0.8216  0.5857
 4193TIP3   OH233993   4.776   5.317  11.933 -0.3249  0.1452 -0.4030
 4193TIP3    H133994   4.763   5.377  12.007  0.0052 -0.3290  0.0432
 4193TIP3    H233995   4.724   5.240  11.956  3.0035 -1.6752  1.2835
 4194TIP3   OH233996   6.745   2.743  14.185  0.8323  0.8656  0.1357
 4194TIP3    H133997   6.815   2.808  14.197  2.0381 -0.5960  1.2964
 4194TIP3    H233998   6.698   2.743  14.268  1.0120  0.0870  0.2464
 4195TIP3   OH233999   4.862   1.569   3.115 -0.2148  0.3291  0.0502
 4195TIP3    H134000   4.807   1.593   3.040 -3.8740 -2.1255  1.8084
 4195TIP3    H234001   4.892   1.480   3.095 -1.6333 -0.5352  1.6868
 4196TIP3   OH234002   5.755   6.516   5.497  0.3874  0.3301 -0.3165
 4196TIP3    H134003   5.791   6.430   5.519  0.6932 -0.0001 -2.0140
 4196TIP3    H234004   5.830   6.566   5.464  0.1178  1.0995  0.2245
 4197TIP3   OH234005   0.560   0.341  13.487 -0.5210 -0.1594 -0.2656
 4197TIP3    H134006   0.481   0.288  13.480  0.2643 -1.5284  0.7795
 4197TIP3    H234007   0.631   0.280  13.466  0.4023  0.4614  0.9652
 4198TIP3   OH234008   5.432   0.885   1.819  0.2115 -0.1889  0.1635
 4198TIP3    H134009   5.496   0.817   1.838 -0.3111 -1.2350 -1.6849
 4198TIP3    H234010   5.460   0.961   1.871  3.3446 -0.3760 -1.1676
 4199TIP3   OH234011   1.756   5.547   5.533 -0.3051  0.6352  0.2354
 4199TIP3    H134012   1.838   5.596   5.522 -0.9481  1.8291  0.5683
 4199TIP3    H234013   1.711   5.592   5.606 -1.1385 -0.1555  0.2215
 4200TIP3   OH234014   4.406   6.193  17.009 -0.0214 -0.3222  0.2565
 4200TIP3    H134015   4.420   6.149  16.925  0.2602  2.2614 -1.0951
 4200TIP3    H234016   4.361   6.274  16.987 -0.0522  0.3624  2.6487
 4201TIP3   OH234017   0.566   0.427   3.560  0.4714  0.0398 -0.0127
 4201TIP3    H134018   0.599   0.341   3.536 -0.4076 -0.6541  1.1873
 4201TIP3    H234019   0.470   0.419   3.553  0.3395  0.6260  1.0296
 4202TIP3   OH234020   1.662   5.639  13.538 -0.5367  0.0093 -0.0625
 4202TIP3    H134021   1.577   5.678  13.559 -0.9859 -0.8218 -0.3070
 4202TIP3    H234022   1.654   5.610  13.447  0.9255  2.3484 -0.9822
 4203TIP3   OH234023   6.407   6.292  15.658  0.5243 -0.1616  0.0401
 4203TIP3    H134024   6.497   6.298  15.626  0.8584 -0.1769  0.9440
 4203TIP3    H234025   6.368   6.219  15.609  1.2257 -0.6204  0.1700
 4204TIP3   OH234026   3.709   4.890  12.338 -0.0413 -0.3871 -0.1643
 4204TIP3    H134027   3.653   4.812  12.340 -1.5020  0.6464  2.3809
 4204TIP3    H234028   3.648   4.962  12.320  0.6785  0.6175  1.3753
 4205TIP3   OH234029   1.364   1.023   5.883 -0.0104  0.1429 -0.0272
 4205TIP3    H134030   1.335   1.071   5.961  2.0796  1.0049  0.2413
 4205TIP3    H234031   1.311   0.943   5.884 -0.4478  0.4217  1.9470
 4206TIP3   OH234032   1.374   1.845  13.478  0.1356  0.0374  0.6859
 4206TIP3    H134033   1.368   1.843  13.382  0.5690  1.8182  0.6125
 4206TIP3    H234034   1.309   1.910  13.505  0.1939 -0.2756  1.5964
 4207TIP3   OH234035   2.451   1.603   2.116 -0.4046 -0.3626  0.2858
 4207TIP3    H134036   2.512   1.529   2.117 -1.1709 -1.0102 -0.1340
 4207TIP3    H234037   2.384   1.578   2.180 -0.3347  0.2554  0.5975
 4208TIP3   OH234038   1.874   1.000   5.439 -0.1105 -0.0415  0.8393
 4208TIP3    H134039   1.865   0.957   5.524 -0.1978 -0.2258  0.7387
 4208TIP3    H234040   1.945   1.063   5.450  1.7212 -1.9476  0.2873
 4209TIP3   OH234041   2.711   2.814  16.000 -0.0771  0.0055 -0.5188
 4209TIP3    H134042   2.780   2.764  16.042  0.2334 -0.9497 -2.0991
 4209TIP3    H234043   2.738   2.906  16.009  1.2962 -0.3465 -0.9251
 4210TIP3   OH234044   2.281   4.432  13.647  0.2334  0.0195 -0.8900
 4210TIP3    H134045   2.246   4.467  13.729  1.5442  0.8209 -0.6438
 4210TIP3    H234046   2.336   4.358  13.674  0.7577  0.3556 -1.0313
 4211TIP3   OH234047   5.800   6.409   3.673  0.2011 -0.1406 -0.4959
 4211TIP3    H134048   5.784   6.429   3.581  0.3472  0.3835 -0.4105
 4211TIP3    H234049   5.802   6.313   3.677  3.6441 -0.2019 -1.6475
 4212TIP3   OH234050   3.161   2.918   2.981 -0.1575 -0.2145  0.3810
 4212TIP3    H134051   3.130   2.840   3.026  1.2908 -0.8019  0.3689
 4212TIP3    H234052   3.144   2.990   3.042 -1.0027 -0.5882  0.5995
 4213TIP3   OH234053   1.380   0.331   3.702  0.7940  0.3300  0.2282
 4213TIP3    H134054   1.300   0.279   3.698  1.5892 -0.9557  0.7244
 4213TIP3    H234055   1.370   0.385   3.780  1.1589 -1.0866  1.2583
 4214TIP3   OH234056   4.269   5.945  13.759 -0.0425  0.2429 -0.7743
 4214TIP3    H134057   4.207   5.939  13.687 -0.0107  2.7422 -1.0727
 4214TIP3    H234058   4.339   5.883  13.736 -1.5527 -1.2879 -1.3007
 4215TIP3   OH234059   2.011   1.925  15.523  0.3384  0.1653 -0.2113
 4215TIP3    H134060   1.933   1.875  15.546  0.0958  0.7296  0.2089
 4215TIP3    H234061   2.046   1.956  15.606  1.9235 -1.3991 -0.2701
 4216TIP3   OH234062   6.401   4.693  17.126  0.6686 -0.5656 -0.1225
 4216TIP3    H134063   6.460   4.725  17.057  1.1594 -1.1132  0.0384
 4216TIP3    H234064   6.345   4.630  17.082 -0.5857  0.8157 -0.5368
 4217TIP3   OH234065   1.696   0.443  15.975  0.1006 -0.0825  0.2138
 4217TIP3    H134066   1.639   0.430  16.051  1.4645  2.3232  1.7280
 4217TIP3    H234067   1.740   0.358  15.963 -0.0428 -0.4617  2.2228
 4218TIP3   OH234068   0.170   1.758   1.497  0.2974 -0.3557 -0.0631
 4218TIP3    H134069   0.214   1.704   1.431 -0.5232 -0.1122 -0.8175
 4218TIP3    H234070   0.169   1.845   1.459 -0.7353 -0.3392  0.0036
 4219TIP3   OH234071   3.080   6.480  15.565  0.2657  1.0516 -0.2759
 4219TIP3    H134072   3.139   6.476  15.490 -0.3385  1.0949 -0.7587
 4219TIP3    H234073   3.114   6.414  15.626  2.6256  3.1651  0.7945
 4220TIP3   OH234074   0.896   2.122   2.817 -0.7614  0.0184 -0.4588
 4220TIP3    H134075   0.939   2.037   2.806  0.4720  0.7080 -1.0580
 4220TIP3    H234076   0.811   2.112   2.774 -0.5327 -0.8433 -0.7074
 4221TIP3   OH234077   2.387   4.870   1.550 -0.1711  0.2943 -0.0156
 4221TIP3    H134078   2.370   4.834   1.463  2.4117  1.3480 -0.9967
 4221TIP3    H234079   2.360   4.962   1.543 -0.1695  0.3254  0.3852
 4222TIP3   OH234080   4.435   6.106  11.345  0.1083 -0.0061 -0.5893
 4222TIP3    H134081   4.408   6.118  11.254 -0.3315  2.2171 -0.1999
 4222TIP3    H234082   4.374   6.041  11.381  0.6255 -1.2898 -2.0145
 4223TIP3   OH234083   2.731   1.231  16.360  0.3372  0.2931 -0.5983
 4223TIP3    H134084   2.818   1.234  16.321  1.2844  0.1482  1.4077
 4223TIP3    H234085   2.671   1.238  16.286  2.0465  0.7923 -1.9773
 4224TIP3   OH234086   3.982   0.994  14.966 -0.7283  0.0185 -0.0544
 4224TIP3    H134087   3.916   1.062  14.979 -1.1893 -0.4212 -0.0478
 4224TIP3    H234088   4.062   1.031  15.002 -0.6834  1.0520 -1.2103
 4225TIP3   OH234089   5.733   2.993   3.661  0.3587 -0.3131 -0.1337
 4225TIP3    H134090   5.672   3.003   3.587 -0.1164 -1.1239  0.1459
 4225TIP3    H234091   5.678   2.995   3.739  0.5314 -2.2806  0.0686
 4226TIP3   OH234092   3.710   0.240   0.028 -0.5057  0.5183  0.6766
 4226TIP3    H134093   3.671   0.164   0.073 -0.7060  0.6129  0.6617
 4226TIP3    H234094   3.803   0.235   0.050 -0.4898  0.1673  0.5303
 4227TIP3   OH234095   1.592   2.519   2.549  0.3058  0.4540 -0.1079
 4227TIP3    H134096   1.654   2.447   2.560  1.8834  1.6939 -0.7727
 4227TIP3    H234097   1.510   2.484   2.584  0.9408 -1.7856 -0.7326
 4228TIP3   OH234098   5.633   1.729   2.276  0.2785 -0.3315  0.2023
 4228TIP3    H134099   5.633   1.818   2.241  0.3453 -0.4044  0.0142
 4228TIP3    H234100   5.547   1.694   2.253 -0.1488  0.0434  1.2033
 4229TIP3   OH234101   0.990   0.699   1.584  0.2494 -0.8875  0.5370
 4229TIP3    H134102   1.010   0.613   1.619  1.9889 -0.9076 -0.4387
 4229TIP3    H234103   0.913   0.728   1.632  0.9841 -2.0439  2.4406
 4230TIP3   OH234104   1.214   2.050  16.530  0.5660  0.1206  0.3989
 4230TIP3    H134105   1.169   1.967  16.511 -0.0936  0.5243  0.1713
 4230TIP3    H234106   1.166   2.085  16.606  2.0110 -0.5927  1.6662
 4231TIP3   OH234107   5.327   0.258  13.519 -0.1940  0.0216 -0.3415
 4231TIP3    H134108   5.323   0.162  13.511  1.6036 -0.2122  1.1859
 4231TIP3    H234109   5.263   0.279  13.586 -0.8771 -0.0582 -0.9598
 4232TIP3   OH234110   4.913   1.194   5.996  0.7279 -0.4329  0.0068
 4232TIP3    H134111   4.863   1.168   6.073  1.8140  0.1312  0.9085
 4232TIP3    H234112   4.870   1.274   5.966  0.6119 -0.3774  0.3213
 4233TIP3   OH234113   0.033   4.342  11.873 -0.0781 -0.0108  0.0922
 4233TIP3    H134114   0.102   4.335  11.807  0.2618  1.5514  0.2556
 4233TIP3    H234115  -0.023   4.413  11.843 -0.7686 -0.2760  0.7307
 4234TIP3   OH234116   4.423   2.888   3.836 -0.1122  0.7632 -0.7486
 4234TIP3    H134117   4.467   2.962   3.878  1.8037 -0.2546 -0.9259
 4234TIP3    H234118   4.482   2.860   3.766 -1.8914  0.5235 -2.2062
 4235TIP3   OH234119   1.372   3.510  15.289 -0.1510  0.6282 -0.2527
 4235TIP3    H134120   1.314   3.551  15.353 -2.0214  1.5470 -2.4689
 4235TIP3    H234121   1.374   3.571  15.215  0.0150 -1.5052 -2.0726
 4236TIP3   OH234122   4.999   3.794  16.577 -0.8265  0.7751  0.1549
 4236TIP3    H134123   5.064   3.849  16.533 -1.5285 -1.0148 -3.3005
 4236TIP3    H234124   5.051   3.739  16.636  0.2973  2.3003  0.6387
 4237TIP3   OH234125   6.400   2.431  16.595 -1.0057 -0.1284  0.1142
 4237TIP3    H134126   6.373   2.502  16.537  0.6673  0.7055  0.3290
 4237TIP3    H234127   6.318   2.399  16.632 -1.9191  0.6312 -1.2030
 4238TIP3   OH234128   6.710   3.414  15.577  0.0291  0.0103 -0.0188
 4238TIP3    H134129   6.724   3.509  15.568 -0.9270  0.3452  1.6597
 4238TIP3    H234130   6.737   3.395  15.667 -1.9265 -0.8737  0.4166
 4239TIP3   OH234131   6.042   1.948   1.852  0.6716 -0.0971 -0.2628
 4239TIP3    H134132   6.005   2.034   1.832 -1.6142 -0.7360  1.1042
 4239TIP3    H234133   5.993   1.887   1.797  2.4424 -0.5615 -1.4021
 4240TIP3   OH234134   1.083   2.381  16.093 -0.1154 -0.3619  0.3145
 4240TIP3    H134135   1.158   2.372  16.035 -0.2543 -2.2228  0.3733
 4240TIP3    H234136   1.010   2.340  16.046 -1.4316  2.5487 -0.2888
 4241TIP3   OH234137   1.166   5.279  15.603 -0.1047  0.4919 -0.0665
 4241TIP3    H134138   1.098   5.345  15.591 -0.4555  0.3980  1.3947
 4241TIP3    H234139   1.247   5.323  15.574 -0.6223  0.9103 -0.9081
 4242TIP3   OH234140   4.305   2.326   5.763  0.6224 -0.0422 -0.3385
 4242TIP3    H134141   4.334   2.387   5.831  0.9486 -1.3401  0.7055
 4242TIP3    H234142   4.281   2.247   5.810  0.9732 -1.0137 -1.7563
 4243TIP3   OH234143   5.928   4.522  12.146  0.1867  0.0968 -0.1856
 4243TIP3    H134144   5.946   4.577  12.070 -1.6886  1.1162  0.0897
 4243TIP3    H234145   5.833   4.518  12.151  0.2828 -1.8321  0.7868
 4244TIP3   OH234146   4.056   3.596  13.243 -0.3041  0.1280 -0.2188
 4244TIP3    H134147   4.076   3.661  13.175 -0.4604  0.8118  0.3877
 4244TIP3    H234148   4.123   3.608  13.309 -0.4767 -0.1673  0.0111
 4245TIP3   OH234149   1.380   3.391  16.275 -0.3112 -0.0414  0.3963
 4245TIP3    H134150   1.342   3.453  16.213  0.9553  0.3677  0.0161
 4245TIP3    H234151   1.384   3.309  16.227 -0.9979 -0.1535  0.5386
 4246TIP3   OH234152   1.227   3.997  16.704  0.8100  0.1900 -0.1480
 4246TIP3    H134153   1.271   4.005  16.620  0.0976 -0.8853 -0.6304
 4246TIP3    H234154   1.170   3.921  16.694 -1.1758  1.5659  0.4508
 4247TIP3   OH234155   6.699   0.007   3.239 -0.2076  0.0142  0.3114
 4247TIP3    H134156   6.706   0.037   3.148 -2.1228  0.8634  0.4430
 4247TIP3    H234157   6.790  -0.004   3.266  0.3928 -0.6964 -1.8531
 4248TIP3   OH234158   5.290   0.841  14.507  0.0433 -0.7929 -0.2695
 4248TIP3    H134159   5.379   0.864  14.477  0.5607 -0.9618  1.0975
 4248TIP3    H234160   5.302   0.816  14.598 -1.7719  1.5358  0.6559
 4249TIP3   OH234161   3.387   5.803  11.790 -0.0998  0.2107  0.1797
 4249TIP3    H134162   3.400   5.806  11.885  0.3096 -0.4926  0.1460
 4249TIP3    H234163   3.408   5.892  11.761  1.5429 -0.0594  0.5216
 4250TIP3   OH234164   1.930   0.079  11.430  0.5275  0.2897 -0.1594
 4250TIP3    H134165   2.004   0.060  11.373 -0.1227 -0.3872 -0.8020
 4250TIP3    H234166   1.875   0.138  11.379 -0.3653 -0.8097 -0.4983
 4251TIP3   OH234167   4.286   1.593  16.927  0.0192 -0.1982  0.3846
 4251TIP3    H134168   4.313   1.546  17.005  0.1200 -2.8748 -1.2102
 4251TIP3    H234169   4.206   1.638  16.952  1.3753  1.0298  2.7195
 4252TIP3   OH234170   4.743   2.759  13.082 -0.1165  0.5472  0.3503
 4252TIP3    H134171   4.784   2.775  12.997 -0.7528  0.1518 -0.0364
 4252TIP3    H234172   4.734   2.846  13.121 -0.0802  0.7565 -0.1068
 4253TIP3   OH234173   0.033   5.321  15.847 -0.4882 -0.0842  0.3254
 4253TIP3    H134174  -0.061   5.309  15.862 -0.7108  0.6626 -0.4319
 4253TIP3    H234175   0.055   5.401  15.894 -0.1048 -0.5646  0.9751
 4254TIP3   OH234176   5.591   2.724   1.007  0.0896 -0.3983 -0.0838
 4254TIP3    H134177   5.593   2.674   0.925 -1.9895  3.1024 -2.3650
 4254TIP3    H234178   5.683   2.736   1.030  0.7584  0.1765 -2.9376
 4255TIP3   OH234179   1.496   3.309   3.480 -0.6099 -0.1828  0.2517
 4255TIP3    H134180   1.560   3.287   3.412 -0.2204  1.8264 -0.0506
 4255TIP3    H234181   1.425   3.246   3.467  0.0607 -0.6715 -1.1531
 4256TIP3   OH234182   5.264   3.334  13.780 -0.2010 -0.7990  0.3356
 4256TIP3    H134183   5.198   3.273  13.812 -1.1125 -1.0124 -1.8803
 4256TIP3    H234184   5.290   3.299  13.696  0.2784  1.1113 -0.3346
 4257TIP3   OH234185   3.373   5.137   2.325 -0.0129 -0.1179  0.4231
 4257TIP3    H134186   3.323   5.152   2.244  0.4064  0.0339  0.1916
 4257TIP3    H234187   3.384   5.224   2.363 -0.7037 -0.2520  0.9413
 4258TIP3   OH234188   4.767   2.258  15.204  0.0262  0.5510 -0.2330
 4258TIP3    H134189   4.747   2.344  15.242  0.5784  0.6141 -0.0917
 4258TIP3    H234190   4.857   2.264  15.174  0.2226 -0.1335  0.2006
 4259TIP3   OH234191   1.203   0.501  12.664  0.2898  0.0089 -0.1353
 4259TIP3    H134192   1.203   0.596  12.674  1.7973 -0.0967  0.8942
 4259TIP3    H234193   1.127   0.483  12.608  0.2462  1.8467 -0.6889
 4260TIP3   OH234194   4.454   0.244   3.362 -0.2474  0.1381  0.2197
 4260TIP3    H134195   4.506   0.289   3.295 -1.8151  0.2206 -0.9810
 4260TIP3    H234196   4.484   0.153   3.358  0.1046  0.2653 -0.1565
 4261TIP3   OH234197   0.529   1.227  14.544  0.1401 -0.0744  0.3935
 4261TIP3    H134198   0.570   1.298  14.494 -3.1414  1.3628 -0.3293
 4261TIP3    H234199   0.473   1.183  14.480 -0.3404 -1.3026  1.6501
 4262TIP3   OH234200   4.658   5.070  15.190  0.7886 -0.3729 -0.2014
 4262TIP3    H134201   4.611   4.995  15.227 -0.4022 -0.5113 -1.9393
 4262TIP3    H234202   4.742   5.071  15.235  0.4730 -2.2477  0.4389
 4263TIP3   OH234203   2.342   5.698   2.410  0.1387  0.0091 -0.5229
 4263TIP3    H134204   2.318   5.626   2.469  0.2200  0.4754  0.0891
 4263TIP3    H234205   2.435   5.713   2.429  0.0138  0.5577 -0.3424
 4264TIP3   OH234206   4.029   5.698   0.315  0.5146  0.1233 -0.1912
 4264TIP3    H134207   3.995   5.615   0.350  0.7290  0.3880  0.6640
 4264TIP3    H234208   4.007   5.762   0.383 -2.2375  1.3155 -2.0954
 4265TIP3   OH234209   0.961   0.913  11.047  0.2155 -0.0602 -0.3713
 4265TIP3    H134210   0.995   1.002  11.033  0.1017  0.0418 -0.0112
 4265TIP3    H234211   1.034   0.856  11.025 -0.2042  0.0633 -2.1345
 4266TIP3   OH234212   3.692   1.470  12.402  0.3357  0.1666 -0.1821
 4266TIP3    H134213   3.618   1.490  12.459  1.3335 -0.9361  1.5274
 4266TIP3    H234214   3.729   1.556  12.380 -1.1520  0.7008 -0.6861
 4267TIP3   OH234215   3.585   3.717   2.304 -0.0103 -0.4839 -0.1788
 4267TIP3    H134216   3.534   3.760   2.235  1.9094  1.7209 -0.2533
 4267TIP3    H234217   3.520   3.692   2.370 -1.7343 -1.6463 -2.2416
 4268TIP3   OH234218   2.685   0.994  14.555 -0.1293  0.4643  0.0008
 4268TIP3    H134219   2.650   0.906  14.572  0.9152  0.3002  1.3521
 4268TIP3    H234220   2.615   1.038  14.507 -0.6687 -1.0954 -0.7068
 4269TIP3   OH234221   0.089   1.424   5.561  0.0038 -0.3409  0.2708
 4269TIP3    H134222   0.145   1.422   5.638 -0.8785 -0.8280  0.9089
 4269TIP3    H234223   0.020   1.361   5.581 -0.2389 -0.4516 -0.9102
 4270TIP3   OH234224   4.403   3.263  14.030  0.0535  0.3479 -0.5574
 4270TIP3    H134225   4.475   3.259  14.093 -0.7839  0.0327  0.3918
 4270TIP3    H234226   4.444   3.241  13.946  0.8507 -0.8889  0.1418
 4271TIP3   OH234227   6.641   4.100   3.529 -0.8938 -0.0152  0.3927
 4271TIP3    H134228   6.707   4.069   3.591  1.1792  0.8071 -1.3260
 4271TIP3    H234229   6.672   4.068   3.444 -2.2420  1.1606 -0.5514
 4272TIP3   OH234230   6.659   4.987  15.991  0.2353 -0.3224 -0.3321
 4272TIP3    H134231   6.604   5.029  16.056 -0.4612  0.8281 -1.6276
 4272TIP3    H234232   6.745   4.982  16.031  0.1219  1.5874  0.1755
 4273TIP3   OH234233   3.368   5.960   3.052 -0.5034 -0.4093 -0.1253
 4273TIP3    H134234   3.364   6.050   3.086  1.8612 -0.3459  0.0837
 4273TIP3    H234235   3.299   5.957   2.986  0.3096  2.0277 -1.1575
 4274TIP3   OH234236   4.912   6.024   4.578  0.0328  0.4109  0.3816
 4274TIP3    H134237   4.961   6.031   4.496 -1.7987  2.5220 -0.5590
 4274TIP3    H234238   4.953   6.088   4.636 -0.4157  0.8690  0.1979
 4275TIP3   OH234239   3.383   3.663  16.717  0.1371  0.9824 -0.1037
 4275TIP3    H134240   3.407   3.745  16.760  0.0100  0.3351  1.2279
 4275TIP3    H234241   3.292   3.647  16.744  0.0245  0.6121 -0.6845
 4276TIP3   OH234242   1.837   0.188   3.358 -0.0080  1.0002  0.3600
 4276TIP3    H134243   1.802   0.102   3.381 -0.0986  0.8226 -0.4587
 4276TIP3    H234244   1.830   0.193   3.263  1.9039  1.0983  0.2136
 4277TIP3   OH234245   0.934   6.708   3.717  0.4798  0.1331 -0.4085
 4277TIP3    H134246   0.972   6.627   3.751 -0.0982  0.0696  0.1005
 4277TIP3    H234247   0.909   6.688   3.627  1.7202  0.2014 -0.7807
 4278TIP3   OH234248   6.613   5.194   2.890  0.4329 -0.7316 -0.4546
 4278TIP3    H134249   6.582   5.104   2.903 -1.1862  0.0571  1.3471
 4278TIP3    H234250   6.537   5.241   2.855  0.7656  0.3114  0.2017
 4279TIP3   OH234251   1.130   4.561  10.892 -0.1665  0.1977  0.2799
 4279TIP3    H134252   1.069   4.629  10.922 -0.4528 -0.4618  1.2053
 4279TIP3    H234253   1.094   4.532  10.808 -0.4563  0.6573  0.2441
 4280TIP3   OH234254   0.933   6.640   5.691 -0.0735 -0.7049 -0.4931
 4280TIP3    H134255   0.950   6.548   5.713 -0.4274 -0.5551  0.4277
 4280TIP3    H234256   0.954   6.688   5.771 -0.1019  0.0013 -0.9039
 4281TIP3   OH234257   4.338   1.336   0.317  0.1887 -0.1155  0.0765
 4281TIP3    H134258   4.284   1.414   0.300  1.9297  0.9966 -0.5153
 4281TIP3    H234259   4.428   1.368   0.313  0.9565 -2.2946 -0.8304
 4282TIP3   OH234260   4.117   4.951  12.208  0.4913  0.8254  0.0452
 4282TIP3    H134261   4.210   4.954  12.185  0.8877 -0.5384  1.4266
 4282TIP3    H234262   4.114   4.907  12.293 -1.5325 -0.4564 -0.6426
 4283TIP3   OH234263   0.567   2.834  15.778 -0.5131 -0.1527 -0.1935
 4283TIP3    H134264   0.654   2.809  15.747  0.0750  0.3103  1.0461
 4283TIP3    H234265   0.507   2.788  15.720  0.5539 -0.3979 -1.1311
 4284TIP3   OH234266   5.152   3.179   1.296  0.2468  0.3057  0.0404
 4284TIP3    H134267   5.212   3.168   1.370  0.4157  0.0429 -0.1342
 4284TIP3    H234268   5.066   3.192   1.337  0.3035 -0.0546  0.2850
 4285TIP3   OH234269   6.780   0.690  13.923  0.1522  0.2295  0.0626
 4285TIP3    H134270   6.806   0.765  13.869  3.1302 -1.6053 -1.1605
 4285TIP3    H234271   6.729   0.634  13.863  1.0990 -0.4787 -0.0943
 4286TIP3   OH234272   0.450   6.483   2.070  0.6210  0.5974  0.0661
 4286TIP3    H134273   0.372   6.434   2.043  0.5972  1.0648 -0.7302
 4286TIP3    H234274   0.502   6.420   2.120  0.2204 -0.0116 -0.2826
 4287TIP3   OH234275   6.777   6.674   0.411 -0.2468  0.3041  0.2522
 4287TIP3    H134276   6.752   6.583   0.393 -0.1231  0.4611 -0.7250
 4287TIP3    H234277   6.745   6.690   0.500 -0.5233 -0.6031  0.3262
 4288TIP3   OH234278   3.643   5.624  11.888 -0.1162 -0.1531 -0.1819
 4288TIP3    H134279   3.627   5.604  11.795  0.6302 -0.9264 -0.1415
 4288TIP3    H234280   3.575   5.575  11.934 -0.4260  0.1514 -0.3087
 4289TIP3   OH234281   4.613   1.424  11.197 -0.0770  0.4869 -0.1165
 4289TIP3    H134282   4.672   1.357  11.232  0.9590  0.4436 -1.8761
 4289TIP3    H234283   4.526   1.397  11.227  0.5770 -0.4220  1.0317
 4290TIP3   OH234284   2.163   0.770  15.541 -0.2697 -0.3609  0.0768
 4290TIP3    H134285   2.098   0.703  15.520  0.7778 -0.7384 -2.1490
 4290TIP3    H234286   2.112   0.850  15.556 -1.4864 -1.5160  2.2762
 4291TIP3   OH234287   0.467   0.247  16.098 -0.4410 -0.7251 -0.2352
 4291TIP3    H134288   0.513   0.169  16.131  0.4969 -0.0382  0.1035
 4291TIP3    H234289   0.432   0.220  16.013 -0.3923 -1.6154  0.0208
 4292TIP3   OH234290   3.899   2.772  14.564  0.3207  0.3026 -0.2762
 4292TIP3    H134291   3.864   2.759  14.652  0.9694 -0.3083 -0.1095
 4292TIP3    H234292   3.970   2.836  14.577  0.5533  0.0532 -0.3240
 4293TIP3   OH234293   2.788   6.651   5.832  0.3704 -0.1668 -0.0695
 4293TIP3    H134294   2.707   6.677   5.788 -1.6591 -1.3350  2.8175
 4293TIP3    H234295   2.818   6.730   5.876  0.0213 -0.0813  0.0160
 4294TIP3   OH234296   5.203   6.252  11.696  0.0572 -0.4891 -0.3485
 4294TIP3    H134297   5.108   6.250  11.691  0.0809 -2.3125 -0.3451
 4294TIP3    H234298   5.229   6.320  11.632 -1.1872 -0.6654 -1.0510
 4295TIP3   OH234299   5.538   3.253   3.862 -0.6469 -0.0280  0.4534
 4295TIP3    H134300   5.520   3.208   3.944 -0.1361  0.0775  0.6235
 4295TIP3    H234301   5.482   3.331   3.864  1.4979  1.5150  2.0087
 4296TIP3   OH234302   5.470   0.272  11.052 -0.0132  0.3483  0.3067
 4296TIP3    H134303   5.453   0.322  10.972  0.6462  1.3670  0.7944
 4296TIP3    H234304   5.423   0.319  11.120  0.6876  0.3658  0.7838
 4297TIP3   OH234305   4.651   3.422  11.374 -0.3264 -0.2185  0.1816
 4297TIP3    H134306   4.654   3.497  11.433  0.2352 -0.3415  0.3069
 4297TIP3    H234307   4.708   3.447  11.301 -1.7091  0.3059 -0.7456
 4298TIP3   OH234308   3.050   3.213  12.229 -0.0346  0.5354  0.1807
 4298TIP3    H134309   3.144   3.197  12.242  0.2710  2.9583  1.2506
 4298TIP3    H234310   3.043   3.308  12.220 -2.3963  0.3710  0.0102
 4299TIP3   OH234311   5.352   6.585   5.543  0.6305 -0.1222 -0.0488
 4299TIP3    H134312   5.363   6.668   5.589  1.2841  0.0387 -0.4969
 4299TIP3    H234313   5.363   6.606   5.450 -0.7427 -0.4353 -0.2917
 4300TIP3   OH234314   3.018   0.458   1.931  0.2369  0.3088  0.6877
 4300TIP3    H134315   3.051   0.436   1.844  0.3309  1.1638  0.5033
 4300TIP3    H234316   3.050   0.547   1.947 -0.3211  0.3961  1.3252
 4301TIP3   OH234317   4.857   5.910  11.083  0.3722  0.3920  0.3378
 4301TIP3    H134318   4.819   5.906  10.995 -1.3726 -0.7975  1.1217
 4301TIP3    H234319   4.797   5.966  11.133  1.2906  0.9742  0.8116
 4302TIP3   OH234320   1.941   1.386   4.477 -0.0813 -0.1279 -0.4469
 4302TIP3    H134321   1.879   1.444   4.432  0.1558 -0.7321 -1.5570
 4302TIP3    H234322   1.930   1.407   4.570 -0.3826  1.3124 -0.8043
 4303TIP3   OH234323   0.187   2.592  14.454  0.1081 -0.1268 -0.0088
 4303TIP3    H134324   0.144   2.655  14.513  0.7672 -1.7121  2.2269
 4303TIP3    H234325   0.172   2.628  14.367  0.4316  3.1305  1.2011
 4304TIP3   OH234326   3.274   0.515  14.975  0.2954 -0.3843  0.3212
 4304TIP3    H134327   3.351   0.459  14.981  0.2510 -0.3271  1.5150
 4304TIP3    H234328   3.309   0.601  14.953  0.6062 -0.2968  1.1338
 4305TIP3   OH234329   4.377   5.353   0.035 -0.2283  0.2017 -0.0885
 4305TIP3    H134330   4.322   5.390  -0.034 -0.4582 -1.3996 -0.7957
 4305TIP3    H234331   4.375   5.259   0.019  1.0842 -0.0490  1.1026
 4306TIP3   OH234332   6.045   3.157  15.356 -0.0344 -0.6491  0.0510
 4306TIP3    H134333   6.057   3.082  15.414  2.9103  0.8948  1.5394
 4306TIP3    H234334   6.043   3.232  15.415 -0.0720  0.6933 -1.6471
 4307TIP3   OH234335   1.332   0.720   3.107  0.1330 -0.0510 -0.4431
 4307TIP3    H134336   1.241   0.707   3.080 -0.0762 -0.8477  0.5982
 4307TIP3    H234337   1.383   0.665   3.048 -0.1672 -0.5132 -0.2699
 4308TIP3   OH234338   1.164   4.122   3.245  0.3310  0.1936 -0.2046
 4308TIP3    H134339   1.212   4.079   3.175  1.0738  0.7668 -0.0591
 4308TIP3    H234340   1.186   4.072   3.324  2.0919  1.4786  0.1562
 4309TIP3   OH234341   1.046   4.466  12.169  0.0175  0.5357  0.0403
 4309TIP3    H134342   0.989   4.461  12.092  1.2855 -0.3011 -0.8454
 4309TIP3    H234343   1.098   4.545  12.154 -0.4702  0.9642  0.5628
 4310TIP3   OH234344   5.821   4.271   3.160  0.1671 -0.4948 -0.2188
 4310TIP3    H134345   5.880   4.248   3.088 -1.3131 -1.4986 -1.1524
 4310TIP3    H234346   5.805   4.365   3.149 -1.7250 -1.0306 -2.5320
 4311TIP3   OH234347   2.562   2.711  16.680 -0.1350  0.8001  0.1698
 4311TIP3    H134348   2.620   2.753  16.616  0.8696  2.0224  1.8282
 4311TIP3    H234349   2.622   2.677  16.747 -1.2698  1.2531  1.4257
 4312TIP3   OH234350   3.510   5.776  13.383  0.5546 -0.1634 -0.0621
 4312TIP3    H134351   3.544   5.776  13.293 -2.6241 -1.4251 -1.3705
 4312TIP3    H234352   3.436   5.837  13.380 -0.6867 -1.5576  1.1952
 4313TIP3   OH234353   3.903   2.898  13.348 -0.9223  0.2833 -0.2262
 4313TIP3    H134354   3.961   2.871  13.276 -0.0959 -1.0914  0.9225
 4313TIP3    H234355   3.858   2.817  13.373 -1.0092  0.7056  0.9919
 4314TIP3   OH234356   6.010   4.064   3.036 -0.0401 -0.1122  0.5834
 4314TIP3    H134357   5.938   4.057   2.974 -0.4558 -0.1325  1.0581
 4314TIP3    H234358   6.001   3.988   3.093  1.5909 -1.2254 -0.6145
 4315TIP3   OH234359   3.332   2.669  13.412  0.3579  0.0413 -0.3717
 4315TIP3    H134360   3.271   2.693  13.483 -0.8996  1.1481 -1.7915
 4315TIP3    H234361   3.366   2.753  13.381  0.6620 -0.4244 -1.2912
 4316TIP3   OH234362   6.604   1.540   3.559 -0.3634 -0.0489  0.3492
 4316TIP3    H134363   6.561   1.470   3.608 -1.2383  1.3286  1.6079
 4316TIP3    H234364   6.682   1.561   3.611  0.6355 -1.0029 -0.7412
 4317TIP3   OH234365   4.634   6.570   1.722  0.4615 -0.0651  0.4040
 4317TIP3    H134366   4.717   6.534   1.753  0.1447 -1.4124 -0.2642
 4317TIP3    H234367   4.639   6.563   1.626  0.2946  1.4746  0.2743
 4318TIP3   OH234368   2.507   3.492  10.882 -0.4640 -0.5027  0.0578
 4318TIP3    H134369   2.491   3.438  10.805  0.2593 -0.7352  0.0617
 4318TIP3    H234370   2.586   3.541  10.860  0.7979 -1.9056  1.3368
 4319TIP3   OH234371   6.573   0.787  14.158 -0.1506  0.6575 -0.1282
 4319TIP3    H134372   6.607   0.802  14.070  0.1330  2.0817  0.2158
 4319TIP3    H234373   6.560   0.693  14.163  2.2560  0.2618 -0.8092
 4320TIP3   OH234374   1.094   5.073   0.728  0.5459  0.1196  0.4920
 4320TIP3    H134375   1.174   5.118   0.701 -0.4601  0.3868 -2.1620
 4320TIP3    H234376   1.043   5.141   0.773  0.8324  0.5197  0.2228
 4321TIP3   OH234377   2.977   0.898   4.664  0.9044 -0.1807 -0.6488
 4321TIP3    H134378   2.937   0.838   4.727  1.5004  1.7311  1.6221
 4321TIP3    H234379   2.920   0.892   4.586 -0.4529 -1.7790  0.4209
 4322TIP3   OH234380   3.146   5.308  10.757  0.6396 -0.3531 -0.5726
 4322TIP3    H134381   3.212   5.275  10.697  0.9622 -1.2278  0.2556
 4322TIP3    H234382   3.107   5.230  10.796 -0.7843  0.1581 -0.9411
 4323TIP3   OH234383   0.465   3.373  13.552 -0.1786 -0.0473 -1.0103
 4323TIP3    H134384   0.463   3.466  13.577 -1.3838 -0.6167  1.1770
 4323TIP3    H234385   0.536   3.336  13.605 -1.1705 -0.8055 -0.1955
 4324TIP3   OH234386   3.198   6.744  14.644  0.2804 -0.1410  0.1785
 4324TIP3    H134387   3.217   6.651  14.659 -1.8229 -0.8250 -1.1403
 4324TIP3    H234388   3.131   6.764  14.710  0.5970  0.3965  0.3356
 4325TIP3   OH234389   0.968   5.534   1.665 -0.3046  0.5207  0.4512
 4325TIP3    H134390   1.003   5.520   1.578 -0.0624 -0.1294  0.6549
 4325TIP3    H234391   0.879   5.497   1.662 -0.4776  0.9394  0.3387
 4326TIP3   OH234392   4.688   1.501  17.003 -0.0111  0.3297 -0.7464
 4326TIP3    H134393   4.622   1.502  16.934 -1.9574  2.1527  1.1087
 4326TIP3    H234394   4.748   1.571  16.979 -0.5078  0.7538 -0.7465
 4327TIP3   OH234395   2.370   4.240  12.229  0.5477  0.8869  0.3462
 4327TIP3    H134396   2.379   4.149  12.201  1.3345  1.0917 -0.1004
 4327TIP3    H234397   2.341   4.287  12.151 -1.2452  0.7957  0.9342
 4328TIP3   OH234398   4.967   0.707  13.821  0.1328 -0.3075 -0.5178
 4328TIP3    H134399   4.918   0.643  13.873  0.6707 -1.1472 -1.0241
 4328TIP3    H234400   5.054   0.709  13.861 -0.9606  2.9782  1.9010
 4329TIP3   OH234401   5.535   5.733   3.360  0.0999  0.1208 -0.1066
 4329TIP3    H134402   5.501   5.721   3.271 -0.0044  4.3501 -0.7415
 4329TIP3    H234403   5.457   5.736   3.415 -0.0929  1.5304 -0.4427
 4330TIP3   OH234404   1.888   2.771  11.284 -0.6641 -0.0276  0.4243
 4330TIP3    H134405   1.810   2.723  11.311 -0.3351  0.3632  2.1140
 4330TIP3    H234406   1.911   2.733  11.199  0.0743 -3.4885  2.0730
 4331TIP3   OH234407   3.080   0.311  13.813  0.1105  0.5532  0.2045
 4331TIP3    H134408   3.086   0.375  13.884 -1.8180  2.0613 -0.9288
 4331TIP3    H234409   3.170   0.304  13.780  0.1744  3.6878 -0.4603
 4332TIP3   OH234410   5.579   6.264   1.351 -0.2858 -0.3786  1.3436
 4332TIP3    H134411   5.552   6.278   1.442 -1.7528  2.4971  0.5435
 4332TIP3    H234412   5.499   6.238   1.306 -0.1143  0.5720  0.4507
 4333TIP3   OH234413   5.374   4.197   4.381 -0.1577  0.2596 -0.2812
 4333TIP3    H134414   5.380   4.243   4.464  1.4914 -0.2819 -0.0824
 4333TIP3    H234415   5.434   4.123   4.390 -1.3018 -0.8212 -1.3004
 4334TIP3   OH234416   4.879   4.312   4.541  0.0476  0.1610 -0.0438
 4334TIP3    H134417   4.931   4.389   4.564 -0.8909  0.5570  0.8169
 4334TIP3    H234418   4.847   4.279   4.626  0.8167 -1.4346 -0.3694
 4335TIP3   OH234419   2.752   6.269   4.617  0.2605 -0.1098  0.2871
 4335TIP3    H134420   2.683   6.335   4.627  0.9018  0.4749  0.8399
 4335TIP3    H234421   2.720   6.193   4.666 -1.8333 -1.2849 -2.7481
 4336TIP3   OH234422   2.694   3.816   2.135 -0.6862  0.1563  0.0577
 4336TIP3    H134423   2.739   3.882   2.187  1.2144 -1.0060 -0.0759
 4336TIP3    H234424   2.601   3.837   2.146 -0.2001  1.6570  1.5940
 4337TIP3   OH234425   2.541   2.726   1.015  0.6786  0.1161  0.3612
 4337TIP3    H134426   2.474   2.780   1.057 -0.0974  0.3504 -1.1563
 4337TIP3    H234427   2.532   2.640   1.056  0.9168  0.7245  1.7148
 4338TIP3   OH234428   3.925   4.075   0.307  0.7434 -0.3880 -0.0548
 4338TIP3    H134429   4.016   4.106   0.312  2.4285 -3.6002 -5.7725
 4338TIP3    H234430   3.887   4.125   0.235 -1.8049  0.1182  1.5704
 4339TIP3   OH234431   0.634   2.675   2.495 -0.0675 -0.1999  0.3967
 4339TIP3    H134432   0.594   2.744   2.548 -0.1802 -0.1799  0.2866
 4339TIP3    H234433   0.564   2.648   2.435  0.0244 -0.3015  0.3362
 4340TIP3   OH234434   1.189   5.311   3.269  0.1261  0.6162  0.4672
 4340TIP3    H134435   1.262   5.291   3.211  0.1712  0.9785  0.3966
 4340TIP3    H234436   1.111   5.291   3.217  0.1719 -1.4851  1.1531
 4341TIP3   OH234437   6.519   5.757  12.004  0.1520  0.2413 -0.0964
 4341TIP3    H134438   6.500   5.663  12.000 -2.2697  0.6811  0.2765
 4341TIP3    H234439   6.530   5.775  12.098  3.2877 -0.1428 -0.3610
 4342TIP3   OH234440   5.651   1.730   5.796 -0.3476 -0.4285  0.0838
 4342TIP3    H134441   5.577   1.690   5.843 -0.0771 -1.4630 -0.3617
 4342TIP3    H234442   5.712   1.658   5.781  0.2849  0.2153 -0.4874
 4343TIP3   OH234443   3.329   4.200  13.383 -0.1594 -0.2562  0.0056
 4343TIP3    H134444   3.420   4.228  13.373  0.0994 -1.0413  0.1530
 4343TIP3    H234445   3.302   4.238  13.466 -0.0292  0.1396 -0.1302
 4344TIP3   OH234446   0.170   3.338   2.574 -0.0186  0.2745 -0.0895
 4344TIP3    H134447   0.218   3.281   2.515 -1.2677 -0.6306 -0.2515
 4344TIP3    H234448   0.083   3.298   2.581  0.1128  0.3538  2.3662
 4345TIP3   OH234449   4.981   5.711   2.928 -0.4861 -0.0777 -0.5155
 4345TIP3    H134450   4.903   5.744   2.884 -1.6716 -1.2049  0.6826
 4345TIP3    H234451   5.041   5.786   2.931 -0.0574 -0.1438 -4.5964
 4346TIP3   OH234452   0.288   0.311   6.211 -0.0578  0.4164 -0.0435
 4346TIP3    H134453   0.333   0.309   6.127  0.6494 -0.2092  0.3426
 4346TIP3    H234454   0.262   0.403   6.222  1.9869  0.9902  0.1666
 4347TIP3   OH234455   0.854   5.594  16.716 -0.1573 -0.1438 -0.9919
 4347TIP3    H134456   0.930   5.652  16.725  0.6939 -1.4170  0.3712
 4347TIP3    H234457   0.870   5.545  16.636  0.3072 -0.1799 -0.8807
 4348TIP3   OH234458   0.059   3.632   4.470 -0.6683 -0.4584 -0.2387
 4348TIP3    H134459  -0.004   3.699   4.444 -0.5322 -0.1987  0.1069
 4348TIP3    H234460   0.138   3.680   4.495 -0.7293 -0.7125  0.4660
 4349TIP3   OH234461   4.070   0.512  13.141 -0.2877  0.2210  0.3687
 4349TIP3    H134462   4.098   0.595  13.179  1.0845 -0.3126  0.5772
 4349TIP3    H234463   4.061   0.453  13.216 -1.7307  0.2973  0.2728
 4350TIP3   OH234464   2.534   4.973  12.885  0.2090  0.1716 -0.2511
 4350TIP3    H134465   2.588   5.049  12.864  0.6343  0.3627  1.5226
 4350TIP3    H234466   2.568   4.903  12.829  0.8629  0.8524 -0.7093
 4351TIP3   OH234467   5.001   4.598   0.563  0.4971  0.5165  0.1636
 4351TIP3    H134468   5.003   4.508   0.533 -0.3799  1.2055 -2.0198
 4351TIP3    H234469   4.915   4.608   0.604  0.6823  0.3047  0.6069
 4352TIP3   OH234470   0.646   4.426   2.722 -0.3586  0.7646 -0.5734
 4352TIP3    H134471   0.630   4.402   2.813  0.1042  0.3116 -0.6110
 4352TIP3    H234472   0.642   4.522   2.721 -1.4406  0.7313 -0.2776
 4353TIP3   OH234473   1.921   5.291  13.654 -0.2586 -0.4627 -0.5901
 4353TIP3    H134474   1.958   5.298  13.566 -0.0705  1.9423 -0.3357
 4353TIP3    H234475   1.826   5.293  13.641 -0.2501 -1.0831 -0.7903
 4354TIP3   OH234476   5.840   1.380  12.513  0.1021 -0.1280 -0.0370
 4354TIP3    H134477   5.782   1.439  12.465  0.9191 -0.9618 -2.1215
 4354TIP3    H234478   5.844   1.301  12.459  1.5147 -0.8873  1.1366
 4355TIP3   OH234479   3.806   1.242   3.815  0.0777 -0.0788  0.3434
 4355TIP3    H134480   3.720   1.257   3.777  0.1529  0.6420  0.4644
 4355TIP3    H234481   3.865   1.296   3.763  0.6272 -1.3952 -0.4423
 4356TIP3   OH234482   1.587   2.054  16.032 -0.4763  0.7827 -0.3526
 4356TIP3    H134483   1.567   1.969  15.994 -0.4983 -0.0714  1.5195
 4356TIP3    H234484   1.673   2.043  16.073 -0.6703  1.5107  0.2822
 4357TIP3   OH234485   3.595   0.631   2.495 -0.1057  0.1968 -0.8099
 4357TIP3    H134486   3.518   0.605   2.545 -0.3036  0.1960 -1.1128
 4357TIP3    H234487   3.669   0.594   2.544 -0.2116  1.1789  0.1173
 4358TIP3   OH234488   0.629   6.307  14.094  0.0504  0.5408  0.1101
 4358TIP3    H134489   0.693   6.374  14.119  0.6254 -0.4881  1.4916
 4358TIP3    H234490   0.582   6.344  14.020  1.4454  1.8097 -0.1478
 4359TIP3   OH234491   3.922   0.750  15.710  1.1531 -0.2344 -0.0903
 4359TIP3    H134492   3.945   0.658  15.726 -0.1301 -0.7370 -1.1269
 4359TIP3    H234493   3.997   0.784  15.661  1.8230 -0.6085  0.6456
 4360TIP3   OH234494   4.897   2.250  11.579 -0.1245 -1.3392  0.4316
 4360TIP3    H134495   4.862   2.335  11.603  2.0415  0.0693 -1.2090
 4360TIP3    H234496   4.955   2.226  11.652  0.8383 -0.4448 -0.0295
 4361TIP3   OH234497   0.626   6.285  12.549 -0.1449 -0.9494 -0.3946
 4361TIP3    H134498   0.609   6.346  12.477  2.2582  0.8523  0.4983
 4361TIP3    H234499   0.572   6.318  12.621  1.6398  0.5677  0.2864
 4362TIP3   OH234500   2.842   3.276  11.841 -0.7157  0.3430  0.3778
 4362TIP3    H134501   2.811   3.366  11.853 -1.0808  0.7868 -3.3475
 4362TIP3    H234502   2.935   3.286  11.820 -0.5028 -0.2493  1.0176
 4363TIP3   OH234503   1.347   5.089  14.398 -0.5890 -0.4089 -0.9679
 4363TIP3    H134504   1.362   5.178  14.367  0.3298 -0.2972 -0.2411
 4363TIP3    H234505   1.411   5.036  14.350  0.2567 -0.3609  0.0854
 4364TIP3   OH234506   3.745   3.469  16.441 -0.8769  0.2467  0.3644
 4364TIP3    H134507   3.700   3.412  16.503 -2.7531  1.9132  0.5863
 4364TIP3    H234508   3.737   3.424  16.357  0.5392 -1.3872  1.0899
 4365TIP3   OH234509   2.253   2.009  12.788  0.0353  0.0725  0.0028
 4365TIP3    H134510   2.229   2.015  12.880  0.1813  1.7414 -0.0524
 4365TIP3    H234511   2.349   2.015  12.787  0.0002  0.7152 -0.2867
 4366TIP3   OH234512   3.243   4.822   1.951  0.0843  0.9215 -0.4774
 4366TIP3    H134513   3.331   4.829   1.915  0.6587 -1.5576  0.3731
 4366TIP3    H234514   3.252   4.764   2.026 -2.0714  1.6000  0.3420
 4367TIP3   OH234515   2.820   4.439   2.544 -0.7211 -0.1924 -0.1624
 4367TIP3    H134516   2.904   4.394   2.544 -0.0650  0.9994 -1.5530
 4367TIP3    H234517   2.841   4.530   2.567 -1.4164  0.4273 -1.8903
 4368TIP3   OH234518   4.814   3.909   1.670 -0.2554 -0.4207  0.0519
 4368TIP3    H134519   4.867   3.830   1.662  0.9863  0.2169  1.6298
 4368TIP3    H234520   4.877   3.981   1.658 -1.6869  0.3788 -3.4163
 4369TIP3   OH234521   3.375   0.941  15.996  0.3956 -0.1841 -0.5220
 4369TIP3    H134522   3.420   0.968  15.915  0.4734  2.7543  0.4392
 4369TIP3    H234523   3.355   1.023  16.041 -0.5664 -1.7291  1.9846
 4370TIP3   OH234524   5.035   1.440   2.220  0.2716 -0.1909 -0.3529
 4370TIP3    H134525   5.102   1.493   2.177 -0.0482  0.1890 -0.3815
 4370TIP3    H234526   5.038   1.356   2.173 -1.1791  0.7530 -2.2186
 4371TIP3   OH234527   5.877   5.093   0.433 -0.4797  0.0904 -0.1669
 4371TIP3    H134528   5.810   5.160   0.420  1.4987  1.9525 -1.1193
 4371TIP3    H234529   5.930   5.127   0.506  0.5561 -0.4048 -0.6801
 4372TIP3   OH234530   2.287   1.870   5.160 -0.1380 -0.5834  0.5302
 4372TIP3    H134531   2.206   1.897   5.203  0.1829 -0.0968  0.8511
 4372TIP3    H234532   2.332   1.953   5.142 -0.0454 -0.8151 -0.3062
 4373TIP3   OH234533   3.381   6.203   1.405 -0.2556 -1.0559 -0.0294
 4373TIP3    H134534   3.320   6.228   1.336  1.1261 -0.0646 -0.9055
 4373TIP3    H234535   3.369   6.268   1.473 -0.0161 -0.7338 -0.2961
 4374TIP3   OH234536   3.365   2.390   2.663  0.1303 -0.4865  0.4668
 4374TIP3    H134537   3.451   2.383   2.621  0.1699  0.4990  0.3766
 4374TIP3    H234538   3.380   2.444   2.741 -0.2971 -0.7748  0.7514
 4375TIP3   OH234539   2.408   2.006  15.609  0.0862 -0.6239  0.3144
 4375TIP3    H134540   2.472   2.034  15.674  1.0950  0.4737 -1.1175
 4375TIP3    H234541   2.419   2.067  15.537 -1.1284 -1.7305 -0.8338
 4376TIP3   OH234542   3.070   2.889   0.342  0.1233 -0.3542 -0.0256
 4376TIP3    H134543   3.147   2.836   0.365  0.8326  1.0842  1.0422
 4376TIP3    H234544   3.062   2.952   0.414  0.1019  1.8399 -1.8728
 4377TIP3   OH234545   0.645   6.157   0.921 -0.2843  0.0474 -0.1225
 4377TIP3    H134546   0.626   6.215   0.994  0.2262  0.0460  0.0151
 4377TIP3    H234547   0.570   6.097   0.917 -0.0089 -0.3720  0.8062
 4378TIP3   OH234548   1.070   5.520   5.459 -0.0602 -0.1805  0.1458
 4378TIP3    H134549   1.143   5.568   5.500  0.6655 -0.5450 -0.7035
 4378TIP3    H234550   0.992   5.569   5.485  0.4674  0.1077  1.2329
 4379TIP3   OH234551   1.809   3.641  13.445  0.4338  0.4289 -0.2758
 4379TIP3    H134552   1.772   3.614  13.529 -0.5799  0.5880 -0.6640
 4379TIP3    H234553   1.790   3.567  13.386  1.1695  0.3023 -0.3523
 4380TIP3   OH234554   2.147   1.462   4.773  0.2664  0.1341  0.7176
 4380TIP3    H134555   2.087   1.443   4.845  0.1461  0.3643  0.6801
 4380TIP3    H234556   2.164   1.556   4.781 -0.1731  0.2691  0.1159
 4381TIP3   OH234557   2.521   0.631   4.490 -0.0305  0.3070 -0.0475
 4381TIP3    H134558   2.483   0.699   4.436  1.8866  1.1623 -0.3539
 4381TIP3    H234559   2.589   0.591   4.436 -0.6816 -1.4134  0.3610
 4382TIP3   OH234560   2.044   5.953  17.170  0.1436  0.1635 -0.5612
 4382TIP3    H134561   1.954   5.943  17.202  0.8075 -0.5934  1.0855
 4382TIP3    H234562   2.087   5.871  17.192  0.3834 -0.8312 -4.2860
 4383TIP3   OH234563   6.345   6.218  14.070 -0.3667  0.6305 -0.3494
 4383TIP3    H134564   6.320   6.215  14.162 -1.9349  0.3387 -0.7690
 4383TIP3    H234565   6.383   6.132  14.053 -1.4936  0.1127 -0.3434
 4384TIP3   OH234566   2.122   4.256  11.528  0.2068  0.1115 -0.3034
 4384TIP3    H134567   2.151   4.232  11.440  1.2214  0.0934  0.0308
 4384TIP3    H234568   2.071   4.180  11.557  0.3023 -0.0962 -0.6669
 4385TIP3   OH234569   1.162   1.530   2.520  0.0016 -0.2959 -0.5152
 4385TIP3    H134570   1.236   1.484   2.480 -0.1945 -1.1289  0.0823
 4385TIP3    H234571   1.140   1.478   2.597 -0.5799  0.4925 -0.1483
 4386TIP3   OH234572   5.722   5.806   0.618 -0.9828 -0.2375 -0.0820
 4386TIP3    H134573   5.664   5.870   0.659 -1.6037  0.0979 -1.4632
 4386TIP3    H234574   5.761   5.852   0.544 -1.1677 -1.3256 -0.8813
 4387TIP3   OH234575   2.094   5.486  14.563  0.4522  0.0796 -0.5911
 4387TIP3    H134576   2.163   5.422  14.546 -0.2762 -0.9850  0.3698
 4387TIP3    H234577   2.122   5.530  14.643 -0.1738 -0.6514  0.0419
 4388TIP3   OH234578   2.029   4.011  14.447 -0.7580  0.4445  0.5231
 4388TIP3    H134579   2.005   3.919  14.436 -0.5106  0.5018 -0.5920
 4388TIP3    H234580   2.125   4.011  14.452 -0.8601  0.3772  3.3645
 4389TIP3   OH234581   4.705   6.603   3.121  0.1945  0.9883 -0.1379
 4389TIP3    H134582   4.751   6.652   3.189  0.1282  2.1614 -0.9242
 4389TIP3    H234583   4.761   6.610   3.044 -0.8381  1.6270 -0.8418
 4390TIP3   OH234584   6.185   4.391   0.718  0.5917  0.5299  0.4980
 4390TIP3    H134585   6.126   4.466   0.713 -1.2002 -0.8170  1.0326
 4390TIP3    H234586   6.130   4.319   0.748  2.6372 -0.6414  1.5102
 4391TIP3   OH234587   3.326   2.672  14.986  0.4071 -0.3732  0.3711
 4391TIP3    H134588   3.389   2.602  15.004  0.4142 -0.4576  0.0329
 4391TIP3    H234589   3.241   2.628  14.985  0.6140 -0.8052 -2.0842
 4392TIP3   OH234590   4.952   0.957   0.063 -0.3686  0.3347  0.3377
 4392TIP3    H134591   4.959   0.869   0.024 -1.1005  0.1466  0.6368
 4392TIP3    H234592   4.920   1.012  -0.008 -1.3310  0.0683  0.5641
 4393TIP3   OH234593   5.696   5.692  13.208  0.8388  0.1902  0.1269
 4393TIP3    H134594   5.698   5.748  13.286  0.0090  0.3081  0.0740
 4393TIP3    H234595   5.649   5.613  13.237  1.0212 -0.0009 -0.1020
 4394TIP3   OH234596   2.308   0.981  11.620  0.1955 -0.4824 -0.0080
 4394TIP3    H134597   2.372   1.004  11.687  0.1357 -0.1612 -0.0644
 4394TIP3    H234598   2.239   0.935  11.668  0.4063 -0.7198  0.0710
 4395TIP3   OH234599   6.108   4.874   6.015 -0.1786 -0.2322 -0.4257
 4395TIP3    H134600   6.051   4.858   6.090  1.5110 -0.7574  0.7734
 4395TIP3    H234601   6.178   4.931   6.049  1.6854 -2.0632 -1.0755
 4396TIP3   OH234602   5.900   3.628  10.568 -0.1518 -0.5218  0.2439
 4396TIP3    H134603   5.953   3.586  10.499 -0.0529 -0.8649  0.5238
 4396TIP3    H234604   5.948   3.707  10.590  0.8118 -1.3596  1.2343
 4397TIP3   OH234605   6.610   5.575   5.798 -0.3056  0.4995  0.5542
 4397TIP3    H134606   6.678   5.525   5.843  0.0949 -0.8021 -1.4450
 4397TIP3    H234607   6.657   5.638   5.744 -0.7193  0.6020  0.3053
 4398TIP3   OH234608   5.056   0.824   5.068 -0.2359 -0.0559 -0.1415
 4398TIP3    H134609   4.970   0.845   5.104 -0.7746 -0.0720 -1.3815
 4398TIP3    H234610   5.039   0.808   4.975  1.2080  0.5159 -0.5024
 4399TIP3   OH234611   3.991   2.395  11.918 -0.2054  0.2383 -0.1082
 4399TIP3    H134612   4.034   2.479  11.934 -1.0172  0.6363 -0.0156
 4399TIP3    H234613   4.048   2.331  11.960  0.7618  0.6645 -0.7463
 4400TIP3   OH234614   2.561   5.780  15.065 -0.2183  0.3981  0.1586
 4400TIP3    H134615   2.483   5.794  15.120  1.5494  0.1091  2.8138
 4400TIP3    H234616   2.635   5.799  15.123  1.7119  0.6918 -2.3316
 4401TIP3   OH234617   5.769   3.845  16.947 -0.5062  0.4095  0.2191
 4401TIP3    H134618   5.736   3.785  16.880 -1.8490  1.2228  0.1284
 4401TIP3    H234619   5.843   3.799  16.987 -0.3951 -0.5522 -1.0540
 4402TIP3   OH234620   5.272   5.205  14.955  0.0145 -0.0838 -0.1135
 4402TIP3    H134621   5.261   5.254  14.873  1.1191  2.6179  1.2800
 4402TIP3    H234622   5.361   5.225  14.983 -0.9777  0.6142  2.7248
 4403TIP3   OH234623   2.971   5.803   4.800  0.4753 -0.0773  0.5096
 4403TIP3    H134624   2.978   5.850   4.717  0.9419 -3.5573 -1.5428
 4403TIP3    H234625   2.877   5.795   4.815  0.3898  0.7249  0.4094
 4404TIP3   OH234626   4.761   0.154  11.922 -0.2106  0.0013 -0.1776
 4404TIP3    H134627   4.747   0.153  11.828 -0.8708  1.4836 -0.1148
 4404TIP3    H234628   4.771   0.062  11.946 -0.8785 -0.4521 -1.5713
 4405TIP3   OH234629   4.096   4.516  13.489 -0.3631 -0.3920 -0.2362
 4405TIP3    H134630   4.047   4.468  13.556 -0.0258  0.0263  0.3143
 4405TIP3    H234631   4.148   4.449  13.444 -0.6000 -0.6764 -0.0871
 4406TIP3   OH234632   0.991   6.020   4.952  0.4035  0.2247  0.4547
 4406TIP3    H134633   1.013   6.087   4.888  3.0030 -0.4226  0.6030
 4406TIP3    H234634   1.042   5.944   4.925 -0.9988 -1.0822  1.4191
 4407TIP3   OH234635   4.788   0.004   6.657 -0.3374  0.0143  0.0304
 4407TIP3    H134636   4.879   0.005   6.629  0.3241 -0.0306  2.1239
 4407TIP3    H234637   4.739  -0.025   6.580  1.6867 -2.6982 -0.2670
 4408TIP3   OH234638   1.370   1.722  16.569 -0.1797  0.2375  0.8527
 4408TIP3    H134639   1.439   1.757  16.514 -0.6913  0.8466  0.5963
 4408TIP3    H234640   1.371   1.628  16.552  0.6780  0.2173  0.9629
 4409TIP3   OH234641   4.987   3.954   3.217  0.0911  0.1900 -0.2251
 4409TIP3    H134642   5.072   3.917   3.193 -0.4310 -0.4293 -1.1638
 4409TIP3    H234643   4.996   4.048   3.202  1.0668  0.3161  1.0887
 4410TIP3   OH234644   3.387   5.180  16.836 -0.0075 -0.4625  0.5977
 4410TIP3    H134645   3.382   5.267  16.876  0.3140 -1.0038  1.8359
 4410TIP3    H234646   3.296   5.150  16.832 -0.3307  0.7798 -1.7588
 4411TIP3   OH234647   5.216   0.054   1.104 -0.1238  0.1667 -0.3051
 4411TIP3    H134648   5.242   0.145   1.089  0.0825  0.1100 -0.3024
 4411TIP3    H234649   5.134   0.059   1.153 -1.0723  0.3581 -1.8779
 4412TIP3   OH234650   4.126   2.430  13.313 -0.0329  0.3096  0.1482
 4412TIP3    H134651   4.218   2.406  13.324  0.1183  0.8177  0.0383
 4412TIP3    H234652   4.129   2.520  13.280 -0.5734  0.3816  0.2904
 4413TIP3   OH234653   6.502   4.546   3.138  0.4440 -0.1983 -0.4123
 4413TIP3    H134654   6.526   4.472   3.194 -0.4201 -1.3825 -1.5819
 4413TIP3    H234655   6.455   4.506   3.065 -1.4829  1.6909 -0.2239
 4414TIP3   OH234656   4.033   3.372   4.637  0.4913  0.2509  0.2293
 4414TIP3    H134657   4.013   3.407   4.724  1.1708 -1.6487  1.1971
 4414TIP3    H234658   3.989   3.287   4.636 -0.3279  0.6832 -1.6716
 4415TIP3   OH234659   0.744   4.671   3.205  0.6594 -0.1971  0.0836
 4415TIP3    H134660   0.752   4.588   3.252 -0.0271 -0.1804  0.2318
 4415TIP3    H234661   0.665   4.711   3.240  0.8068  0.3701 -0.2271
 4416TIP3   OH234662   6.330   3.150  12.490 -0.3880  0.0054 -0.3826
 4416TIP3    H134663   6.377   3.135  12.408  0.0745 -0.5205 -0.0257
 4416TIP3    H234664   6.373   3.092  12.553 -1.4657 -0.4092 -0.0277
 4417TIP3   OH234665   1.932   6.368   2.761 -0.4693  0.4649 -0.3160
 4417TIP3    H134666   1.898   6.394   2.676 -0.4827 -0.3659 -0.5748
 4417TIP3    H234667   1.855   6.347   2.813 -0.4700  1.1799 -0.0315
 4418TIP3   OH234668   1.046   5.236   0.415 -0.0147 -0.6329 -0.3090
 4418TIP3    H134669   1.096   5.194   0.485 -0.1096 -0.3921 -0.0971
 4418TIP3    H234670   1.070   5.328   0.421 -0.9777 -0.4097  0.2093
 4419TIP3   OH234671   1.999   1.756  16.287  0.9230 -0.5206 -0.3226
 4419TIP3    H134672   2.010   1.793  16.199  0.2722 -2.7640 -1.3877
 4419TIP3    H234673   2.066   1.689  16.294 -1.0083 -2.5223 -0.3425
 4420TIP3   OH234674   1.375   0.376   1.110 -0.1082  0.4224 -0.1532
 4420TIP3    H134675   1.431   0.383   1.032 -0.8040 -0.6656 -0.7707
 4420TIP3    H234676   1.326   0.458   1.111 -0.9593 -0.0310 -1.5777
 4421TIP3   OH234677   3.425   4.030  15.036 -0.1399 -0.3042  0.3400
 4421TIP3    H134678   3.356   4.034  14.970 -0.1202 -0.6338  0.3027
 4421TIP3    H234679   3.469   4.116  15.030 -0.7796  0.0463  0.6215
 4422TIP3   OH234680   0.814   4.385  14.259 -0.2203 -0.3983  0.2366
 4422TIP3    H134681   0.814   4.394  14.354  0.1966  0.1842  0.1828
 4422TIP3    H234682   0.767   4.462  14.228  0.1630 -0.2839 -0.0576
 4423TIP3   OH234683   3.974   3.282   3.795 -0.0717  0.0747  0.6762
 4423TIP3    H134684   4.019   3.202   3.768 -0.6355 -0.3859  1.0878
 4423TIP3    H234685   3.881   3.259   3.793 -0.2120  0.5621  1.2921
 4424TIP3   OH234686   2.957   4.979   3.753  0.0277  0.5207 -0.6381
 4424TIP3    H134687   2.920   4.929   3.826  0.2658  0.6343 -0.4401
 4424TIP3    H234688   2.996   4.912   3.696 -2.0660  0.2352 -1.7722
 4425TIP3   OH234689   1.557   2.976  14.739 -0.6077 -0.0659  0.0808
 4425TIP3    H134690   1.473   3.018  14.723 -1.0652 -1.2720 -0.7611
 4425TIP3    H234691   1.535   2.885  14.758  0.5110 -0.4394 -0.3660
 4426TIP3   OH234692   3.725   6.141  14.451 -0.4639  0.4321  0.0813
 4426TIP3    H134693   3.672   6.198  14.395  0.0129  0.9147  0.1267
 4426TIP3    H234694   3.815   6.154  14.421 -0.1807  0.8613  1.1048
 4427TIP3   OH234695   2.031   5.427  15.144  0.7782  0.3162 -0.1191
 4427TIP3    H134696   2.112   5.414  15.193 -0.9559 -0.7564  2.5719
 4427TIP3    H234697   2.021   5.346  15.093  1.0453  0.1471  0.0971
 4428TIP3   OH234698   2.730   1.627   0.585  0.0064 -0.3022 -0.1414
 4428TIP3    H134699   2.733   1.649   0.678 -1.6366  1.2079 -0.4126
 4428TIP3    H234700   2.766   1.703   0.541  1.6228 -1.3878 -0.7047
 4429TIP3   OH234701   0.838   2.252  14.661  0.1398  0.3900  0.1604
 4429TIP3    H134702   0.922   2.254  14.707  0.9008 -1.9560 -1.0485
 4429TIP3    H234703   0.851   2.310  14.585  0.0116  1.5425  1.0064
 4430TIP3   OH234704   4.708   5.099  14.918 -0.0702  0.0483 -0.2475
 4430TIP3    H134705   4.766   5.024  14.902  1.0854  1.2086 -1.6867
 4430TIP3    H234706   4.701   5.103  15.014  0.1738 -1.6323 -0.1317
 4431TIP3   OH234707   0.920   2.770  16.422  0.3220 -0.0057 -0.0031
 4431TIP3    H134708   0.864   2.753  16.498 -1.3755 -1.2204 -1.4753
 4431TIP3    H234709   0.989   2.704  16.427 -0.0736 -0.4041  0.1967
 4432TIP3   OH234710   1.124   1.680   5.203  0.2709 -0.0586 -0.2996
 4432TIP3    H134711   1.174   1.609   5.243 -0.6995  0.0224  1.0959
 4432TIP3    H234712   1.101   1.737   5.276 -0.9233  0.4788 -1.0783
 4433TIP3   OH234713   0.393   2.455   3.658  0.2215  0.1610 -0.1621
 4433TIP3    H134714   0.327   2.417   3.600 -0.2458 -0.0349  0.4859
 4433TIP3    H234715   0.442   2.380   3.692  0.3045  0.2489 -0.0866
 4434TIP3   OH234716   5.252   4.967   0.613 -0.1575 -0.0024  0.2486
 4434TIP3    H134717   5.188   5.008   0.555 -0.3099  0.5733  0.8186
 4434TIP3    H234718   5.245   5.016   0.695  0.3708 -0.5233  0.6083
 4435TIP3   OH234719   1.465   3.644   1.647  0.2854 -0.1085  0.1982
 4435TIP3    H134720   1.467   3.676   1.737  0.5912  0.0478  0.1365
 4435TIP3    H234721   1.526   3.570   1.647 -1.1460 -1.3271  0.5773
 4436TIP3   OH234722   5.230   4.503   3.579 -0.2332 -0.7002 -0.5261
 4436TIP3    H134723   5.201   4.412   3.583 -1.7678 -0.2206 -0.5162
 4436TIP3    H234724   5.303   4.502   3.517  1.0739 -2.2596  0.9690
 4437TIP3   OH234725   5.983   6.495  16.016 -0.3010  0.9487 -0.0441
 4437TIP3    H134726   5.976   6.590  16.024  2.5117  1.1844  0.1540
 4437TIP3    H234727   6.048   6.481  15.947 -1.7886 -0.8673 -1.1247
 4438TIP3   OH234728   2.097   5.100  14.528 -0.3504 -0.1152  0.3456
 4438TIP3    H134729   2.165   5.166  14.516 -1.1251  0.3337 -1.6101
 4438TIP3    H234730   2.024   5.147  14.569 -0.5669  0.0408 -0.2210
 4439TIP3   OH234731   5.456   4.501   3.430  0.1806 -0.5307 -0.3053
 4439TIP3    H134732   5.422   4.564   3.366  0.0931  0.7855  1.0264
 4439TIP3    H234733   5.551   4.513   3.426  0.2176 -0.9264 -0.6619
 4440TIP3   OH234734   0.333   4.428  10.926 -0.2435  0.4379 -0.0645
 4440TIP3    H134735   0.281   4.485  10.983 -0.1284  1.6654 -1.1660
 4440TIP3    H234736   0.268   4.385  10.871 -0.2966 -0.1993  0.4835
 4441TIP3   OH234737   2.206   0.736   4.526 -0.2180  0.2060  0.2509
 4441TIP3    H134738   2.217   0.647   4.560  1.0495 -0.3076 -1.4525
 4441TIP3    H234739   2.233   0.731   4.435  0.7746  2.5578  0.3697
 4442TIP3   OH234740   4.085   0.862   1.303 -0.0373 -0.2503 -0.7085
 4442TIP3    H134741   4.104   0.878   1.396  1.1510  0.4929 -1.0598
 4442TIP3    H234742   3.991   0.873   1.296  0.0024  0.8211  0.2129
 4443TIP3   OH234743   3.146   6.359  15.823  0.4538 -0.1459  0.1627
 4443TIP3    H134744   3.238   6.380  15.838  0.3507  0.1227  0.4347
 4443TIP3    H234745   3.113   6.334  15.910 -0.1663  1.4660  0.4167
 4444TIP3   OH234746   4.598   6.586  13.850 -0.1836 -0.3023  0.1995
 4444TIP3    H134747   4.667   6.651  13.866  1.4788 -1.8653 -0.4238
 4444TIP3    H234748   4.533   6.633  13.798  0.3248  1.2502  0.9346
 4445TIP3   OH234749   0.132   3.980   1.063  0.3319  0.1155 -0.1350
 4445TIP3    H134750   0.154   3.906   1.007  0.2665  1.5423 -2.1181
 4445TIP3    H234751   0.131   4.055   1.003  0.2709  1.6886  1.8028
 4446TIP3   OH234752   6.049   0.869  15.315 -0.2278  0.8293  0.1570
 4446TIP3    H134753   6.094   0.786  15.331 -1.0686 -0.0304 -1.8291
 4446TIP3    H234754   6.102   0.913  15.249 -1.8333  0.1556 -1.6181
 4447TIP3   OH234755   4.429   4.871  11.056 -0.0753  0.4309 -0.1071
 4447TIP3    H134756   4.507   4.926  11.052 -0.6892  1.2311 -1.5037
 4447TIP3    H234757   4.386   4.885  10.972 -1.7714  0.0788  0.6860
 4448TIP3   OH234758   5.585   5.449   0.744 -0.6378 -0.4206 -0.5235
 4448TIP3    H134759   5.657   5.512   0.747 -0.1162 -0.9926 -1.1040
 4448TIP3    H234760   5.506   5.503   0.744 -0.2235  0.2063  0.3046
 4449TIP3   OH234761   4.941   2.734   4.102 -0.6573  0.2618  0.0286
 4449TIP3    H134762   5.036   2.728   4.108 -0.7929 -1.6681  0.5340
 4449TIP3    H234763   4.910   2.705   4.187 -1.7241  0.2094 -0.3722
 4450TIP3   OH234764   6.167   3.850  11.369 -0.0302 -0.0598 -0.5298
 4450TIP3    H134765   6.217   3.930  11.383  1.0040 -0.6254 -0.9315
 4450TIP3    H234766   6.089   3.878  11.320 -0.3280  0.8819  0.4767
 4451TIP3   OH234767   3.007   1.457  11.455  0.8481 -0.0563  0.4426
 4451TIP3    H134768   3.078   1.511  11.419  1.0482  0.3159  1.3871
 4451TIP3    H234769   2.994   1.389  11.389  1.1629  0.6536 -0.3789
 4452TIP3   OH234770   0.467   1.744  10.831  0.5063  0.2198 -0.3628
 4452TIP3    H134771   0.412   1.666  10.839  2.1635 -1.1807 -2.1158
 4452TIP3    H234772   0.549   1.720  10.875  1.1715  0.8053 -1.2712
 4453TIP3   OH234773   3.125   0.661   4.058  0.1335  0.2793 -0.6789
 4453TIP3    H134774   3.104   0.578   4.101  1.7075 -0.3420 -1.0664
 4453TIP3    H234775   3.058   0.672   3.992 -0.8467 -0.0288  0.2465
 4454TIP3   OH234776   3.000   3.132   2.770 -0.0631  0.3049 -0.1777
 4454TIP3    H134777   2.976   3.153   2.860  1.4544  1.5599 -0.0371
 4454TIP3    H234778   2.961   3.202   2.718 -1.9281 -1.0527 -0.6480
 4455TIP3   OH234779   2.183   5.694  12.488  0.0238  0.5610 -0.3162
 4455TIP3    H134780   2.227   5.685  12.403 -1.8143  2.7167 -1.5799
 4455TIP3    H234781   2.141   5.610  12.502  4.5848 -1.6622  1.0521
 4456TIP3   OH234782   1.214   1.774   1.570  0.5065 -0.3594 -0.0639
 4456TIP3    H134783   1.162   1.696   1.548 -0.8120  0.3552  0.4559
 4456TIP3    H234784   1.149   1.840   1.592  1.6073  0.9885 -0.7797
 4457TIP3   OH234785   0.165   2.007   1.412 -0.1978  0.0464  0.4435
 4457TIP3    H134786   0.122   2.058   1.482  0.7283  1.2392  0.1663
 4457TIP3    H234787   0.101   2.007   1.341 -0.4735  0.2594  0.6853
 4458TIP3   OH234788   6.290   4.262   5.920 -0.1260  0.6514 -0.3780
 4458TIP3    H134789   6.282   4.247   6.014  0.9415  0.4020 -0.3136
 4458TIP3    H234790   6.273   4.177   5.880 -1.1938  0.8966 -0.4507
 4459TIP3   OH234791   2.128   5.902   2.867 -0.0695  0.1091  0.2304
 4459TIP3    H134792   2.078   5.984   2.868 -0.0882  0.1043 -0.4088
 4459TIP3    H234793   2.104   5.860   2.950  0.3887  1.0118  0.8286
 4460TIP3   OH234794   5.306   3.400   3.839 -0.1211 -0.0238 -0.3883
 4460TIP3    H134795   5.330   3.424   3.750 -3.9793  0.0109 -1.4859
 4460TIP3    H234796   5.292   3.483   3.884 -0.7905 -0.0831 -0.4927
 4461TIP3   OH234797   4.754   2.920  16.297 -0.8339 -0.3744  0.1847
 4461TIP3    H134798   4.847   2.923  16.273 -0.8792  0.0169  0.0611
 4461TIP3    H234799   4.715   2.993  16.250 -1.3977 -1.1713 -0.6022
 4462TIP3   OH234800   2.487   5.486  15.266 -0.0228 -0.2239 -0.2890
 4462TIP3    H134801   2.570   5.467  15.310  0.0040 -1.1651 -0.7281
 4462TIP3    H234802   2.421   5.478  15.334  0.1949  0.0151 -0.0493
 4463TIP3   OH234803   3.972   5.539  16.326  0.0420 -0.3309  0.0072
 4463TIP3    H134804   3.907   5.610  16.329  0.3679  0.0406 -1.2191
 4463TIP3    H234805   4.036   5.562  16.394  0.6296  1.0547 -0.9851
 4464TIP3   OH234806   4.089   3.014  10.288 -0.0961 -0.7554 -0.1879
 4464TIP3    H134807   4.044   2.947  10.235  1.2937 -0.4558 -1.7973
 4464TIP3    H234808   4.182   2.990  10.282  0.4909  1.6651 -1.3318
 4465TIP3   OH234809   0.805   2.465  14.398  0.3085 -0.0943  0.6014
 4465TIP3    H134810   0.895   2.494  14.382  0.8082 -1.8501  0.1529
 4465TIP3    H234811   0.751   2.520  14.340  0.8789  2.2207  2.1733
 4466TIP3   OH234812   4.602   5.432  17.147 -0.0529  0.3321  0.2229
 4466TIP3    H134813   4.535   5.406  17.210 -0.7238  0.3221 -0.4988
 4466TIP3    H234814   4.592   5.527  17.139  0.0686  0.3409  0.1686
 4467TIP3   OH234815   0.027   5.740  14.038 -0.1487  0.4651 -0.3560
 4467TIP3    H134816  -0.021   5.823  14.029 -2.0268 -0.7346 -1.8950
 4467TIP3    H234817   0.053   5.718  13.948  1.7078  0.1726  0.2453
 4468TIP3   OH234818   3.723   4.017   6.637  0.3234 -0.2859 -0.2255
 4468TIP3    H134819   3.723   4.071   6.558  1.2162 -0.1970 -0.1613
 4468TIP3    H234820   3.687   4.075   6.705 -2.4768 -1.0164 -0.9948
 4469TIP3   OH234821   1.417   2.528  12.595  0.3662  0.5745  0.2071
 4469TIP3    H134822   1.438   2.561  12.683 -0.7707  0.0291  0.6893
 4469TIP3    H234823   1.373   2.601  12.552  0.3326  0.6222  0.3209
 4470TIP3   OH234824   0.531   2.999   5.649 -0.1252  0.1680  0.3515
 4470TIP3    H134825   0.518   2.933   5.582 -0.3057 -1.6905  2.1844
 4470TIP3    H234826   0.445   3.039   5.661 -0.4507 -0.6094  0.6189
 4471TIP3   OH234827   5.500   0.836  16.464  0.2433  0.0788 -0.5075
 4471TIP3    H134828   5.596   0.841  16.467  0.2825 -0.7365 -0.0862
 4471TIP3    H234829   5.471   0.904  16.525  0.6019 -0.8948  0.7863
 4472TIP3   OH234830   3.529   3.237   2.395 -0.4844  0.7622  0.6621
 4472TIP3    H134831   3.443   3.267   2.425 -1.0029  0.7266 -0.7750
 4472TIP3    H234832   3.561   3.309   2.341  0.4155  0.7900  1.2267
 4473TIP3   OH234833   5.724   3.287  12.597  0.1055 -0.0838 -0.0911
 4473TIP3    H134834   5.630   3.301  12.591 -0.0214  0.0547  1.9914
 4473TIP3    H234835   5.747   3.311  12.687  2.3821  1.4225 -1.0002
 4474TIP3   OH234836   0.948   4.242   2.261  0.2132  1.0453  0.2775
 4474TIP3    H134837   0.973   4.190   2.185  0.7757  1.6315  0.0515
 4474TIP3    H234838   1.031   4.269   2.300 -0.0679  1.7661  0.3890
 4475TIP3   OH234839   1.131   5.326  16.124  0.1358  0.5775  0.0482
 4475TIP3    H134840   1.203   5.384  16.099 -0.8678  2.4231  1.3247
 4475TIP3    H234841   1.160   5.288  16.207  0.6868 -0.5983 -0.6640
 4476TIP3   OH234842   6.718   5.851  12.471 -0.4243  0.0540 -0.3939
 4476TIP3    H134843   6.659   5.791  12.518 -0.3181 -0.4278 -0.8728
 4476TIP3    H234844   6.708   5.934  12.517  0.1763 -0.5785  0.9065
 4477TIP3   OH234845   1.886   0.603  13.029  0.4475  0.0297 -0.2195
 4477TIP3    H134846   1.950   0.646  12.973  0.2008  0.0697 -0.4704
 4477TIP3    H234847   1.928   0.520  13.054  1.3459  0.8543  1.0908
 4478TIP3   OH234848   3.847   3.696  16.082 -0.3020 -0.3960  0.4577
 4478TIP3    H134849   3.820   3.739  16.163 -1.4271  0.1947 -0.2265
 4478TIP3    H234850   3.765   3.672  16.039  0.2851 -0.5851 -0.5694
 4479TIP3   OH234851   1.213   5.854  14.736  0.5777 -0.2723 -0.4239
 4479TIP3    H134852   1.181   5.866  14.646  1.5532 -0.0186 -0.7456
 4479TIP3    H234853   1.139   5.816  14.783 -0.1053  0.0555 -1.2192
 4480TIP3   OH234854   1.607   4.011  16.305  0.2614 -0.0751  0.0567
 4480TIP3    H134855   1.692   3.968  16.306  0.7003  0.7700  2.5877
 4480TIP3    H234856   1.620   4.089  16.251  1.0864  0.0395  0.4264
 4481TIP3   OH234857   2.946   5.121   2.586 -0.3188 -0.4875  0.0769
 4481TIP3    H134858   2.999   5.167   2.521 -0.1598  2.2739  2.0786
 4481TIP3    H234859   2.915   5.043   2.541 -0.0727  1.2710 -3.2459
 4482TIP3   OH234860   4.671   2.089   2.132 -0.1720  0.3192 -0.2633
 4482TIP3    H134861   4.719   2.131   2.204 -0.4366  1.0873 -0.5298
 4482TIP3    H234862   4.731   2.020   2.100  0.5777  0.9790 -0.3028
 4483TIP3   OH234863   5.448   5.160   5.419 -0.1804  0.3229  0.4921
 4483TIP3    H134864   5.531   5.112   5.429  0.1888  1.1294  1.4000
 4483TIP3    H234865   5.388   5.116   5.479 -0.7223 -0.9097 -0.9142
 4484TIP3   OH234866   1.251   0.716  16.450  0.0920  0.0211  0.4450
 4484TIP3    H134867   1.344   0.732  16.461 -0.2450  1.0158  1.9764
 4484TIP3    H234868   1.231   0.647  16.514 -0.1429 -0.4904 -0.1754
 4485TIP3   OH234869   1.183   3.808   3.400  0.2238 -0.5201  0.8170
 4485TIP3    H134870   1.095   3.769   3.402  0.6770 -1.6696 -0.6823
 4485TIP3    H234871   1.206   3.820   3.492 -1.0122 -1.3650  1.2483
 4486TIP3   OH234872   6.163   2.023   4.247  0.0477 -0.2359 -0.0169
 4486TIP3    H134873   6.211   2.063   4.174  0.2726 -1.5897 -0.6190
 4486TIP3    H234874   6.140   2.097   4.304 -0.0773  0.8300 -1.4218
 4487TIP3   OH234875   2.721   4.417   4.337 -0.3805  0.2400 -0.5525
 4487TIP3    H134876   2.681   4.504   4.334 -1.3365 -0.2311 -1.7570
 4487TIP3    H234877   2.740   4.403   4.430 -1.0349  1.3622 -0.2347
 4488TIP3   OH234878   1.504   6.516  15.353  0.1242 -0.6436  0.5060
 4488TIP3    H134879   1.576   6.466  15.391  0.2783 -0.7913  0.0174
 4488TIP3    H234880   1.520   6.514  15.259 -1.2607 -1.8789  0.2725
 4489TIP3   OH234881   4.357   2.313   3.583 -0.4003  0.1691  0.2990
 4489TIP3    H134882   4.324   2.385   3.530  0.1223 -0.6287 -1.1259
 4489TIP3    H234883   4.439   2.346   3.621 -0.2262  0.3617 -0.2479
 4490TIP3   OH234884   1.005   6.146   1.955 -0.5122  0.1826 -0.2272
 4490TIP3    H134885   0.982   6.118   1.866 -0.6870 -0.8861  0.1540
 4490TIP3    H234886   1.096   6.119   1.966 -0.3351  0.7612 -0.2590
 4491TIP3   OH234887   3.017   6.183   1.423 -0.4230  0.0190 -0.1986
 4491TIP3    H134888   3.013   6.157   1.331  1.6143 -1.4011  0.0977
 4491TIP3    H234889   2.974   6.112   1.470  3.1290 -1.8497  0.3939
 4492TIP3   OH234890   3.977   3.879  11.429 -0.6854  0.1239 -0.2505
 4492TIP3    H134891   4.031   3.885  11.508  0.8241  1.8522 -1.3668
 4492TIP3    H234892   3.965   3.785  11.415  2.1113 -0.3187 -0.0044
 4493TIP3   OH234893   1.361   6.190  11.359 -0.1022 -0.1104  0.4497
 4493TIP3    H134894   1.389   6.186  11.267 -0.3048  1.1290  0.3317
 4493TIP3    H234895   1.270   6.219  11.355  0.4294  1.7145  1.1229
 4494TIP3   OH234896   6.154   6.137  13.331  0.2186  0.2802  0.0505
 4494TIP3    H134897   6.197   6.222  13.326  1.8267 -0.4589  0.9823
 4494TIP3    H234898   6.216   6.076  13.293 -0.7516 -0.5551 -0.2203
 4495TIP3   OH234899   0.250   3.080  12.830 -0.3651  0.7230 -0.2720
 4495TIP3    H134900   0.160   3.056  12.855 -0.1810 -0.1740 -0.4461
 4495TIP3    H234901   0.265   3.165  12.872 -0.9868  0.4754  0.4676
 4496TIP3   OH234902   1.287   1.815  14.703  0.3161  0.4987  0.6425
 4496TIP3    H134903   1.229   1.877  14.658 -0.5032  0.1106  1.1451
 4496TIP3    H234904   1.240   1.793  14.783  1.6416  0.9725  1.5711
 4497TIP3   OH234905   6.054   3.124   1.492  0.0684 -0.3785 -0.0182
 4497TIP3    H134906   6.115   3.064   1.535  0.0750 -0.2345  0.1696
 4497TIP3    H234907   5.975   3.122   1.547  0.2977  0.2730  0.3349
 4498TIP3   OH234908   3.165   1.479   2.559 -0.2405  0.4850 -0.4273
 4498TIP3    H134909   3.139   1.570   2.545  1.7348  0.7390 -3.1074
 4498TIP3    H234910   3.219   1.458   2.482  0.1566 -2.6432  0.6184
 4499TIP3   OH234911   3.142   2.447   5.193  0.3667  0.1497  0.0563
 4499TIP3    H134912   3.141   2.373   5.254  0.2971 -0.1170 -0.2648
 4499TIP3    H234913   3.202   2.510   5.233 -0.1942  0.2553  0.7247
 4500TIP3   OH234914   2.023   5.943  16.274 -0.2570  0.3530  0.0842
 4500TIP3    H134915   2.058   5.945  16.363 -0.9147  0.9646  0.3403
 4500TIP3    H234916   2.080   6.002  16.225 -0.4688  0.7772  0.3352
 4501TIP3   OH234917   4.056   3.348   6.192 -0.0431 -0.3048 -0.2008
 4501TIP3    H134918   4.030   3.440   6.196  1.2755  0.1487 -1.5008
 4501TIP3    H234919   4.106   3.333   6.272 -1.2352 -0.2165  0.5726
 4502TIP3   OH234920   5.638   0.704  13.153 -0.2945  0.0216 -0.2536
 4502TIP3    H134921   5.641   0.615  13.188  1.2400 -0.6894 -2.1040
 4502TIP3    H234922   5.651   0.760  13.229  1.0629 -1.4228  0.5994
 4503TIP3   OH234923   5.162   4.033   2.770  0.8184 -0.3967 -0.1868
 4503TIP3    H134924   5.213   3.965   2.726 -0.0460 -1.9230  1.0887
 4503TIP3    H234925   5.181   4.021   2.863  0.3765  0.8820  0.0775
 4504TIP3   OH234926   4.987   1.642  11.081 -0.3937 -0.2781 -0.2966
 4504TIP3    H134927   5.057   1.679  11.027 -1.4749  1.2159 -0.6808
 4504TIP3    H234928   4.906   1.678  11.045 -1.3856 -1.9691  0.1620
 4505TIP3   OH234929   1.074   3.740  11.639  0.3852 -0.1917  0.5027
 4505TIP3    H134930   1.006   3.733  11.706  0.4161  1.7252  0.7599
 4505TIP3    H234931   1.156   3.746  11.688  0.5921 -0.9227  0.2396
 4506TIP3   OH234932   4.205   5.131  14.385  0.5690 -0.0902 -0.3978
 4506TIP3    H134933   4.139   5.120  14.318  0.6475  1.4601 -0.7478
 4506TIP3    H234934   4.225   5.225  14.384  1.3621 -0.2287  1.0235
 4507TIP3   OH234935   6.622   0.276  11.387 -0.3699 -0.3766  0.6445
 4507TIP3    H134936   6.566   0.213  11.434 -0.6919 -1.1312 -0.7253
 4507TIP3    H234937   6.704   0.276  11.435 -1.2535  0.1139  2.1960
 4508TIP3   OH234938   0.041   0.164  12.767  0.2790 -0.7508 -0.1940
 4508TIP3    H134939   0.069   0.178  12.857  0.3188  0.3873 -0.3826
 4508TIP3    H234940  -0.018   0.237  12.748 -0.1700 -1.2868 -0.9117
 4509TIP3   OH234941   5.981   4.837  12.469  0.0915  0.4861 -0.4351
 4509TIP3    H134942   6.048   4.839  12.401 -0.5514  1.0218 -1.0660
 4509TIP3    H234943   6.006   4.764  12.525 -0.0058 -0.7264 -1.9181
 4510TIP3   OH234944   2.530   0.668  12.234  0.4145  0.2374 -0.2021
 4510TIP3    H134945   2.554   0.634  12.321 -0.8205 -0.1680 -0.0020
 4510TIP3    H234946   2.528   0.591  12.178  1.8392  0.5851 -0.7518
 4511TIP3   OH234947   6.330   1.585   1.030  0.5530  0.1625  1.0972
 4511TIP3    H134948   6.271   1.647   0.988 -0.6367  0.3850  3.0156
 4511TIP3    H234949   6.297   1.499   1.005  2.3961  0.2556 -1.8280
 4512TIP3   OH234950   0.744   3.312   2.035  0.1358  0.2344  0.0234
 4512TIP3    H134951   0.818   3.309   1.975  0.0637  0.3213 -0.0693
 4512TIP3    H234952   0.667   3.314   1.979  0.1223  2.0897  0.0944
 4513TIP3   OH234953   3.629   0.171  14.378  0.3253 -0.0195 -0.0532
 4513TIP3    H134954   3.574   0.136  14.308 -0.2752 -0.0072  0.4113
 4513TIP3    H234955   3.590   0.256  14.400  1.3310  0.6123 -0.6568
 4514TIP3   OH234956   0.712   5.518   1.130 -0.3590 -0.1564  0.0115
 4514TIP3    H134957   0.748   5.516   1.041 -0.2140  1.6743  0.0057
 4514TIP3    H234958   0.636   5.575   1.124  0.8904  1.7465  1.4738
 4515TIP3   OH234959   2.721   4.643  14.769  0.5390  0.3182  0.1348
 4515TIP3    H134960   2.711   4.607  14.681  1.5762  1.0392 -0.2934
 4515TIP3    H234961   2.665   4.720  14.770  1.4948  1.0345 -0.3296
 4516TIP3   OH234962   2.181   4.551   5.086 -0.0348 -0.6366 -0.3168
 4516TIP3    H134963   2.261   4.499   5.098  0.3246  0.0454  0.2402
 4516TIP3    H234964   2.129   4.533   5.165  0.4344  0.4624  0.2474
 4517TIP3   OH234965   3.364   3.318  16.006  0.0829 -0.7311  0.4712
 4517TIP3    H134966   3.446   3.286  15.968 -0.1183 -1.0090  0.2704
 4517TIP3    H234967   3.332   3.246  16.060  0.4669 -0.2683  1.3386
 4518TIP3   OH234968   3.501   6.447  15.815  0.6537  0.1693 -0.6225
 4518TIP3    H134969   3.457   6.508  15.875 -2.2871 -1.7716 -0.7007
 4518TIP3    H234970   3.486   6.485  15.728  0.3213  0.2259 -0.5406
 4519TIP3   OH234971   2.194   0.754   5.745 -0.2287  0.3107  0.1568
 4519TIP3    H134972   2.246   0.708   5.679 -0.5023  0.4014 -0.1215
 4519TIP3    H234973   2.241   0.835   5.761 -0.9216  0.9491 -0.9844
 4520TIP3   OH234974   2.415   1.441  14.138  0.8061 -0.5074 -0.0174
 4520TIP3    H134975   2.469   1.434  14.218  0.1832 -1.3388  0.3343
 4520TIP3    H234976   2.478   1.435  14.067  1.5489  1.6387  0.3912
 4521TIP3   OH234977   0.268   5.692  16.840 -0.6394 -0.1216  0.3279
 4521TIP3    H134978   0.325   5.617  16.858 -2.8531 -1.7735  0.6542
 4521TIP3    H234979   0.322   5.751  16.787  1.2878 -1.7353  0.4343
 4522TIP3   OH234980   6.576   4.842   1.462 -0.2498 -0.1070  0.1224
 4522TIP3    H134981   6.653   4.789   1.443 -0.1783  0.2559 -0.6157
 4522TIP3    H234982   6.561   4.892   1.381 -1.2297 -0.1518  0.2749
 4523TIP3   OH234983   4.737   4.429  16.857  0.4698 -0.9016  0.3822
 4523TIP3    H134984   4.813   4.372  16.852  1.3691  0.1845  1.4675
 4523TIP3    H234985   4.717   4.435  16.951 -1.2786 -1.6139  0.0698
 4524TIP3   OH234986   3.287   3.336   2.084 -0.6341  0.2035  0.3251
 4524TIP3    H134987   3.309   3.243   2.087 -0.6499  0.1847 -0.1763
 4524TIP3    H234988   3.257   3.356   2.173 -0.4454 -0.2233  0.4875
 4525TIP3   OH234989   6.723   1.992  17.180 -0.6209 -0.0623  0.0554
 4525TIP3    H134990   6.682   1.986  17.094 -0.7877 -1.7439  0.2541
 4525TIP3    H234991   6.708   2.083  17.206 -2.0626  0.0163 -0.9459
 4526TIP3   OH234992   0.490   6.169   4.954 -0.0788 -0.2834  0.5798
 4526TIP3    H134993   0.403   6.189   4.919 -0.2667 -1.7781  0.1534
 4526TIP3    H234994   0.473   6.131   5.040  0.1523 -0.3588  0.5925
 4527TIP3   OH234995   1.753   1.233  16.519 -0.1091  0.0628 -0.5007
 4527TIP3    H134996   1.666   1.270  16.533 -1.0047 -1.7170 -1.1709
 4527TIP3    H234997   1.781   1.271  16.435  0.9516  2.7526  1.0049
 4528TIP3   OH234998   5.903   3.816   4.300 -0.4837 -0.0107 -0.3525
 4528TIP3    H134999   5.893   3.911   4.306 -1.4195 -0.2420  2.4112
 4528TIP3    H235000   5.996   3.800   4.317 -0.3218  0.3970 -0.8449
 4529TIP3   OH235001   5.685   6.477  13.603  0.1680 -0.0516 -0.3424
 4529TIP3    H135002   5.676   6.445  13.513  0.5210  0.8644 -0.7040
 4529TIP3    H235003   5.644   6.563  13.602  1.7620  0.7314 -0.0598
 4530TIP3   OH235004   6.282   4.704   5.300 -0.7231  0.2121 -0.3048
 4530TIP3    H135005   6.372   4.736   5.291 -0.6757  0.2348  0.2863
 4530TIP3    H235006   6.234   4.776   5.340 -1.3082  0.7097 -1.8255
 4531TIP3   OH235007   3.672   1.561  11.563 -0.0129  0.3942  0.3176
 4531TIP3    H135008   3.618   1.493  11.605  0.1814 -0.4788 -0.8275
 4531TIP3    H235009   3.608   1.624  11.529 -0.1577  1.3331  2.2820
 4532TIP3   OH235010   6.326   6.489  10.258 -0.0794 -0.3485 -0.0815
 4532TIP3    H135011   6.371   6.432  10.321 -2.9957 -0.8452  1.6525
 4532TIP3    H235012   6.382   6.566  10.251  1.4794 -1.3117  1.3578
 4533TIP3   OH235013   3.950   2.659   6.437  0.7279 -0.5126  0.3356
 4533TIP3    H135014   3.964   2.568   6.411  2.4227 -0.0731 -0.3695
 4533TIP3    H235015   3.923   2.703   6.357  0.6346 -0.2353  0.5175
 4534TIP3   OH235016   1.697   4.886   2.853  0.1711  0.8623 -0.0955
 4534TIP3    H135017   1.694   4.791   2.840  1.7404  1.0906 -2.6429
 4534TIP3    H235018   1.634   4.921   2.790  0.5802  1.5560 -0.1242
 4535TIP3   OH235019   5.096   0.380  14.320 -0.2978 -0.3481  0.3008
 4535TIP3    H135020   5.149   0.379  14.399  0.2575  2.3056  0.0297
 4535TIP3    H235021   5.039   0.456  14.331 -0.5667 -0.2490 -1.6184
 4536TIP3   OH235022   0.981   1.379  12.206  0.2957  0.3224  0.4230
 4536TIP3    H135023   1.025   1.357  12.123 -1.0332 -0.6585 -0.0441
 4536TIP3    H235024   0.958   1.294  12.243 -1.1170  0.8280  0.7046
 4537TIP3   OH235025   4.872   5.386   5.975 -0.1014 -0.1648 -0.3712
 4537TIP3    H135026   4.903   5.297   5.956  1.0061  0.3773 -1.1785
 4537TIP3    H235027   4.951   5.434   6.001 -0.4842  0.8993 -1.1258
 4538TIP3   OH235028   2.960   2.759  13.735  0.1506 -1.0454 -0.0576
 4538TIP3    H135029   2.973   2.769  13.641 -1.7393  0.1826 -0.2022
 4538TIP3    H235030   2.891   2.822  13.758 -0.0132 -1.9062  1.9922
 4539TIP3   OH235031   4.685   2.687  15.551  0.5079 -0.0685 -0.4429
 4539TIP3    H135032   4.762   2.733  15.587  1.8618 -1.8654 -0.9850
 4539TIP3    H235033   4.647   2.642  15.626 -0.2748  1.1337 -0.0964
 4540TIP3   OH235034   6.122   3.043  11.954 -0.3409  0.0850  0.2625
 4540TIP3    H135035   6.092   3.090  12.032 -0.7667 -0.5980  0.5122
 4540TIP3    H235036   6.041   3.017  11.909 -0.1166 -0.9216  0.4325
 4541TIP3   OH235037   6.404   5.398   5.755 -0.2861  0.6352 -0.0533
 4541TIP3    H135038   6.412   5.379   5.848  0.0906 -0.2063 -0.2489
 4541TIP3    H235039   6.479   5.456   5.736 -1.7303  2.8044  0.6517
 4542TIP3   OH235040   1.597   0.965   2.854 -0.0651 -0.2307 -0.6066
 4542TIP3    H135041   1.600   0.914   2.934  0.6020 -2.7026 -2.1397
 4542TIP3    H235042   1.507   0.999   2.850  0.5504  1.9375  2.3252
 4543TIP3   OH235043   3.055   3.099   6.217  0.0139  0.1932 -0.6234
 4543TIP3    H135044   3.091   3.067   6.300  1.1012 -0.2467 -1.2513
 4543TIP3    H235045   2.989   3.163   6.243  1.3380  1.1138  0.5445
 4544TIP3   OH235046   5.367   5.826   5.070  0.1327  0.0172 -0.1882
 4544TIP3    H135047   5.293   5.883   5.048 -0.2610 -0.6201 -0.5398
 4544TIP3    H235048   5.329   5.739   5.076  0.5373 -0.0521  1.4603
 4545TIP3   OH235049   3.645   1.301  16.008  0.3183  0.4015 -0.3925
 4545TIP3    H135050   3.683   1.213  16.007  0.1374  0.3230 -0.3187
 4545TIP3    H235051   3.714   1.357  15.971  0.7610  0.3640  0.3760
 4546TIP3   OH235052   2.663   5.591  11.302 -0.3191 -0.1380  0.3771
 4546TIP3    H135053   2.720   5.515  11.290 -0.0357 -0.1189  1.5118
 4546TIP3    H235054   2.704   5.640  11.373 -0.2898  1.2752 -0.6098
 4547TIP3   OH235055   3.723   5.884  13.949  0.8821  0.0889 -0.2789
 4547TIP3    H135056   3.720   5.968  13.995 -1.2484 -0.6683  0.9948
 4547TIP3    H235057   3.785   5.831  14.000 -1.1174 -0.5909  1.4926
 4548TIP3   OH235058   4.677   3.616  16.777 -0.6127 -0.3677 -0.2433
 4548TIP3    H135059   4.605   3.628  16.839  0.2133  1.1718  0.4195
 4548TIP3    H235060   4.634   3.580  16.699 -2.1374  0.6794  0.0800
 4549TIP3   OH235061   2.239   6.435  12.029 -0.0973  0.3419 -0.6670
 4549TIP3    H135062   2.243   6.434  11.933  2.4302 -0.0853 -0.5719
 4549TIP3    H235063   2.321   6.475  12.056 -0.7300  0.3212  1.3441
 4550TIP3   OH235064   2.823   5.400   5.049  0.0788 -0.3615  0.0700
 4550TIP3    H135065   2.830   5.496   5.046  0.1336 -0.3910 -0.6774
 4550TIP3    H235066   2.751   5.379   4.989 -0.8970 -0.6882  1.3278
 4551TIP3   OH235067   6.288   3.987  15.988  0.0170 -0.2169  0.3901
 4551TIP3    H135068   6.365   3.986  15.931 -1.3136 -0.0332 -1.4665
 4551TIP3    H235069   6.283   3.898  16.023  0.0401 -0.7643 -0.9489
 4552TIP3   OH235070   5.398   5.875  15.551 -0.1315 -0.0210 -0.4066
 4552TIP3    H135071   5.472   5.935  15.539 -0.2465  0.2040 -0.0016
 4552TIP3    H235072   5.432   5.806  15.607  0.2356 -0.7653 -1.5200
 4553TIP3   OH235073   0.403   6.653   1.817  0.4294  0.3193 -0.1234
 4553TIP3    H135074   0.440   6.738   1.842  1.1314 -0.4714  1.6208
 4553TIP3    H235075   0.457   6.589   1.864 -0.8449 -1.0350 -0.4773
 4554TIP3   OH235076   1.886   5.202  15.391  0.7181 -0.9364  0.0933
 4554TIP3    H135077   1.888   5.294  15.417  0.4749 -1.4018  1.7929
 4554TIP3    H235078   1.920   5.155  15.466 -0.1594 -2.3336 -0.3706
 4555TIP3   OH235079   5.334   1.864   6.322 -0.5132  0.4401  0.0945
 4555TIP3    H135080   5.296   1.812   6.251  0.0693  0.0643  0.0507
 4555TIP3    H235081   5.319   1.955   6.296  1.2220  0.3522 -1.3882
 4556TIP3   OH235082   1.673   5.208  14.577  0.4604  0.4588  0.7397
 4556TIP3    H135083   1.679   5.118  14.543 -0.0541  0.6147  0.2337
 4556TIP3    H235084   1.730   5.259  14.520 -0.6237  0.7721 -0.0591
 4557TIP3   OH235085   4.618   0.701  12.023  0.1058 -0.2906  0.2439
 4557TIP3    H135086   4.579   0.636  12.081 -4.0744  0.5516 -1.4816
 4557TIP3    H235087   4.612   0.783  12.072 -0.8421 -0.0615 -0.2503
 4558TIP3   OH235088   1.418   4.599   0.805  0.3428 -0.0903  0.1956
 4558TIP3    H135089   1.444   4.563   0.720  0.4830  1.9298 -0.6519
 4558TIP3    H235090   1.449   4.534   0.869  2.0062 -0.6860 -1.1729
 4559TIP3   OH235091   2.023   3.801   1.302 -0.3929 -0.0625 -0.7372
 4559TIP3    H135092   2.072   3.881   1.279  0.4731 -0.2900  0.2971
 4559TIP3    H235093   1.974   3.780   1.222  1.6726 -0.1851 -2.0059
 4560TIP3   OH235094   1.427   0.611  16.768 -0.3276  0.0432 -0.3214
 4560TIP3    H135095   1.479   0.576  16.695 -0.0224 -1.1545  0.4601
 4560TIP3    H235096   1.492   0.634  16.834 -0.8205 -2.6945  1.1946
 4561TIP3   OH235097   0.270   3.125   3.182 -0.1196  0.0297 -0.0939
 4561TIP3    H135098   0.356   3.097   3.214 -0.3221 -0.9842 -0.4315
 4561TIP3    H235099   0.223   3.043   3.163 -1.0002  0.5815 -0.3347
 4562TIP3   OH235100   5.323   4.966   5.200  0.8100  0.4346 -0.1240
 4562TIP3    H135101   5.233   4.997   5.191  1.5999  2.3520 -1.7859
 4562TIP3    H235102   5.365   5.031   5.257  1.2054 -0.3669  0.5223
 4563TIP3   OH235103   5.187   5.114   4.188 -0.1228 -0.0679  0.0943
 4563TIP3    H135104   5.120   5.169   4.227 -0.5176 -0.6916  0.2955
 4563TIP3    H235105   5.175   5.125   4.093 -1.0233 -0.7954  0.1196
 4564TIP3   OH235106   6.124   3.366   5.090 -0.5811  0.2955  0.2871
 4564TIP3    H135107   6.107   3.452   5.052 -3.1901 -0.9744 -1.5809
 4564TIP3    H235108   6.087   3.304   5.027  0.6616 -2.1787  1.9014
 4565TIP3   OH235109   4.080   4.521   1.029  0.5471 -0.1004 -0.6370
 4565TIP3    H135110   4.032   4.450   0.988 -2.1385  2.0306 -1.2813
 4565TIP3    H235111   4.043   4.601   0.992  1.3332  1.7562  2.3479
 4566TIP3   OH235112   3.513   0.462   5.377 -0.9279  0.4276  0.4620
 4566TIP3    H135113   3.525   0.374   5.413  0.5370  0.1793 -0.6058
 4566TIP3    H235114   3.526   0.521   5.452 -0.7551 -0.1958  0.9281
 4567TIP3   OH235115   1.781   4.756  10.981 -0.4995 -0.0418  0.0398
 4567TIP3    H135116   1.871   4.731  11.002 -0.9095 -0.1753  1.6891
 4567TIP3    H235117   1.773   4.845  11.015 -0.5819  0.4952 -1.3494
 4568TIP3   OH235118   3.153   2.036   4.035  0.2137 -0.3519  0.3017
 4568TIP3    H135119   3.083   2.048   3.970 -0.0982  0.1707  0.7298
 4568TIP3    H235120   3.119   2.078   4.114  1.3687  0.6361  0.2751
 4569TIP3   OH235121   6.096   2.165  11.175  0.1084  0.2225 -0.4056
 4569TIP3    H135122   6.094   2.245  11.123  0.2850  1.3208  1.2547
 4569TIP3    H235123   6.014   2.167  11.226 -0.4674 -1.2552 -1.2283
 4570TIP3   OH235124   5.372   3.116   5.782 -0.3684  0.4602  0.5361
 4570TIP3    H135125   5.320   3.196   5.769 -0.9510 -0.0553 -0.3565
 4570TIP3    H235126   5.322   3.065   5.846 -0.4107  0.4401  0.4867
 4571TIP3   OH235127   2.510   5.239   2.486 -0.4828 -0.1713 -0.4833
 4571TIP3    H135128   2.500   5.161   2.540  1.6123  1.2722  2.1065
 4571TIP3    H235129   2.597   5.230   2.446 -1.0460 -0.0943 -1.7377
 4572TIP3   OH235130   2.164   5.658  15.276  0.5828 -0.0179  0.6650
 4572TIP3    H135131   2.210   5.606  15.342 -2.1911 -1.1698  1.7745
 4572TIP3    H235132   2.101   5.597  15.238  0.9235  1.1420 -1.7978
 4573TIP3   OH235133   0.396   0.743  10.632  0.1009 -0.0370  0.0843
 4573TIP3    H135134   0.317   0.797  10.626 -0.6257 -1.0460  0.4732
 4573TIP3    H235135   0.364   0.654  10.638  1.2597 -0.4223  0.7708
 4574TIP3   OH235136   5.691   6.490   4.812 -0.1592  0.6006  0.7995
 4574TIP3    H135137   5.629   6.422   4.838 -1.7882  1.4504 -0.7666
 4574TIP3    H235138   5.663   6.568   4.861  0.5052  0.6441  1.1123
 4575TIP3   OH235139   6.641   2.572   5.728 -0.6783 -0.0307  0.0303
 4575TIP3    H135140   6.621   2.623   5.649 -0.4204  2.6608  1.6687
 4575TIP3    H235141   6.558   2.562   5.773 -0.7410 -1.1649 -0.3104
 4576TIP3   OH235142   4.341   4.604   3.686 -0.4145  0.1791  0.4158
 4576TIP3    H135143   4.412   4.544   3.708 -0.1337  0.2620 -0.2272
 4576TIP3    H235144   4.356   4.681   3.741 -0.4090 -0.0843  0.7822
 4577TIP3   OH235145   2.806   2.561  10.989 -0.1941 -0.3734 -0.2068
 4577TIP3    H135146   2.726   2.593  11.031 -0.5628 -0.6897 -0.6627
 4577TIP3    H235147   2.846   2.504  11.055 -1.5169 -2.0135 -0.7949
 4578TIP3   OH235148   5.828   6.346  16.455 -0.4837 -0.1413 -0.0018
 4578TIP3    H135149   5.742   6.356  16.415 -0.8201 -0.4341  0.6572
 4578TIP3    H235150   5.873   6.429  16.435 -1.6149  0.8238  1.3804
 4579TIP3   OH235151   6.721   6.234  13.419  0.2802 -0.3913  0.2318
 4579TIP3    H135152   6.793   6.177  13.446 -0.4973 -0.4607  2.2022
 4579TIP3    H235153   6.721   6.305  13.483 -0.1564  0.6809 -0.9356
 4580TIP3   OH235154   1.349   2.144   2.634  0.4454 -0.3686 -0.3910
 4580TIP3    H135155   1.370   2.079   2.567  2.4222 -0.9311  0.7602
 4580TIP3    H235156   1.322   2.093   2.710 -0.5614  0.2361 -0.3317
 4581TIP3   OH235157   0.035   4.979   4.232  0.0959 -0.3029 -0.4286
 4581TIP3    H135158   0.100   5.034   4.187 -0.0190  0.3172  0.1637
 4581TIP3    H235159  -0.043   5.033   4.236  0.6957  0.4094  2.2883
 4582TIP3   OH235160   6.023   1.597  10.726  0.0632  0.0494 -0.0117
 4582TIP3    H135161   6.000   1.546  10.648  0.4343  1.2777 -0.9360
 4582TIP3    H235162   5.997   1.686  10.704  0.9443  0.5496  0.9542
 4583TIP3   OH235163   4.600   2.875  16.069 -0.1451  0.7889  0.4663
 4583TIP3    H135164   4.677   2.818  16.062  0.6853  1.9580 -0.1290
 4583TIP3    H235165   4.600   2.904  16.161 -1.1847 -0.9759  1.0537
 4584TIP3   OH235166   0.226   2.384  13.864 -0.0559 -0.8827  0.0678
 4584TIP3    H135167   0.152   2.388  13.805  1.1854 -1.0832 -1.5477
 4584TIP3    H235168   0.294   2.436  13.821  0.5994 -0.3269  1.7284
 4585TIP3   OH235169   5.052   5.518  15.619 -0.0998 -0.7812 -0.1461
 4585TIP3    H135170   5.128   5.523  15.678 -1.6328  0.4972  1.7943
 4585TIP3    H235171   4.980   5.554  15.671 -2.1507 -2.4369 -1.7784
 4586TIP3   OH235172   3.013   4.125   3.077 -0.2495 -0.1963  0.0914
 4586TIP3    H135173   3.069   4.072   3.020 -1.0589 -2.2044  1.1261
 4586TIP3    H235174   3.055   4.120   3.163 -1.0388 -0.2343  0.4756
 4587TIP3   OH235175   0.266   6.759  12.705 -0.3013 -0.2079 -0.5541
 4587TIP3    H135176   0.276   6.854  12.700 -1.4726 -0.1041 -0.8931
 4587TIP3    H235177   0.243   6.743  12.796 -0.5875 -0.1202 -0.6095
 4588TIP3   OH235178   5.451   3.526  13.829  0.3165 -0.1711  0.3897
 4588TIP3    H135179   5.444   3.599  13.767  0.9015 -0.6013 -0.1799
 4588TIP3    H235180   5.389   3.461  13.797  0.8462 -0.5219  0.0865
 4589TIP3   OH235181   5.857   2.090  16.483 -0.3405  0.4791  0.3150
 4589TIP3    H135182   5.814   2.128  16.406  0.2457 -1.3784 -0.9395
 4589TIP3    H235183   5.800   2.116  16.556 -1.7798  0.8956 -0.9119
 4590TIP3   OH235184   0.358   4.597  11.190  0.2942  0.0974 -0.1658
 4590TIP3    H135185   0.410   4.547  11.253  0.0678  0.2777  0.1693
 4590TIP3    H235186   0.269   4.562  11.200  0.3782 -0.3040 -0.8333
 4591TIP3   OH235187   6.380   2.829   1.364 -0.4965  0.0898  0.1171
 4591TIP3    H135188   6.445   2.763   1.385 -0.0048  0.6990  0.5298
 4591TIP3    H235189   6.413   2.870   1.284  0.8563  1.9752  1.5904
 4592TIP3   OH235190   4.580   6.523   3.417  0.3326 -0.6801  0.4412
 4592TIP3    H135191   4.520   6.545   3.487 -0.5752 -1.8274  0.0254
 4592TIP3    H235192   4.659   6.575   3.436 -1.1185  1.6091  0.4354
 4593TIP3   OH235193   4.208   4.490  13.085 -0.1512  0.3381  0.2084
 4593TIP3    H135194   4.178   4.552  13.019  0.2068  0.1377 -0.1504
 4593TIP3    H235195   4.241   4.416  13.034 -0.1961  0.0337  0.6214
 4594TIP3   OH235196   1.748   1.334   5.080  0.2496 -0.0229 -0.1521
 4594TIP3    H135197   1.794   1.312   5.161  2.2056 -1.2940 -1.5692
 4594TIP3    H235198   1.691   1.259   5.064 -2.7957  1.7555  1.8544
 4595TIP3   OH235199   4.836   6.044  13.630  0.5383  0.8349  0.5081
 4595TIP3    H135200   4.817   6.132  13.598  0.1744  1.2491  1.8383
 4595TIP3    H235201   4.758   5.993  13.607  0.5143  1.0001  0.2280
 4596TIP3   OH235202   1.149   2.502   4.952 -0.0998 -0.0515 -0.0943
 4596TIP3    H135203   1.190   2.416   4.949 -3.3154 -1.6393 -0.0134
 4596TIP3    H235204   1.204   2.556   4.895  1.1303 -2.5172 -1.3437
 4597TIP3   OH235205   1.721   4.933   3.140  0.5608 -0.2386  0.1758
 4597TIP3    H135206   1.719   4.920   3.045 -0.7260 -1.5618  0.3769
 4597TIP3    H235207   1.660   4.868   3.175  0.6347  0.5790  1.8748
 4598TIP3   OH235208   2.064   4.687  14.396 -0.0259 -0.4098 -0.1906
 4598TIP3    H135209   2.056   4.761  14.457  0.4201 -0.8641  0.4247
 4598TIP3    H235210   1.984   4.690  14.344 -1.1085 -0.9169  1.4212
 4599TIP3   OH235211   2.581   4.648   4.387  0.1409  0.4824 -0.8008
 4599TIP3    H135212   2.492   4.682   4.391  0.0226  0.1128 -0.3014
 4599TIP3    H235213   2.630   4.700   4.451  0.0207 -0.1006 -0.2329
 4600TIP3   OH235214   3.097   1.937   2.145 -0.1088 -0.1093  0.0363
 4600TIP3    H135215   3.040   1.896   2.080 -0.7950  1.7207 -0.5511
 4600TIP3    H235216   3.040   1.953   2.220  0.9563 -3.3272  1.6331
 4601TIP3   OH235217   0.485   4.500   3.166 -0.1463 -0.1760  0.3978
 4601TIP3    H135218   0.444   4.580   3.198 -0.2721  0.3592 -1.0819
 4601TIP3    H235219   0.550   4.479   3.233 -0.6750  0.7008  1.2053
 4602TIP3   OH235220   2.614   5.182   6.168 -0.6971  0.5956  0.2105
 4602TIP3    H135221   2.540   5.138   6.127 -0.3926  0.3469 -0.0794
 4602TIP3    H235222   2.677   5.112   6.185  0.2094  1.0363 -1.1522
 4603TIP3   OH235223   6.296   1.748  16.497 -0.1715 -0.0318  0.6574
 4603TIP3    H135224   6.211   1.786  16.476 -0.8594 -1.6053  0.5590
 4603TIP3    H235225   6.280   1.697  16.577  1.0301  0.9119  1.5186
 4604TIP3   OH235226   3.466   2.260   2.117  0.3675  0.4354 -0.1829
 4604TIP3    H135227   3.385   2.311   2.105  0.6730  0.9303 -0.1716
 4604TIP3    H235228   3.450   2.207   2.195 -0.3083 -0.1852 -0.7391
 4605TIP3   OH235229   1.550   0.204  13.489 -0.2516  0.0308 -0.1011
 4605TIP3    H135230   1.486   0.135  13.470 -0.4797 -0.5254  2.5274
 4605TIP3    H235231   1.626   0.157  13.523  0.7519  0.8612 -1.1715
 4606TIP3   OH235232   3.037   6.693  11.296  0.1503 -0.0510  0.1821
 4606TIP3    H135233   2.998   6.627  11.353  0.2464  0.9845  1.4944
 4606TIP3    H235234   3.123   6.657  11.272  0.5557 -0.0522  1.5738
 4607TIP3   OH235235   3.308   4.192   5.542  0.0075  0.2181  0.1265
 4607TIP3    H135236   3.285   4.132   5.471 -0.5823  0.0270  0.4783
 4607TIP3    H235237   3.401   4.210   5.529 -0.0066 -0.1273 -0.4613
 4608TIP3   OH235238   4.636   3.481   0.366 -0.0393 -0.1462 -0.3707
 4608TIP3    H135239   4.701   3.551   0.360  1.2161 -1.3990 -1.7648
 4608TIP3    H235240   4.620   3.454   0.276  0.8305 -2.8380  0.2174
 4609TIP3   OH235241   4.398   3.050   3.546 -0.1493  0.1434 -0.0891
 4609TIP3    H135242   4.479   3.080   3.504  0.3726  0.1023  0.8828
 4609TIP3    H235243   4.338   3.124   3.538  0.5833  0.8512  0.7973
 4610TIP3   OH235244   4.655   1.824   2.736  0.3528  0.3529  0.1007
 4610TIP3    H135245   4.678   1.798   2.647 -1.9832 -0.1858 -0.3972
 4610TIP3    H235246   4.592   1.758   2.764 -0.1172  1.3962  1.5518
 4611TIP3   OH235247   1.556   6.097   2.164 -0.4207 -0.0456 -0.0864
 4611TIP3    H135248   1.646   6.113   2.133 -0.4554 -1.8018 -1.1671
 4611TIP3    H235249   1.548   6.002   2.166 -1.5544  0.0628  2.1494
 4612TIP3   OH235250   5.078   4.241  15.099 -0.2992  0.0002  0.1165
 4612TIP3    H135251   5.033   4.324  15.086  0.9024  0.8880  1.5256
 4612TIP3    H235252   5.105   4.214  15.011 -0.1464  1.3951 -0.2663
 4613TIP3   OH235253   6.619   3.605  11.785  0.6901 -0.1207 -0.0873
 4613TIP3    H135254   6.634   3.626  11.693 -0.0928 -2.4966 -0.7814
 4613TIP3    H235255   6.527   3.582  11.790  0.7233 -0.0224  1.3094
 4614TIP3   OH235256   5.651   6.372  12.346 -0.3249  0.5703 -0.1405
 4614TIP3    H135257   5.569   6.408  12.379  0.8017  2.1913  0.9985
 4614TIP3    H235258   5.683   6.315  12.416  0.2345  1.0996  0.0429
 4615TIP3   OH235259   4.567   2.445   1.005  0.4148 -0.8384 -0.1796
 4615TIP3    H135260   4.558   2.426   0.912 -2.4197  3.5104 -0.9513
 4615TIP3    H235261   4.639   2.508   1.010 -2.0398  2.0967 -0.0730
 4616TIP3   OH235262   2.450   0.993   1.642  0.1028 -0.2936  0.5040
 4616TIP3    H135263   2.523   1.021   1.587  0.1110 -0.1698  0.5769
 4616TIP3    H235264   2.477   1.017   1.731  0.4142 -1.1546  0.6528
 4617TIP3   OH235265   2.142   3.300   6.149  0.3683  0.3947 -0.0686
 4617TIP3    H135266   2.121   3.235   6.082  0.2810  3.1356 -2.8115
 4617TIP3    H235267   2.058   3.325   6.186  0.1248  1.0526 -1.0576
 4618TIP3   OH235268   4.961   6.403   4.495 -0.4662 -0.1761 -0.4137
 4618TIP3    H135269   4.953   6.351   4.415  1.0502 -0.5489 -0.3524
 4618TIP3    H235270   5.009   6.481   4.469  1.0259 -0.8162  0.3308
 4619TIP3   OH235271   5.377   5.284  11.800  0.1882 -0.0251 -0.2100
 4619TIP3    H135272   5.362   5.339  11.877 -0.2714  0.0483 -0.3522
 4619TIP3    H235273   5.373   5.344  11.726  0.3794 -0.1378 -0.3142
 4620TIP3   OH235274   6.618   5.742  13.204  0.0303 -0.1947 -0.1490
 4620TIP3    H135275   6.683   5.812  13.200 -0.0777 -0.1110 -0.4168
 4620TIP3    H235276   6.562   5.766  13.278 -1.0590  0.9188 -1.3184
 4621TIP3   OH235277   0.760   5.775   1.268 -0.5109 -0.0456  0.0557
 4621TIP3    H135278   0.809   5.738   1.195 -0.3259  1.1758 -0.4631
 4621TIP3    H235279   0.670   5.783   1.234 -0.7635 -0.9149  0.5013
 4622TIP3   OH235280   6.364   1.626   6.467  0.0266 -0.0627  0.1809
 4622TIP3    H135281   6.361   1.693   6.399  1.4766 -0.7823 -0.6149
 4622TIP3    H235282   6.447   1.581   6.452  0.4834 -0.0546  2.6051
 4623TIP3   OH235283   4.334   2.962   2.717 -0.2042 -0.0931  0.0477
 4623TIP3    H135284   4.336   3.022   2.793 -0.1350  0.0531 -0.0692
 4623TIP3    H235285   4.331   2.875   2.756 -0.1245 -0.0203  0.2210
 4624TIP3   OH235286   1.236   6.735  17.203  0.0638  0.6599  1.0494
 4624TIP3    H135287   1.202   6.785  17.128  1.6740 -0.3841 -0.4061
 4624TIP3    H235288   1.184   6.766  17.277 -1.4076  1.8973 -0.4454
 4625TIP3   OH235289   1.286   6.062  17.123  0.2319 -0.4225  0.1002
 4625TIP3    H135290   1.288   6.100  17.035 -0.4222 -0.5339  0.0315
 4625TIP3    H235291   1.310   6.135  17.181 -2.8626  0.6740  0.1329
 4626TIP3   OH235292   6.263   2.690  16.184 -0.1890 -0.6498  0.3323
 4626TIP3    H135293   6.241   2.779  16.155 -0.5295 -0.4984  1.0583
 4626TIP3    H235294   6.343   2.669  16.136 -0.6771 -0.3512 -0.6383
 4627TIP3   OH235295   0.485   5.732   1.171 -0.4073  0.2426 -0.3784
 4627TIP3    H135296   0.409   5.788   1.181 -1.1560 -1.4716  4.6257
 4627TIP3    H235297   0.451   5.653   1.127 -1.1319  0.2187  0.2263
 4628TIP3   OH235298   6.446   5.726  17.151 -0.5278 -0.1666  0.4942
 4628TIP3    H135299   6.521   5.667  17.140 -0.7049 -0.4937  1.0407
 4628TIP3    H235300   6.486   5.808  17.180 -0.3314 -0.1783  0.2616
 4629TIP3   OH235301   1.630   0.669   1.861  0.3483 -0.3335 -0.5438
 4629TIP3    H135302   1.679   0.670   1.778 -0.7467  0.1944 -1.1938
 4629TIP3    H235303   1.623   0.577   1.884  0.4369 -0.5017 -1.1786
 4630TIP3   OH235304   1.029   4.893  14.017 -0.1183 -0.5260  0.3416
 4630TIP3    H135305   1.007   4.839  13.942 -1.1542 -1.5898  1.3858
 4630TIP3    H235306   0.959   4.958  14.022  1.9145  1.9289 -1.8124
 4631TIP3   OH235307   6.375   1.237  12.523 -0.3604  0.0970 -0.6263
 4631TIP3    H135308   6.386   1.172  12.592 -1.1998  0.6845  0.0917
 4631TIP3    H235309   6.411   1.197  12.444 -0.7196 -1.1616 -0.1565
 4632TIP3   OH235310   3.104   1.681   0.991  0.4117  0.1758 -0.4919
 4632TIP3    H135311   3.026   1.731   1.016  0.4521  0.4586 -0.9110
 4632TIP3    H235312   3.135   1.725   0.912  1.5939  0.7080  0.2508
 4633TIP3   OH235313   1.770   0.057   1.643  0.2754 -0.2552  0.2819
 4633TIP3    H135314   1.842   0.001   1.672  0.3981  0.0519  0.5781
 4633TIP3    H235315   1.691   0.006   1.661  0.3948 -0.3900  0.4213
 4634TIP3   OH235316   4.523   0.227  15.711  0.3901 -0.3493  0.4001
 4634TIP3    H135317   4.549   0.198  15.624  1.6266 -2.1467  1.3385
 4634TIP3    H235318   4.605   0.247  15.756 -0.2486  0.8662  1.0517
 4635TIP3   OH235319   1.525   1.301   2.175  0.1277  0.0094 -0.1329
 4635TIP3    H135320   1.529   1.352   2.093 -0.7584  0.1455 -0.0889
 4635TIP3    H235321   1.526   1.210   2.146  0.1557  0.0559 -0.2805
 4636TIP3   OH235322   4.571   3.057  14.505 -0.2874 -0.3929  0.1583
 4636TIP3    H135323   4.585   3.044  14.598  2.2063  2.2620  0.2206
 4636TIP3    H235324   4.481   3.090  14.498  0.4247  2.0069  1.9128
 4637TIP3   OH235325   5.740   2.305  14.779 -0.1072  0.5288  0.2458
 4637TIP3    H135326   5.749   2.303  14.874  0.6878 -1.1957  0.1551
 4637TIP3    H235327   5.739   2.213  14.753 -0.8571  0.9747 -1.3765
 4638TIP3   OH235328   1.753   3.341   0.890 -0.2872 -0.3029  0.1229
 4638TIP3    H135329   1.826   3.367   0.834 -0.7846  2.0667  0.5178
 4638TIP3    H235330   1.793   3.291   0.961  0.7626 -0.3196 -0.4744
 4639TIP3   OH235331   4.022   3.758  13.546 -0.4418 -0.2241 -0.0055
 4639TIP3    H135332   4.113   3.748  13.519 -0.4181 -1.5969  0.5611
 4639TIP3    H235333   3.979   3.804  13.473 -0.4375 -3.9655 -2.4705
 4640TIP3   OH235334   0.204   2.085   2.073 -0.2639  0.2155 -0.0908
 4640TIP3    H135335   0.187   2.089   1.978 -0.9276  0.3454  0.0337
 4640TIP3    H235336   0.169   2.167   2.107 -0.4075 -0.0201  0.3276
 4641TIP3   OH235337   0.863   6.206  12.857  0.0875 -0.2129 -0.0230
 4641TIP3    H135338   0.805   6.131  12.840 -0.5509  0.2215  0.2296
 4641TIP3    H235339   0.825   6.278  12.808 -0.9397  0.6828  2.0173
 4642TIP3   OH235340   5.762   5.091  11.538  0.8143 -0.1096 -0.1985
 4642TIP3    H135341   5.731   5.092  11.628 -0.9560 -0.5524 -0.7848
 4642TIP3    H235342   5.764   4.998  11.514  0.1296  0.0662 -0.9833
 4643TIP3   OH235343   1.919   1.186   1.710  0.4696  0.3399  0.3806
 4643TIP3    H135344   1.966   1.268   1.699  1.7843 -0.6189 -1.3339
 4643TIP3    H235345   1.831   1.213   1.736  1.2957  2.2250  1.3345
 4644TIP3   OH235346   0.461   0.962  14.972  0.0113  0.4897  1.1856
 4644TIP3    H135347   0.495   0.885  14.925 -1.0726 -0.1192  1.3939
 4644TIP3    H235348   0.510   1.035  14.935 -0.9279  0.0373 -1.0231
 4645TIP3   OH235349   2.763   3.118   1.230  0.1710 -0.1050 -0.3515
 4645TIP3    H135350   2.834   3.054   1.234  0.7333  0.5742  0.5200
 4645TIP3    H235351   2.747   3.130   1.136  2.5170  1.1950 -0.6334
 4646TIP3   OH235352   1.113   4.702   1.133  0.0503 -0.3096  0.5239
 4646TIP3    H135353   1.154   4.766   1.074 -0.3801  0.4847  1.0727
 4646TIP3    H235354   1.181   4.679   1.195  0.8952 -2.1068 -1.0159
 4647TIP3   OH235355   6.524   6.567   3.287 -0.2982  0.1104 -0.4758
 4647TIP3    H135356   6.480   6.582   3.203 -2.1751  0.9586  0.6289
 4647TIP3    H235357   6.550   6.654   3.316  0.9020 -0.2484 -0.4662
 4648TIP3   OH235358   5.144   2.426   1.623 -0.4058 -0.3135 -0.4842
 4648TIP3    H135359   5.137   2.464   1.710 -0.1637 -3.4250  0.9545
 4648TIP3    H235360   5.061   2.450   1.580  0.6362  3.6876 -0.5208
 4649TIP3   OH235361   4.813   4.424   6.375 -0.3211 -0.2653  0.4489
 4649TIP3    H135362   4.734   4.392   6.418 -1.1480  0.9324 -0.1687
 4649TIP3    H235363   4.819   4.371   6.295 -0.9959  0.2576  0.0501
 4650TIP3   OH235364   0.136   4.797   4.541 -0.0835 -0.4524 -0.0199
 4650TIP3    H135365   0.213   4.749   4.571 -0.9027 -1.9994 -0.3452
 4650TIP3    H235366   0.089   4.735   4.485 -2.7141 -0.3098  1.9314
 4651TIP3   OH235367   1.980   4.014  10.965  0.2950 -0.5286  0.0105
 4651TIP3    H135368   1.912   3.993  10.901  0.4501 -0.8327 -0.0579
 4651TIP3    H235369   2.037   4.077  10.919 -0.8575  1.0056  0.6472
 4652TIP3   OH235370   4.504   6.472  15.045  0.2801 -0.4284  0.9311
 4652TIP3    H135371   4.546   6.546  15.001  2.4666 -0.9760  2.0064
 4652TIP3    H235372   4.465   6.420  14.975 -1.2169  1.6656  0.1551
 4653TIP3   OH235373   5.867   0.800  11.161  0.3719 -0.0248  0.1350
 4653TIP3    H135374   5.894   0.892  11.153  0.6835  0.1096  2.3757
 4653TIP3    H235375   5.946   0.750  11.139  0.8700  0.2966  1.1342
 4654TIP3   OH235376   6.631   1.768   4.019  0.4218  0.1472 -0.7276
 4654TIP3    H135377   6.637   1.857   4.053  0.3538  0.2524 -0.9900
 4654TIP3    H235378   6.537   1.750   4.016  0.3473  0.6895 -2.2766
 4655TIP3   OH235379   4.171   6.370   3.075 -0.0963 -0.3734 -0.6009
 4655TIP3    H135380   4.126   6.287   3.089 -0.3820  0.1338  1.6234
 4655TIP3    H235381   4.263   6.346   3.067 -0.2152 -0.9424 -0.2971
 4656TIP3   OH235382   6.272   2.156   1.994 -0.4181  0.2255  0.4004
 4656TIP3    H135383   6.185   2.144   1.955  0.0965 -0.9860 -0.4217
 4656TIP3    H235384   6.308   2.068   2.000  0.3352  0.6083  1.7539
 4657TIP3   OH235385   2.066   6.578   3.465  0.5718  0.1628 -0.1509
 4657TIP3    H135386   2.073   6.488   3.497  0.6648  0.0399 -0.5116
 4657TIP3    H235387   1.992   6.578   3.405  0.0705  0.5147  0.4634
 4658TIP3   OH235388   5.808   5.234   4.805  0.2084  0.0127 -0.3359
 4658TIP3    H135389   5.800   5.163   4.869  0.3529  0.6026  0.3584
 4658TIP3    H235390   5.721   5.243   4.767  0.6515 -1.7931 -1.8049
 4659TIP3   OH235391   4.571   5.016  14.189  0.0606 -0.1351 -0.3585
 4659TIP3    H135392   4.531   5.072  14.256  0.0204 -0.9077  0.2717
 4659TIP3    H235393   4.578   5.072  14.112 -0.0867  0.7019  0.2297
 4660TIP3   OH235394   2.406   6.237   5.453 -0.0286  0.1835 -0.6060
 4660TIP3    H135395   2.326   6.272   5.490 -1.1473 -1.5710 -1.2894
 4660TIP3    H235396   2.415   6.150   5.492  1.7297  0.4949 -0.2687
 4661TIP3   OH235397   2.802   5.674   2.094  0.1355  0.0948  0.7451
 4661TIP3    H135398   2.894   5.697   2.084 -0.2490  1.6410  0.6979
 4661TIP3    H235399   2.788   5.602   2.032  0.5951  1.8356 -1.4475
 4662TIP3   OH235400   0.052   6.231   5.875 -0.0212  0.1707  0.3051
 4662TIP3    H135401   0.030   6.293   5.945  3.2735 -1.4624  2.9595
 4662TIP3    H235402   0.063   6.147   5.920  0.3828 -1.3219 -2.4695
 4663TIP3   OH235403   0.445   2.131   4.388 -0.4798 -0.6371 -0.5111
 4663TIP3    H135404   0.432   2.064   4.320 -3.6391 -0.7369  0.1160
 4663TIP3    H235405   0.415   2.089   4.468  0.6436  0.4406  0.4985
 4664TIP3   OH235406   0.110   0.730  12.978 -0.3592 -0.2054  0.8693
 4664TIP3    H135407   0.136   0.728  13.070 -0.6594 -1.0760  0.9367
 4664TIP3    H235408   0.054   0.653  12.966  0.3710 -0.5888 -0.2399
 4665TIP3   OH235409   5.101   6.373   3.205  0.2283 -0.4389  0.1463
 4665TIP3    H135410   5.172   6.419   3.250 -0.8708  0.1870  1.3029
 4665TIP3    H235411   5.027   6.434   3.209 -0.4092 -1.1301 -0.9113
 4666TIP3   OH235412   0.330   4.197   5.779 -0.4449  0.1576  0.3455
 4666TIP3    H135413   0.300   4.112   5.748 -1.5357  1.0751 -1.1809
 4666TIP3    H235414   0.422   4.202   5.750 -0.9656  0.3104 -1.3435
 4667TIP3   OH235415   1.536   2.175  14.428  0.1128  0.2990  0.0890
 4667TIP3    H135416   1.595   2.248  14.408  0.0437  0.5657  0.8421
 4667TIP3    H235417   1.587   2.119  14.486 -0.4162  0.5838  0.8263
 4668TIP3   OH235418   1.656   5.402   3.015 -0.1204 -0.4503 -0.4419
 4668TIP3    H135419   1.735   5.364   2.978  0.1263 -0.4918  0.1212
 4668TIP3    H235420   1.602   5.424   2.939 -0.1407 -1.6463 -0.7774
 4669TIP3   OH235421   0.930   5.793  11.941 -0.1180  0.4055 -0.9497
 4669TIP3    H135422   0.859   5.808  11.878  0.1561 -0.7554 -1.5324
 4669TIP3    H235423   0.901   5.718  11.993  0.1468  0.6818 -0.3951
 4670TIP3   OH235424   1.689   1.240   2.423 -0.6100 -0.5066 -0.0201
 4670TIP3    H135425   1.644   1.158   2.446 -0.6508 -0.4912 -0.0442
 4670TIP3    H235426   1.633   1.279   2.355 -0.3293 -0.6997 -0.3646
 4671TIP3   OH235427   5.738   6.719  12.383  0.2190  0.1354 -0.4685
 4671TIP3    H135428   5.789   6.797  12.359 -0.2559  0.4136 -0.5802
 4671TIP3    H235429   5.659   6.754  12.425  0.0564 -0.2893 -0.4198
 4672TIP3   OH235430   3.056   5.935   0.988 -0.1654  0.0517  0.3665
 4672TIP3    H135431   2.988   5.894   0.934  1.0628 -0.8518 -0.5393
 4672TIP3    H235432   3.078   5.869   1.053 -0.1996  0.3671  0.6989
 4673TIP3   OH235433   0.543   6.690  11.839  0.8160 -0.0200 -0.7077
 4673TIP3    H135434   0.591   6.748  11.779 -1.9990  0.6220 -2.4101
 4673TIP3    H235435   0.547   6.604  11.797 -1.2343  0.4480 -1.9392
 4674TIP3   OH235436   2.468   4.995   2.635 -0.2664  0.1515 -0.2816
 4674TIP3    H135437   2.509   4.988   2.722  1.1577 -1.6563 -1.0541
 4674TIP3    H235438   2.436   4.906   2.617 -1.2681  0.7040 -1.2773
 4675TIP3   OH235439   3.529   5.656   2.388  0.0604  0.5212  0.0193
 4675TIP3    H135440   3.487   5.739   2.363 -0.1652  0.2177 -0.6179
 4675TIP3    H235441   3.584   5.634   2.313 -0.6309 -0.4017 -0.2265
 4676TIP3   OH235442   6.782   1.182  17.086 -0.0359  0.3341  0.1665
 4676TIP3    H135443   6.734   1.166  17.005 -1.7928  1.9029  0.8538
 4676TIP3    H235444   6.780   1.099  17.132  0.7568 -0.5094 -1.2635
 4677TIP3   OH235445   6.406   5.697  14.471  0.2636  0.5453 -0.0305
 4677TIP3    H135446   6.454   5.779  14.482 -1.2317  1.3390  0.8128
 4677TIP3    H235447   6.400   5.661  14.559  1.7595 -0.9909 -0.5309
 4678TIP3   OH235448   2.081   3.059   1.717 -0.2823  0.1919  0.3145
 4678TIP3    H135449   1.989   3.033   1.726  0.1021 -1.2470  0.2365
 4678TIP3    H235450   2.114   3.062   1.806 -0.1044 -0.4634  0.2765
 4679TIP3   OH235451   1.687   3.183   3.825  0.0489  0.3326 -0.0872
 4679TIP3    H135452   1.660   3.215   3.911  0.7397  0.2728  0.1513
 4679TIP3    H235453   1.710   3.092   3.839  0.0194  0.2820 -0.3642
 4680TIP3   OH235454   4.233   4.734  11.457 -0.3576  0.3982 -0.2986
 4680TIP3    H135455   4.151   4.779  11.439 -0.6912 -0.1663 -0.1774
 4680TIP3    H235456   4.227   4.706  11.548  0.4853  1.4434  0.0949
 4681TIP3   OH235457   4.272   2.369   2.403  0.3829 -0.2127  0.7731
 4681TIP3    H135458   4.248   2.395   2.492 -1.9852  0.1712  0.0465
 4681TIP3    H235459   4.305   2.449   2.362  0.6589 -0.1959  1.0255
 4682TIP3   OH235460   5.137   1.077  14.437 -0.1785 -0.2903 -0.5827
 4682TIP3    H135461   5.206   1.016  14.463 -0.5718 -0.2964  0.4923
 4682TIP3    H235462   5.122   1.059  14.344  1.1688 -0.3693 -0.7845
 4683TIP3   OH235463   4.066   2.842  13.118 -0.0168  0.0725 -0.2680
 4683TIP3    H135464   4.037   2.792  13.042  0.2455  1.3124 -1.2030
 4683TIP3    H235465   4.080   2.930  13.085  0.8220  0.4588  1.0632
 4684TIP3   OH235466   6.740   0.654  14.814  0.0008  0.3884 -0.0786
 4684TIP3    H135467   6.830   0.682  14.797 -0.2384  1.1638 -0.0742
 4684TIP3    H235468   6.687   0.706  14.754 -0.4930  0.2743  0.2592
 4685TIP3   OH235469   6.211   3.416   0.436 -0.7681  0.3122 -0.0559
 4685TIP3    H135470   6.267   3.485   0.402 -2.1327  0.7348 -1.5440
 4685TIP3    H235471   6.129   3.460   0.458 -1.0855 -0.5543  0.5067
 4686TIP3   OH235472   1.800   0.811  13.501  0.0196 -0.5164  0.0898
 4686TIP3    H135473   1.717   0.766  13.515 -0.5643  0.6108  0.2909
 4686TIP3    H235474   1.810   0.815  13.406 -1.0918  1.0266  0.0257
 4687TIP3   OH235475   2.672   5.599  14.525  0.3660  0.0237 -0.0741
 4687TIP3    H135476   2.765   5.604  14.542  0.3035  2.1507 -0.2651
 4687TIP3    H235477   2.630   5.639  14.601 -0.3877 -0.8500 -0.0165
 4688TIP3   OH235478   6.272   5.360   5.304  0.4285 -0.2621 -0.0506
 4688TIP3    H135479   6.358   5.325   5.282  0.1579 -0.7627 -0.3268
 4688TIP3    H235480   6.244   5.308   5.380  0.1995 -0.3666 -0.2082
 4689TIP3   OH235481   0.150   3.440  15.380 -0.5966  1.2070  0.1374
 4689TIP3    H135482   0.148   3.499  15.456 -0.9490  0.5059  0.6741
 4689TIP3    H235483   0.108   3.491  15.310 -0.1956  1.8851  0.3792
 4690TIP3   OH235484   3.285   2.646  14.122 -0.1178  0.5851 -0.3382
 4690TIP3    H135485   3.217   2.683  14.178 -1.2034 -1.0608 -0.5437
 4690TIP3    H235486   3.242   2.628  14.039  1.1409  1.6651 -1.2532
 4691TIP3   OH235487   2.829   1.557   5.260  0.0913  0.0292  0.3186
 4691TIP3    H135488   2.897   1.598   5.314  2.8608 -2.0314 -1.4878
 4691TIP3    H235489   2.860   1.468   5.245 -2.1177 -0.4082 -2.0947
 4692TIP3   OH235490   5.157   2.903   0.786 -0.0346  1.0407  0.3331
 4692TIP3    H135491   5.152   2.947   0.871  1.8734  0.9384  0.5049
 4692TIP3    H235492   5.249   2.908   0.761 -0.4106  0.2357 -1.2951
 4693TIP3   OH235493   6.752   2.528   2.428  0.2364  0.3085 -0.3647
 4693TIP3    H135494   6.794   2.511   2.512  2.5696 -4.1935 -2.2042
 4693TIP3    H235495   6.686   2.459   2.419  0.6500  0.1503 -2.5676
 4694TIP3   OH235496   2.134   2.115  15.031 -0.0540  0.0564  0.4533
 4694TIP3    H135497   2.062   2.080  15.083 -0.2213  1.7490  1.3860
 4694TIP3    H235498   2.203   2.135  15.095 -0.1570  1.9047  0.0249
 4695TIP3   OH235499   6.768   4.329  11.404 -0.3141 -0.0418  0.8987
 4695TIP3    H135500   6.732   4.319  11.316 -1.5586  6.1257  0.4679
 4695TIP3    H235501   6.849   4.379  11.392 -0.3808  0.7075  3.2064
 4696TIP3   OH235502   3.243   0.966  12.079  0.0630 -0.2422  0.0236
 4696TIP3    H135503   3.178   0.917  12.129  1.4201 -0.5443  1.5144
 4696TIP3    H235504   3.192   1.012  12.012 -1.6048 -0.9348  0.8002
 4697TIP3   OH235505   0.304   6.435  11.433 -0.3850 -0.4588  0.0607
 4697TIP3    H135506   0.386   6.402  11.394  1.1610  1.6746  1.4005
 4697TIP3    H235507   0.321   6.528  11.450 -2.3903 -0.4404  2.2194
 4698TIP3   OH235508   2.779   5.389  14.202 -0.4072 -0.3138 -0.1603
 4698TIP3    H135509   2.747   5.422  14.118  0.7996  0.4560 -0.3331
 4698TIP3    H235510   2.793   5.295  14.186  1.0314  0.0615 -1.2122
 4699TIP3   OH235511   2.103   6.569   4.349 -0.7433  0.4314 -0.3446
 4699TIP3    H135512   2.156   6.600   4.422  0.4706  0.1970 -1.1203
 4699TIP3    H235513   2.037   6.513   4.389  0.8562 -0.9425  0.4198
 4700TIP3   OH235514   5.492   1.816  15.380 -0.5222 -0.0627 -0.2253
 4700TIP3    H135515   5.429   1.789  15.313  0.2214 -1.9718 -0.1834
 4700TIP3    H235516   5.565   1.854  15.331 -1.3303  1.4150 -0.3133
 4701TIP3   OH235517   0.906   5.678   5.642 -0.2784 -0.1594 -0.0326
 4701TIP3    H135518   0.989   5.723   5.633 -0.5667  0.7169  1.4571
 4701TIP3    H235519   0.925   5.603   5.699 -0.1536 -0.9429 -1.1005
 4702TIP3   OH235520   0.457   6.761   6.598  0.4359 -0.2695  0.0887
 4702TIP3    H135521   0.512   6.784   6.673 -0.3021  0.9363  0.2750
 4702TIP3    H235522   0.448   6.843   6.550 -0.8187 -0.5705 -0.1963
 4703TIP3   OH235523   5.664   0.588  12.904  0.0145 -0.4012 -0.1962
 4703TIP3    H135524   5.660   0.492  12.904  0.7661 -0.4437  0.1373
 4703TIP3    H235525   5.643   0.613  12.994  2.8252 -0.4385  0.5374
 4704TIP3   OH235526   6.406   5.066   3.736 -0.4133 -0.3003 -0.2666
 4704TIP3    H135527   6.356   4.986   3.720  1.0696 -1.1503 -0.7502
 4704TIP3    H235528   6.497   5.037   3.740  0.0858  1.2746  0.2102
 4705TIP3   OH235529   1.940   4.727   1.949  0.2186  0.0891 -0.7540
 4705TIP3    H135530   1.960   4.681   1.867 -0.1733 -0.8370 -0.3237
 4705TIP3    H235531   1.853   4.765   1.934  0.0463 -0.2781 -0.6731
 4706TIP3   OH235532   1.584   4.690  10.811 -0.4801 -0.1359  0.6063
 4706TIP3    H135533   1.674   4.681  10.842 -0.3011  0.4611  0.2732
 4706TIP3    H235534   1.572   4.617  10.750  0.0305  0.2163  0.0731
 4707TIP3   OH235535   5.773   4.409   5.068  0.4593 -0.2104  0.6368
 4707TIP3    H135536   5.695   4.393   5.014  1.3130 -0.6896 -0.4831
 4707TIP3    H235537   5.738   4.431   5.154 -0.8578 -4.2991  1.2431
 4708TIP3   OH235538   0.240   0.820  15.065  0.0182 -0.3039  0.4102
 4708TIP3    H135539   0.273   0.810  15.155 -0.1529  0.0660  0.5122
 4708TIP3    H235540   0.300   0.881  15.024  1.1280 -1.8052 -0.2587
 4709TIP3   OH235541   1.628   3.360  16.061 -0.0355  0.2897  0.1713
 4709TIP3    H135542   1.723   3.351  16.058 -0.1081 -0.6671  0.4437
 4709TIP3    H235543   1.606   3.356  16.154 -0.3534  0.3685  0.1003
 4710TIP3   OH235544   1.227   6.362   4.919 -0.2474  0.3230 -0.1043
 4710TIP3    H135545   1.305   6.413   4.938 -0.0631 -0.4368  1.2379
 4710TIP3    H235546   1.251   6.307   4.844  0.4735  0.1636  0.2406
 4711TIP3   OH235547   5.584   3.332  13.715 -0.3425 -0.3445 -0.0011
 4711TIP3    H135548   5.554   3.406  13.768 -0.8156  0.4975 -1.4018
 4711TIP3    H235549   5.672   3.313  13.747 -0.7470 -0.0751  1.3047
 4712TIP3   OH235550   4.389   3.120  16.153  0.1506  0.1082 -0.5310
 4712TIP3    H135551   4.356   3.031  16.136 -0.4636  0.1518  0.3780
 4712TIP3    H235552   4.483   3.114  16.138  0.3766 -1.1334  1.1643
 4713TIP3   OH235553   1.367   3.078  13.183  0.1184 -0.1873 -0.1783
 4713TIP3    H135554   1.312   3.000  13.176  0.8826 -0.8438  0.8081
 4713TIP3    H235555   1.454   3.043  13.203  0.7908  0.8535 -1.2416
 4714TIP3   OH235556   3.021   0.144   0.635 -0.3517 -0.4001 -0.2028
 4714TIP3    H135557   3.034   0.058   0.676 -1.5652 -0.6437 -0.3218
 4714TIP3    H235558   2.940   0.135   0.585 -1.5211  1.3890  1.3324
 4715TIP3   OH235559   2.141   0.317   5.037  0.3274  0.5209 -0.2219
 4715TIP3    H135560   2.213   0.286   5.092  0.6625  1.2634 -0.2361
 4715TIP3    H235561   2.170   0.299   4.947  0.4882  0.7944 -0.2264
 4716TIP3   OH235562   3.293   5.709   3.727  0.0045 -0.2679  0.4620
 4716TIP3    H135563   3.338   5.673   3.650  0.1187  0.1377  0.3397
 4716TIP3    H235564   3.352   5.692   3.800 -0.4888 -1.4258  0.5961
 4717TIP3   OH235565   6.146   3.722   3.400  0.5369 -0.3290  0.5794
 4717TIP3    H135566   6.229   3.675   3.404  1.0143  0.5304  0.9487
 4717TIP3    H235567   6.092   3.671   3.340  0.9862 -1.4368  1.1035
 4718TIP3   OH235568   5.212   3.180  16.010 -0.1029 -0.4488  0.3772
 4718TIP3    H135569   5.224   3.193  15.916  0.5659 -0.8613  0.4090
 4718TIP3    H235570   5.117   3.170  16.020 -0.4901  2.4444  0.1035
 4719TIP3   OH235571   4.184   1.936  10.836  0.2499 -0.1540 -0.1115
 4719TIP3    H135572   4.196   1.935  10.741  1.3593 -0.6498  0.0252
 4719TIP3    H235573   4.153   1.849  10.858  0.1533 -0.0922 -0.0020
 4720TIP3   OH235574   0.332   3.584  17.208 -0.6350  0.0141  0.3107
 4720TIP3    H135575   0.314   3.491  17.194 -0.1742  0.0511 -0.5793
 4720TIP3    H235576   0.334   3.622  17.120  2.6040  0.2014  0.3783
 4721TIP3   OH235577   6.072   2.899  15.479 -0.1634  0.8833  0.2367
 4721TIP3    H135578   5.978   2.882  15.485  0.1041 -0.6380  0.2303
 4721TIP3    H235579   6.100   2.853  15.400  0.6858  0.8948  0.5305
 4722TIP3   OH235580   4.407   0.138   6.415  0.3954  0.0193 -0.2971
 4722TIP3    H135581   4.409   0.079   6.490  0.9829 -1.7251 -1.6520
 4722TIP3    H235582   4.499   0.154   6.395  0.3071 -2.2293 -2.6960
 4723TIP3   OH235583   2.355   4.588   3.971  0.2511 -0.0442  0.7121
 4723TIP3    H135584   2.375   4.660   3.910 -1.2688 -0.4768 -0.3189
 4723TIP3    H235585   2.337   4.632   4.054 -0.5686  0.7787  0.1115
 4724TIP3   OH235586   4.184   1.981  12.308  0.1123 -0.4303 -0.0669
 4724TIP3    H135587   4.140   1.941  12.233 -1.3787  1.6290 -0.3490
 4724TIP3    H235588   4.272   2.001  12.277  0.7593 -3.0689 -0.0322
 4725TIP3   OH235589   5.845   1.443  15.475 -0.2111 -0.5123  0.1841
 4725TIP3    H135590   5.892   1.469  15.554  0.5448  2.4475 -1.1724
 4725TIP3    H235591   5.769   1.501  15.472  0.4006  0.2188 -1.8609
 4726TIP3   OH235592   2.827   2.997   4.292 -0.0972  0.4800 -0.4441
 4726TIP3    H135593   2.761   3.066   4.297  1.2192  1.7391 -0.0531
 4726TIP3    H235594   2.891   3.031   4.230  0.5818 -0.3674 -0.2036
 4727TIP3   OH235595   1.426   3.949   4.603  0.0695 -0.4100  0.0304
 4727TIP3    H135596   1.362   3.958   4.532  0.3125  2.2044  0.0945
 4727TIP3    H235597   1.426   3.856   4.623 -0.6851 -1.0719 -2.7819
 4728TIP3   OH235598   5.914   3.128   0.919  0.2253  0.0487 -0.5049
 4728TIP3    H135599   5.920   3.222   0.899  2.4611 -0.4288 -2.3224
 4728TIP3    H235600   5.997   3.108   0.963 -1.0377 -0.7202  1.5935
 4729TIP3   OH235601   3.869   5.040   5.257  0.2682 -0.0320 -0.4279
 4729TIP3    H135602   3.806   5.052   5.328  0.6732 -1.3403  0.1649
 4729TIP3    H235603   3.915   4.959   5.279  0.1896 -0.6171 -2.3495
 4730TIP3   OH235604   6.778   3.582  14.435  0.0387 -0.5315 -0.2699
 4730TIP3    H135605   6.846   3.621  14.381  0.2986  1.3712  1.3898
 4730TIP3    H235606   6.822   3.513  14.484  0.6042  0.1431  0.1782
 4731TIP3   OH235607   1.584   4.439  11.748  0.2292  0.5141  0.1216
 4731TIP3    H135608   1.554   4.530  11.739 -0.6946  0.2210  0.1902
 4731TIP3    H235609   1.513   4.387  11.710  0.9030 -0.1646 -0.2094
 4732TIP3   OH235610   3.927   0.590  14.588  0.4014  0.2573  0.3115
 4732TIP3    H135611   3.898   0.655  14.651 -2.3177 -0.7459  0.1601
 4732TIP3    H235612   3.997   0.542  14.633  1.1441  2.0474  1.0933
 4733TIP3   OH235613   5.662   2.991  16.489 -0.2879 -0.3929 -0.3514
 4733TIP3    H135614   5.682   2.905  16.452  1.8108  0.6642 -1.7474
 4733TIP3    H235615   5.702   2.991  16.576  3.6385  0.7321 -2.0755
 4734TIP3   OH235616   4.612   4.116  14.269 -0.0338 -0.2940  0.2078
 4734TIP3    H135617   4.596   4.024  14.248 -0.6719 -0.3635  0.9816
 4734TIP3    H235618   4.679   4.113  14.337  0.3338 -0.1618 -0.1464
 4735TIP3   OH235619   5.996   5.228   2.729  0.1573  0.2649 -0.0940
 4735TIP3    H135620   6.071   5.250   2.674 -0.9426  1.4576 -1.1567
 4735TIP3    H235621   5.920   5.237   2.670 -0.8494 -0.5084  1.0634
 4736TIP3   OH235622   1.107   4.078   3.711 -0.2384  0.1426  0.1454
 4736TIP3    H135623   1.100   4.119   3.624  0.6887  2.6120  1.1757
 4736TIP3    H235624   1.194   4.039   3.712  0.2271  1.1812  0.3999
 4737TIP3   OH235625   3.873   1.145   2.189 -0.3152  0.1600 -0.5341
 4737TIP3    H135626   3.816   1.068   2.194 -0.2149 -0.0056 -1.9056
 4737TIP3    H235627   3.813   1.219   2.195 -0.4732 -0.0182  0.1454
 4738TIP3   OH235628   2.168   4.001  11.954  0.1534  0.6828  0.0636
 4738TIP3    H135629   2.092   3.943  11.965  0.5211  0.0795 -0.5346
 4738TIP3    H235630   2.145   4.079  12.004  0.1599 -0.4489  1.9148
 4739TIP3   OH235631   5.417   5.707   1.409 -0.4944  0.1504 -0.0083
 4739TIP3    H135632   5.441   5.788   1.364  0.1014  0.0312  0.0949
 4739TIP3    H235633   5.328   5.722   1.439 -0.4756  0.6730 -0.2090
 4740TIP3   OH235634   5.782   3.926   1.018 -0.3627  0.5875  0.0231
 4740TIP3    H135635   5.747   3.920   0.929  2.6962  0.8549 -1.2632
 4740TIP3    H235636   5.762   3.841   1.057 -0.4340 -0.0918 -1.4378
 4741TIP3   OH235637   3.483   3.684  15.515 -0.3206 -0.0547 -0.1750
 4741TIP3    H135638   3.432   3.764  15.519  1.3181  1.0938 -1.6901
 4741TIP3    H235639   3.503   3.673  15.422 -0.6297 -2.2927 -0.0043
 4742TIP3   OH235640   0.243   4.521   1.420 -0.5124  0.0162  0.4524
 4742TIP3    H135641   0.241   4.475   1.336 -1.6195 -0.4122  0.7033
 4742TIP3    H235642   0.290   4.602   1.402 -1.1602  0.1527 -0.7009
 4743TIP3   OH235643   3.297   0.713  10.112 -0.0891  1.1295 -0.0054
 4743TIP3    H135644   3.310   0.723  10.018  0.4184  0.1923 -0.0364
 4743TIP3    H235645   3.382   0.734  10.151 -0.7085  3.0895  0.3757
 4744TIP3   OH235646   2.550   3.541  14.550 -0.1505  1.3529 -0.5432
 4744TIP3    H135647   2.613   3.472  14.571 -0.8364  1.3118  1.4916
 4744TIP3    H235648   2.466   3.506  14.577 -0.6502  2.5496 -0.4896
 4745TIP3   OH235649   0.432   5.639  15.241  1.0252 -0.0882 -0.2881
 4745TIP3    H135650   0.494   5.702  15.278  0.4445  0.3765 -0.1094
 4745TIP3    H235651   0.382   5.607  15.316  0.4864  0.1495 -0.5439
 4746TIP3   OH235652   3.111   0.497   0.519 -0.3997  0.0399  0.1379
 4746TIP3    H135653   3.149   0.412   0.540 -2.4938 -1.3700 -1.5049
 4746TIP3    H235654   3.165   0.530   0.446  0.5496  0.2373  0.9206
 4747TIP3   OH235655   6.230   1.489  13.778 -0.2616  0.0499 -0.4666
 4747TIP3    H135656   6.178   1.410  13.767 -1.2033  0.7559 -1.1359
 4747TIP3    H235657   6.270   1.503  13.692  1.6558 -0.8958  0.2236
 4748TIP3   OH235658   1.436   5.588  13.785  0.4126  0.2408  0.8374
 4748TIP3    H135659   1.421   5.577  13.879 -2.0601 -0.1908  0.4133
 4748TIP3    H235660   1.350   5.609  13.749  1.2297 -0.1664 -1.4195
 4749TIP3   OH235661   4.466   0.225   0.785  0.1372 -0.1529  0.3119
 4749TIP3    H135662   4.505   0.311   0.801  0.5383 -0.2891  0.0725
 4749TIP3    H235663   4.505   0.168   0.852  2.6985 -0.9883 -1.8101
 4750TIP3   OH235664   0.516   5.199   1.496 -0.4117 -0.5235  0.2352
 4750TIP3    H135665   0.599   5.152   1.487 -0.6631 -1.1131  0.9518
 4750TIP3    H235666   0.464   5.171   1.420  0.0913 -0.0336 -0.2987
 4751TIP3   OH235667   2.554   4.789   5.954  0.2727 -0.3870 -0.2687
 4751TIP3    H135668   2.622   4.844   5.992  0.4129 -0.4634 -0.4057
 4751TIP3    H235669   2.599   4.739   5.886 -0.1558  0.3587 -1.1059
 4752TIP3   OH235670   4.737   5.509   0.596 -0.2991 -0.2634  0.1287
 4752TIP3    H135671   4.646   5.489   0.620 -0.3153 -1.0252 -0.5394
 4752TIP3    H235672   4.783   5.518   0.680 -0.1874 -3.6001  0.4806
 4753TIP3   OH235673   4.630   2.963  12.802  0.0243 -0.1233  0.1233
 4753TIP3    H135674   4.560   2.911  12.763  0.2333 -0.1884 -0.1593
 4753TIP3    H235675   4.710   2.914  12.784  0.3386  0.7725 -0.9884
 4754TIP3   OH235676   1.942   5.177  12.350 -0.4480 -0.0300  0.0467
 4754TIP3    H135677   1.942   5.131  12.266 -1.1151  1.8699 -1.0319
 4754TIP3    H235678   1.900   5.261  12.331  0.1347  0.7527  2.1052
 4755TIP3   OH235679   0.276   0.980   4.219  0.4501  0.1139  0.0685
 4755TIP3    H135680   0.323   0.899   4.202  1.0271 -0.3838  3.6485
 4755TIP3    H235681   0.344   1.044   4.239 -0.2182 -0.1420  3.4450
 4756TIP3   OH235682   3.052   5.304  14.122 -0.2485 -0.3253 -0.1909
 4756TIP3    H135683   3.039   5.302  14.028  1.1422 -1.5290 -0.3701
 4756TIP3    H235684   2.980   5.358  14.155 -0.9840 -0.2433 -1.8876
 4757TIP3   OH235685   1.524   4.573   4.387  0.4397 -0.6103  0.0646
 4757TIP3    H135686   1.592   4.638   4.368  1.7084 -1.4350  1.6231
 4757TIP3    H235687   1.449   4.625   4.416  1.3375  0.1948  0.9864
 4758TIP3   OH235688   5.752   1.165  11.271  0.7295  0.2070  0.2227
 4758TIP3    H135689   5.803   1.166  11.352  1.5798 -0.2131 -0.3000
 4758TIP3    H235690   5.817   1.148  11.202 -0.3231 -1.7995 -0.2893
 4759TIP3   OH235691   6.223   6.478   5.469  0.4903  0.2541  0.7331
 4759TIP3    H135692   6.158   6.545   5.448  0.1839 -0.1226  0.4742
 4759TIP3    H235693   6.212   6.412   5.401  0.2995 -0.4085  1.4046
 4760TIP3   OH235694   2.229   0.297   0.061  0.3561  0.5737 -0.4480
 4760TIP3    H135695   2.274   0.333   0.137  0.0551 -1.8619  0.9014
 4760TIP3    H235696   2.144   0.342   0.060 -0.1270 -0.2787  1.3708
 4761TIP3   OH235697   1.449   3.835  15.504 -0.4718 -0.0371 -0.3579
 4761TIP3    H135698   1.468   3.907  15.445 -2.5890  0.9517  0.1148
 4761TIP3    H235699   1.367   3.797  15.471  0.0922 -1.5991 -0.0244
 4762TIP3   OH235700   6.564   5.344  10.719 -0.1427  0.9023 -0.1422
 4762TIP3    H135701   6.650   5.377  10.693 -0.1672  1.2216  0.1839
 4762TIP3    H235702   6.570   5.249  10.706  0.0891  0.9804 -0.6114
 4763TIP3   OH235703   1.295   2.121   0.950 -0.1891  0.5914  0.5545
 4763TIP3    H135704   1.240   2.119   0.872  1.7581  0.3206 -0.8441
 4763TIP3    H235705   1.347   2.201   0.942  1.3399 -0.3693  0.6238
 4764TIP3   OH235706   6.360   2.291   3.014 -0.1889 -0.5132 -0.3560
 4764TIP3    H135707   6.338   2.375   2.975  1.0857  1.1022  2.2548
 4764TIP3    H235708   6.306   2.287   3.093  1.6695 -0.9193  0.9315
 4765TIP3   OH235709   5.554   5.949  13.223  0.1157  0.7910  0.2986
 4765TIP3    H135710   5.616   6.022  13.233  1.6604 -0.5136  0.3436
 4765TIP3    H235711   5.570   5.916  13.134 -0.9713  0.8393  0.0698
 4766TIP3   OH235712   2.064   5.200  16.112 -0.0331 -0.5268  0.3347
 4766TIP3    H135713   2.144   5.148  16.111 -0.9954 -2.0576  0.9516
 4766TIP3    H235714   2.025   5.183  16.198 -2.5147 -2.1557 -1.0503
 4767TIP3   OH235715   1.044   2.872   5.748 -0.4059  0.2148  0.1398
 4767TIP3    H135716   0.949   2.886   5.752 -0.2968  1.1210 -0.3401
 4767TIP3    H235717   1.078   2.918   5.825 -0.2611  0.7569 -0.2446
 4768TIP3   OH235718   5.791   2.364   4.442 -0.1379 -0.1276 -0.4539
 4768TIP3    H135719   5.874   2.348   4.486 -0.5322  1.0474  0.7375
 4768TIP3    H235720   5.809   2.344   4.350  1.5934  0.5764 -0.2904
 4769TIP3   OH235721   1.997   1.869   1.885 -0.3470  0.2806 -0.1665
 4769TIP3    H135722   1.908   1.897   1.905 -0.7291 -1.8418  1.2655
 4769TIP3    H235723   2.051   1.909   1.953 -0.1772  1.7153 -1.1412
 4770TIP3   OH235724   0.229   4.629  12.108  0.9191  0.2357 -0.2215
 4770TIP3    H135725   0.167   4.608  12.038  0.3003 -0.6439  0.5638
 4770TIP3    H235726   0.177   4.678  12.172  2.0400  3.0839 -1.4227
 4771TIP3   OH235727   3.879   3.816  14.239 -0.3715 -0.0728 -0.0449
 4771TIP3    H135728   3.902   3.766  14.161 -0.8639  2.4987 -1.8950
 4771TIP3    H235729   3.801   3.772  14.274 -0.7265 -0.6577 -1.5584
 4772TIP3   OH235730   3.763   5.431   1.510  0.2341  0.5515  0.0257
 4772TIP3    H135731   3.802   5.402   1.592  1.2612  1.0499 -0.2733
 4772TIP3    H235732   3.795   5.521   1.499 -1.6531  1.2694  0.1747
 4773TIP3   OH235733   1.436   4.100   2.029 -0.4671  0.1209 -0.2433
 4773TIP3    H135734   1.506   4.086   1.966  1.5741  1.1920  1.7042
 4773TIP3    H235735   1.386   4.018   2.029  2.2446 -1.5980  0.0726
 4774TIP3   OH235736   2.458   4.988  13.583 -0.0680 -0.6853 -0.1867
 4774TIP3    H135737   2.436   4.910  13.633  1.6605 -0.0790  1.5601
 4774TIP3    H235738   2.407   5.058  13.622 -1.4820 -0.8693 -1.6397
 4775TIP3   OH235739   4.244   3.146  16.870  0.4245  0.7847  0.3526
 4775TIP3    H135740   4.177   3.146  16.801  1.2421  1.4808 -0.4638
 4775TIP3    H235741   4.289   3.229  16.859  1.1018  0.5335  1.2089
 4776TIP3   OH235742   5.938   5.782   3.567  0.2413 -0.0055 -0.0385
 4776TIP3    H135743   5.909   5.827   3.488  0.9482 -0.4852 -0.5754
 4776TIP3    H235744   5.872   5.804   3.633 -0.6354 -0.0231 -0.9004
 4777TIP3   OH235745   6.302   4.437   0.068  0.6176 -0.5463 -0.0021
 4777TIP3    H135746   6.273   4.405  -0.017  0.1984  0.8461 -0.4016
 4777TIP3    H235747   6.390   4.470   0.052  0.5140 -0.2250  0.0772
 4778TIP3   OH235748   4.432   6.069   0.414 -0.3798 -1.0307 -0.0721
 4778TIP3    H135749   4.385   6.062   0.331  0.5132 -1.0501 -0.5847
 4778TIP3    H235750   4.372   6.114   0.472 -1.1485 -1.3318 -0.6291
 4779TIP3   OH235751   5.314   2.111  11.568  0.4823 -0.2300  0.0623
 4779TIP3    H135752   5.335   2.118  11.474  0.8703 -0.2882  0.1416
 4779TIP3    H235753   5.303   2.017  11.583 -3.2533  0.0278 -0.6936
 4780TIP3   OH235754   3.287   3.366  14.128  0.2436 -0.1090 -0.7725
 4780TIP3    H135755   3.301   3.442  14.071 -1.1862  1.5910  1.0987
 4780TIP3    H235756   3.319   3.393  14.213  0.2429 -1.8191 -0.2128
 4781TIP3   OH235757   3.149   3.735  13.375  0.0508 -0.1808 -0.1423
 4781TIP3    H135758   3.159   3.741  13.470  0.0366  0.7722 -0.1935
 4781TIP3    H235759   3.151   3.826  13.345 -0.8395 -0.4248 -0.9663
 4782TIP3   OH235760   3.801   1.342  16.601  0.1508 -0.3730  0.5266
 4782TIP3    H135761   3.812   1.331  16.507 -2.7444 -0.9200  0.2039
 4782TIP3    H235762   3.723   1.397  16.610  1.1679  0.8206  2.6080
 4783TIP3   OH235763   0.460   5.330   5.169 -0.0485 -0.2668  0.3432
 4783TIP3    H135764   0.435   5.401   5.229 -0.7276  1.0758 -1.4796
 4783TIP3    H235765   0.391   5.264   5.180  0.7028 -0.7586  2.2135
 4784TIP3   OH235766   3.197   2.049  16.504  0.2595  0.1670  0.5824
 4784TIP3    H135767   3.196   2.000  16.587  0.7427 -1.1766 -0.1847
 4784TIP3    H235768   3.166   1.986  16.439 -0.1060  1.2151 -0.2714
 4785TIP3   OH235769   2.428   2.781  15.999 -0.1870  0.6891 -0.3064
 4785TIP3    H135770   2.417   2.807  16.090 -0.5838 -0.5432  0.0150
 4785TIP3    H235771   2.521   2.764  15.990 -0.1316  0.9111 -0.1560
 4786TIP3   OH235772   1.520   1.741   3.972 -0.3972  0.1054 -0.9128
 4786TIP3    H135773   1.464   1.697   3.909 -0.7871  1.1959 -1.3418
 4786TIP3    H235774   1.609   1.712   3.951 -0.7398 -1.2805 -0.5124
 4787TIP3   OH235775   1.686   4.016  13.609  0.0498  0.3190 -0.2446
 4787TIP3    H135776   1.707   4.110  13.610 -2.8355  1.0868 -3.0881
 4787TIP3    H235777   1.731   3.982  13.533 -1.3435  0.0653 -0.9795
 4788TIP3   OH235778   0.809   5.153  15.429 -0.0150 -0.4371 -0.4363
 4788TIP3    H135779   0.854   5.176  15.348  1.6838  3.4197  1.4769
 4788TIP3    H235780   0.730   5.207  15.429  1.2517  1.4942  1.5762
 4789TIP3   OH235781   4.383   2.774   0.481 -0.1435 -0.3414 -0.5859
 4789TIP3    H135782   4.467   2.788   0.438 -0.7783  1.5813 -1.2875
 4789TIP3    H235783   4.339   2.860   0.476 -1.4765 -0.8847  1.1996
 4790TIP3   OH235784   6.601   4.526  15.165  0.5815 -0.0591 -0.3034
 4790TIP3    H135785   6.577   4.460  15.100 -0.9951 -0.4019  0.6072
 4790TIP3    H235786   6.594   4.609  15.118 -0.3249 -0.3201 -0.6267
 4791TIP3   OH235787   3.582   5.399   3.117 -0.1350 -0.2594  0.1455
 4791TIP3    H135788   3.579   5.476   3.174  1.0496 -0.1706  0.1096
 4791TIP3    H235789   3.658   5.350   3.148 -1.1592 -1.6757  0.4959
 4792TIP3   OH235790   2.081   2.252  16.580  0.6600 -0.0203 -0.4939
 4792TIP3    H135791   2.107   2.212  16.497 -1.4089  1.7006 -2.0272
 4792TIP3    H235792   2.059   2.177  16.636 -0.8061 -1.1649 -2.5097
 4793TIP3   OH235793   4.613   6.418   1.224  0.2764 -0.3055  0.2095
 4793TIP3    H135794   4.560   6.355   1.175  1.0279  0.3520 -1.4565
 4793TIP3    H235795   4.634   6.487   1.161  2.8603 -0.4013  0.9329
 4794TIP3   OH235796   5.559   1.999  14.989 -0.4207 -0.1435  0.0273
 4794TIP3    H135797   5.573   2.092  15.004  0.9482 -0.4073  0.3914
 4794TIP3    H235798   5.479   1.995  14.937  0.5776  1.3346 -1.6516
 4795TIP3   OH235799   5.597   0.990  14.028  0.1476  0.0490  0.3084
 4795TIP3    H135800   5.583   1.028  13.941 -0.8004 -0.4602  0.2315
 4795TIP3    H235801   5.652   1.054  14.073  1.1910  0.0102 -0.8760
 4796TIP3   OH235802   1.642   2.903   3.574 -0.4416 -0.4966 -0.1337
 4796TIP3    H135803   1.548   2.899   3.589 -0.0286 -1.7167  2.3378
 4796TIP3    H235804   1.678   2.830   3.624  1.5928 -1.6366 -3.1080
 4797TIP3   OH235805   3.394   1.715  14.834  0.5698  0.1074  0.2583
 4797TIP3    H135806   3.481   1.675  14.839 -0.2068 -1.5260  0.9980
 4797TIP3    H235807   3.344   1.672  14.902 -1.2985 -0.1467 -1.2380
 4798TIP3   OH235808   4.167   0.424   2.309 -0.2305 -0.0661  0.2325
 4798TIP3    H135809   4.201   0.337   2.288  2.1699  0.9176 -0.1520
 4798TIP3    H235810   4.131   0.415   2.397  0.0509 -1.4450  0.2088
 4799TIP3   OH235811   3.753   5.485  12.457 -0.0074  0.2945 -0.7134
 4799TIP3    H135812   3.745   5.572  12.418 -1.9704 -0.4698 -2.0302
 4799TIP3    H235813   3.663   5.457  12.474  0.6024 -1.5019 -0.3240
 4800TIP3   OH235814   2.505   1.363   5.335 -0.1358  0.7834 -0.1792
 4800TIP3    H135815   2.529   1.453   5.356  0.3358  0.4338  0.7778
 4800TIP3    H235816   2.440   1.339   5.401  0.0291  0.2910 -0.1930
 4801TIP3   OH235817   1.322   5.637   6.016  0.5043 -0.4194  0.4954
 4801TIP3    H135818   1.409   5.618   6.053  0.0951 -2.0586  0.6284
 4801TIP3    H235819   1.299   5.558   5.968 -0.9717 -0.0233  0.5505
 4802TIP3   OH235820   4.571   0.321   2.345 -0.6297 -0.3072 -0.3147
 4802TIP3    H135821   4.639   0.278   2.294  0.4712  2.5339 -1.3304
 4802TIP3    H235822   4.494   0.319   2.288 -0.7392 -1.3943 -0.1343
 4803TIP3   OH235823   3.447   6.347   0.048 -0.1984 -0.3806  0.2563
 4803TIP3    H135824   3.392   6.302   0.111  0.0206  0.5725  1.1422
 4803TIP3    H235825   3.533   6.352   0.090 -0.3422  1.2651  0.3725
 4804TIP3   OH235826   3.290   2.047  15.700  0.7195 -0.0426 -0.4513
 4804TIP3    H135827   3.288   2.122  15.641  0.2077 -0.3782 -0.8682
 4804TIP3    H235828   3.229   2.070  15.771  1.7694  0.6034  0.2550
 4805TIP3   OH235829   2.118   6.325  13.238  0.8501  0.2219  0.1379
 4805TIP3    H135830   2.171   6.282  13.170  1.0178  2.3196 -1.1200
 4805TIP3    H235831   2.146   6.417  13.234 -3.0256  1.4406 -0.6943
 4806TIP3   OH235832   2.824   6.045   2.799  0.0220 -0.0609  0.6297
 4806TIP3    H135833   2.810   5.975   2.736  1.5107 -1.2577  1.5693
 4806TIP3    H235834   2.777   6.121   2.764 -1.3913 -1.4595 -0.5327
 4807TIP3   OH235835   0.975   0.245   0.274 -0.2406 -0.7133  0.0080
 4807TIP3    H135836   1.045   0.237   0.339  1.0299  0.5514 -1.1650
 4807TIP3    H235837   0.906   0.187   0.305 -0.2360  0.9203  3.2056
 4808TIP3   OH235838   3.232   2.263   2.483  0.4961  0.1174  0.8745
 4808TIP3    H135839   3.269   2.304   2.561 -0.1469  0.9998  0.7148
 4808TIP3    H235840   3.145   2.235   2.510  0.1837  0.6358  0.3993
 4809TIP3   OH235841   2.237   6.604  14.094  0.5898 -0.0460 -0.2331
 4809TIP3    H135842   2.220   6.621  14.187 -2.0230 -0.8621 -0.5097
 4809TIP3    H235843   2.225   6.690  14.052  1.6062  0.2889  0.1493
 4810TIP3   OH235844   0.065   5.025  16.674 -0.5735  0.3618  0.0705
 4810TIP3    H135845   0.074   5.053  16.583  1.3969  1.2955  0.5212
 4810TIP3    H235846   0.115   4.944  16.679 -1.1440  0.0155  0.1915
 4811TIP3   OH235847   4.877   2.658   2.560 -0.1588 -0.2739  0.3726
 4811TIP3    H135848   4.925   2.738   2.580 -0.0377  0.2289 -1.8638
 4811TIP3    H235849   4.912   2.594   2.623 -2.1259  2.0121  3.9770
 4812TIP3   OH235850   2.914   4.318   5.770  0.4788 -0.4012  0.3877
 4812TIP3    H135851   3.004   4.325   5.803  0.9768  1.0107 -1.1542
 4812TIP3    H235852   2.863   4.374   5.828  1.0733  0.8395 -0.2533
 4813TIP3   OH235853   2.092   5.170  12.663  0.0111 -0.1222  0.3111
 4813TIP3    H135854   2.031   5.243  12.654  1.8315  1.3006 -0.7878
 4813TIP3    H235855   2.090   5.126  12.578  0.8859  0.2321  0.1048
 4814TIP3   OH235856   0.945   5.955  16.063 -0.2289  1.0370  0.2497
 4814TIP3    H135857   0.994   5.873  16.065 -0.5480  0.8539  0.5527
 4814TIP3    H235858   0.939   5.982  16.155 -2.5598 -0.0567  0.4494
 4815TIP3   OH235859   4.790   4.190   3.072  0.1231 -0.1136 -0.4183
 4815TIP3    H135860   4.854   4.260   3.082  0.4085 -0.1762 -1.7019
 4815TIP3    H235861   4.811   4.150   2.987 -1.6684 -0.0635 -0.9148
 4816TIP3   OH235862   6.692   3.902   2.678 -0.3701 -0.3060  0.0495
 4816TIP3    H135863   6.631   3.899   2.604  0.3362  0.1290 -0.5539
 4816TIP3    H235864   6.639   3.874   2.753 -0.5682 -2.8085 -0.9599
 4817TIP3   OH235865   2.421   6.671  13.413 -0.2871  0.4301  0.0275
 4817TIP3    H135866   2.463   6.665  13.328  1.4894  0.6610  0.8675
 4817TIP3    H235867   2.437   6.586  13.454 -0.8386  0.4376  0.2667
 4818TIP3   OH235868   4.365   2.235  13.620  0.4882  0.5053  0.2369
 4818TIP3    H135869   4.301   2.173  13.587  0.4847 -0.2739  1.6735
 4818TIP3    H235870   4.446   2.184  13.630  0.6580  0.8699  0.7906
 4819TIP3   OH235871   2.820   6.046  16.618 -0.2688  0.2137 -0.3700
 4819TIP3    H135872   2.904   6.027  16.576  0.5588  1.8735  0.4550
 4819TIP3    H235873   2.756   6.043  16.547  0.5865 -0.4345 -1.1211
 4820TIP3   OH235874   4.080   6.686   4.364  0.3505  0.2982 -0.8436
 4820TIP3    H135875   4.086   6.772   4.321 -1.1464  1.0455  0.3869
 4820TIP3    H235876   3.986   6.671   4.374  0.6264 -1.1323 -0.3452
 4821TIP3   OH235877   4.458   5.501   5.764 -0.4235  0.2661  0.0937
 4821TIP3    H135878   4.471   5.521   5.671 -0.5791  2.7435  0.5733
 4821TIP3    H235879   4.366   5.475   5.770  0.0543 -1.6227 -0.7254
 4822TIP3   OH235880   5.370   4.132  16.240  0.2092 -0.1492  0.4463
 4822TIP3    H135881   5.364   4.037  16.232  1.0299 -0.3233  1.6649
 4822TIP3    H235882   5.324   4.166  16.163  1.0249 -1.5367 -0.6760
 4823TIP3   OH235883   2.928   3.722   1.703 -0.3734  0.5492  0.0194
 4823TIP3    H135884   2.894   3.750   1.788  0.6645 -0.4280  0.7699
 4823TIP3    H235885   2.861   3.664   1.669  0.7197 -1.8017  1.7375
 4824TIP3   OH235886   0.063   3.698   2.569  0.3701 -0.0760 -0.2394
 4824TIP3    H135887   0.022   3.664   2.490 -0.9373 -0.1040  0.4379
 4824TIP3    H235888   0.005   3.769   2.597  0.2569 -0.7703  1.2847
 4825TIP3   OH235889   0.676   6.255   4.086 -0.2936 -0.3483 -0.5249
 4825TIP3    H135890   0.608   6.321   4.102 -0.6804 -1.1615  1.3014
 4825TIP3    H235891   0.758   6.302   4.094 -0.5340 -0.2801  1.9067
 4826TIP3   OH235892   1.463   5.102   4.951  0.4264 -0.0063 -0.2195
 4826TIP3    H135893   1.395   5.035   4.954  1.1799 -0.9084 -2.0254
 4826TIP3    H235894   1.532   5.070   5.009 -0.7201  0.9635  1.6996
 4827TIP3   OH235895   0.792   6.345  17.195  0.1004 -0.1258 -0.0446
 4827TIP3    H135896   0.770   6.266  17.245  3.2536 -1.9370 -1.3554
 4827TIP3    H235897   0.885   6.359  17.213  0.4882  1.1101 -2.7468
 4828TIP3   OH235898   5.671   4.824  16.786  0.5564 -0.0999 -0.2192
 4828TIP3    H135899   5.714   4.739  16.799  0.7026 -0.0799 -0.5836
 4828TIP3    H235900   5.727   4.871  16.725 -0.6859 -0.6027 -1.7997
 4829TIP3   OH235901   6.195   2.406   4.020 -0.8696  0.4139  0.1412
 4829TIP3    H135902   6.264   2.404   4.087 -2.3615  0.0046  1.7218
 4829TIP3    H235903   6.175   2.313   4.004 -0.8755  0.5250 -0.5005
 4830TIP3   OH235904   0.691   2.031   0.626 -0.6367 -0.4398 -0.0337
 4830TIP3    H135905   0.720   1.959   0.571  2.0629 -1.5363  2.6675
 4830TIP3    H235906   0.768   2.087   0.635 -2.1331  1.7552 -0.4661
 4831TIP3   OH235907   5.139   0.958  12.792 -1.0367  0.9225  0.0448
 4831TIP3    H135908   5.117   1.006  12.712 -0.1455 -0.8068 -1.2666
 4831TIP3    H235909   5.230   0.982  12.810 -1.2814  1.4217  0.6314
 4832TIP3   OH235910   4.576   2.221   1.142 -0.3611  0.2721 -0.0175
 4832TIP3    H135911   4.661   2.180   1.158 -0.4895  0.2529  0.6215
 4832TIP3    H235912   4.598   2.303   1.098  0.0573  0.7332  1.0297
 4833TIP3   OH235913   3.141   1.670  12.278 -0.2928  0.0673  0.1279
 4833TIP3    H135914   3.067   1.712  12.234 -0.1635 -0.6922 -0.8417
 4833TIP3    H235915   3.127   1.688  12.371 -0.0450  2.5495 -0.2843
 4834TIP3   OH235916   1.277   1.989   2.845  0.6497  0.2244  0.2655
 4834TIP3    H135917   1.252   2.005   2.936 -0.2436 -1.3025  0.3068
 4834TIP3    H235918   1.339   1.917   2.849  0.9961  0.4863 -0.2981
 4835TIP3   OH235919   5.950   3.974   3.709 -0.2464  0.5382 -0.1270
 4835TIP3    H135920   5.953   3.975   3.805  1.2851  1.9143 -0.1621
 4835TIP3    H235921   5.958   3.881   3.686  1.7886  0.3741  1.0543
 4836TIP3   OH235922   4.586   6.624  14.666  0.3700  0.5268  0.1453
 4836TIP3    H135923   4.573   6.646  14.758 -1.1230  1.3862 -0.2428
 4836TIP3    H235924   4.498   6.600  14.634  1.5343 -3.8490 -0.0558
 4837TIP3   OH235925   6.771   5.426  12.794 -0.0260 -0.4834  0.1434
 4837TIP3    H135926   6.798   5.354  12.852  1.1468 -0.3238 -0.1750
 4837TIP3    H235927   6.745   5.496  12.853  1.5848 -0.1665  0.5200
 4838TIP3   OH235928   3.557   1.395   2.509  0.1287 -0.3090  0.3559
 4838TIP3    H135929   3.554   1.441   2.426 -1.3519 -1.6009 -0.3384
 4838TIP3    H235930   3.524   1.458   2.573  0.6879  0.4803 -0.1210
 4839TIP3   OH235931   4.356   1.319   4.258 -0.0983  0.1481  0.2827
 4839TIP3    H135932   4.341   1.277   4.343  0.4397 -2.1883 -0.7389
 4839TIP3    H235933   4.268   1.332   4.222 -0.2546 -0.6976  0.3405
 4840TIP3   OH235934   2.822   6.294   2.094 -0.1868 -0.4360 -0.3804
 4840TIP3    H135935   2.898   6.340   2.057 -1.8088  0.6001 -2.5862
 4840TIP3    H235936   2.805   6.338   2.177  1.6389 -0.7146  0.1587
 4841TIP3   OH235937   4.133   3.292  11.269 -0.6719  0.4098 -0.1418
 4841TIP3    H135938   4.147   3.227  11.200 -1.0915  0.7796 -0.5817
 4841TIP3    H235939   4.222   3.322  11.292 -0.5185  0.1401 -0.3835
 4842TIP3   OH235940   4.979   1.570  13.259  0.2790 -0.0358 -0.7426
 4842TIP3    H135941   4.983   1.475  13.274  1.6569 -0.1053 -1.4792
 4842TIP3    H235942   5.021   1.608  13.337 -2.3049  0.0821  0.6209
 4843TIP3   OH235943   5.970   0.934  11.698  0.3773  0.0402  0.0020
 4843TIP3    H135944   5.974   1.021  11.738  0.9236  0.1783 -0.3448
 4843TIP3    H235945   6.060   0.902  11.700  0.0809 -0.7578  0.6424
 4844TIP3   OH235946   2.502   3.214  16.260 -0.2804  0.5841 -0.0663
 4844TIP3    H135947   2.454   3.252  16.186  0.4099  3.4653  0.8957
 4844TIP3    H235948   2.450   3.237  16.337  0.4845  0.0969  0.6045
 4845TIP3   OH235949   2.349   5.707  14.526 -0.1725  0.0014  0.6663
 4845TIP3    H135950   2.378   5.652  14.453  0.3925  0.8189  0.2633
 4845TIP3    H235951   2.429   5.733  14.571 -0.4904 -0.1416  1.3175
 4846TIP3   OH235952   2.323   1.716  12.873  0.0672  0.0391  0.1859
 4846TIP3    H135953   2.375   1.787  12.836  1.0871 -0.6763  0.2193
 4846TIP3    H235954   2.366   1.636  12.843 -0.3510 -0.5575  1.1302
 4847TIP3   OH235955   3.146   3.898  16.428 -0.0247 -0.1514  0.2634
 4847TIP3    H135956   3.204   3.963  16.389  0.4838 -0.7707 -0.0338
 4847TIP3    H235957   3.205   3.828  16.457 -0.5265 -0.3164  0.9090
 4848TIP3   OH235958   0.392   3.786   2.475 -0.3760 -0.1088 -0.1527
 4848TIP3    H135959   0.378   3.708   2.530  1.5446  0.6359  1.4477
 4848TIP3    H235960   0.462   3.760   2.415 -2.0477 -0.7117 -1.8805
 4849TIP3   OH235961   0.408   5.499  16.953 -0.4942  0.5012 -0.0918
 4849TIP3    H135962   0.494   5.464  16.976  0.0160 -0.4767 -3.2509
 4849TIP3    H235963   0.345   5.445  17.001  0.6056  0.8879  1.8289
 4850TIP3   OH235964   4.014   2.448  17.032  0.3143  0.1221  0.4302
 4850TIP3    H135965   4.089   2.400  17.068  0.2548 -1.2366 -1.1900
 4850TIP3    H235966   4.044   2.475  16.945 -1.3453 -1.1496 -0.5721
 4851TIP3   OH235967   5.168   0.236   5.294 -0.7101 -0.1629  0.0900
 4851TIP3    H135968   5.169   0.240   5.390  0.8814  0.4418  0.0700
 4851TIP3    H235969   5.257   0.209   5.271 -1.0648 -0.2251 -1.2203
 4852TIP3   OH235970   0.028   5.099   5.114  0.6007  0.1616  0.4058
 4852TIP3    H135971   0.090   5.027   5.102 -0.3644 -0.7529  0.8740
 4852TIP3    H235972  -0.026   5.072   5.188 -0.2701  1.0213  0.0874
 4853TIP3   OH235973   2.127   3.003   3.789  0.2675  0.6438  0.2438
 4853TIP3    H135974   2.065   2.934   3.763  0.4531  0.1096  1.2137
 4853TIP3    H235975   2.157   3.040   3.706 -1.8839  1.3896 -0.2263
 4854TIP3   OH235976   0.605   3.400  12.140  0.0890 -0.3961 -0.5331
 4854TIP3    H135977   0.549   3.323  12.130 -1.4724  0.3194  2.1950
 4854TIP3    H235978   0.546   3.468  12.172  2.4317  0.4693  2.1606
 4855TIP3   OH235979   6.487   3.862  12.978  0.2975 -0.2995 -0.3108
 4855TIP3    H135980   6.440   3.852  13.061 -2.1348  0.0031 -1.5966
 4855TIP3    H235981   6.490   3.773  12.942  1.9782 -0.5460  0.4078
 4856TIP3   OH235982   5.202   0.040  15.992  0.1948 -0.2828  0.1589
 4856TIP3    H135983   5.238   0.123  15.960 -1.0405  0.1128 -0.2791
 4856TIP3    H235984   5.115   0.064  16.026 -1.1227 -1.7697 -2.0535
 4857TIP3   OH235985   1.349   5.175   5.294 -0.6673 -0.1130  0.0124
 4857TIP3    H135986   1.400   5.109   5.342 -2.3375 -0.7203  0.9728
 4857TIP3    H235987   1.383   5.259   5.325 -0.2792 -0.5114  0.6797
 4858TIP3   OH235988   4.977   2.974  16.540 -0.5013 -0.2395 -0.1188
 4858TIP3    H135989   4.939   2.907  16.483  0.2166 -1.2755  0.5726
 4858TIP3    H235990   5.072   2.963  16.529 -0.3756  0.4905  0.2094
 4859TIP3   OH235991   2.876   2.259  15.269 -0.0376  0.3330 -0.7079
 4859TIP3    H135992   2.797   2.296  15.230  0.3839  3.0756  0.9247
 4859TIP3    H235993   2.845   2.211  15.346 -0.1363  1.3469 -0.1088
 4860TIP3   OH235994   0.169   0.455  13.315  0.2815 -0.0430 -0.3359
 4860TIP3    H135995   0.154   0.377  13.369 -0.7193  0.1314 -0.3511
 4860TIP3    H235996   0.130   0.527  13.366  0.3046  0.2915 -0.7875
 4861TIP3   OH235997   3.520   3.646   1.171  0.2551 -0.3625  0.1029
 4861TIP3    H135998   3.523   3.702   1.093  3.7797  1.4272  1.4059
 4861TIP3    H235999   3.460   3.691   1.230  0.6411  0.3924 -0.0687
 4862TIP3   OH236000   1.418   3.476   2.960 -0.1247 -0.0105  0.2104
 4862TIP3    H136001   1.501   3.488   2.914 -1.1094  1.4917 -1.2468
 4862TIP3    H236002   1.430   3.522   3.043  0.6117 -0.0668  0.1423
 4863TIP3   OH236003   1.512   3.768  11.433 -0.2707  0.1974  0.3675
 4863TIP3    H136004   1.523   3.675  11.413  2.3988  0.5513 -0.0383
 4863TIP3    H236005   1.581   3.788  11.496 -1.0725  1.8171  0.7683
 4864TIP3   OH236006   0.440   4.857   2.644  0.5132  0.2070 -0.4845
 4864TIP3    H136007   0.351   4.868   2.678  1.8589  2.4483  2.6472
 4864TIP3    H236008   0.447   4.921   2.574 -0.4558 -0.2562 -1.0085
 4865TIP3   OH236009   3.938   2.248  13.216 -0.2563 -0.3273 -0.7139
 4865TIP3    H136010   3.991   2.313  13.264  0.9143  0.2135 -2.6628
 4865TIP3    H236011   3.859   2.238  13.268  0.1548  1.6624  0.3449
 4866TIP3   OH236012   5.643   2.541  14.684  0.3750 -0.0429  0.7132
 4866TIP3    H136013   5.669   2.454  14.716  1.2591  0.0589  0.3054
 4866TIP3    H236014   5.647   2.597  14.762  0.8339 -0.1545  0.7728
 4867TIP3   OH236015   3.988   1.622   2.204 -0.0738 -0.1761 -0.0056
 4867TIP3    H136016   4.005   1.558   2.272 -0.6326  0.6964  0.9636
 4867TIP3    H236017   4.045   1.696   2.226  0.1220 -0.0886 -0.7729
 4868TIP3   OH236018   4.382   1.419   0.651 -0.2039  0.7249  0.3293
 4868TIP3    H136019   4.422   1.499   0.617  0.6320  1.3298  2.6065
 4868TIP3    H236020   4.291   1.443   0.668 -0.8519  0.1759 -2.1704
 4869TIP3   OH236021   2.113   5.301   5.596 -0.0387 -0.3706  0.1672
 4869TIP3    H136022   2.086   5.266   5.511  2.5283 -1.5775 -0.1762
 4869TIP3    H236023   2.081   5.238   5.660  1.1478 -1.3298 -0.1737
 4870TIP3   OH236024   5.763   0.703   1.705  0.0410 -0.1295  0.4246
 4870TIP3    H136025   5.840   0.662   1.666  1.6038  1.5478  1.6814
 4870TIP3    H236026   5.730   0.762   1.637 -0.6467 -1.4677 -0.4185
 4871TIP3   OH236027   5.695   3.748   3.700 -0.3861  0.2307  0.2296
 4871TIP3    H136028   5.719   3.834   3.736 -0.6614  1.0626 -1.5091
 4871TIP3    H236029   5.778   3.711   3.669 -0.3367  0.0920  0.5321
 4872TIP3   OH236030   3.376   3.443  12.026 -0.4517  0.3451  0.0953
 4872TIP3    H136031   3.351   3.422  11.936 -0.0518 -0.3270  0.1367
 4872TIP3    H236032   3.448   3.505  12.017 -0.1298 -0.0479 -0.0562
 4873TIP3   OH236033   5.907   5.072   6.545 -0.0938 -0.2840  0.2032
 4873TIP3    H136034   5.845   5.027   6.488 -1.2684 -0.0955  1.3058
 4873TIP3    H236035   5.927   5.008   6.614 -2.4998  1.1130  2.3131
 4874TIP3   OH236036   0.353   2.866  13.249 -0.7853  0.1182  0.1418
 4874TIP3    H136037   0.344   2.820  13.166 -0.6986 -0.4501  0.4447
 4874TIP3    H236038   0.268   2.856  13.291 -0.5735 -0.2908  0.4756
 4875TIP3   OH236039   1.267   6.161   0.323 -0.5736 -0.4636 -0.6721
 4875TIP3    H136040   1.199   6.225   0.345  2.4881  2.6055  0.3755
 4875TIP3    H236041   1.283   6.114   0.405  0.4778  0.8078 -0.1078
 4876TIP3   OH236042   3.973   1.320   0.203 -0.3811  0.1697 -0.3889
 4876TIP3    H136043   4.013   1.263   0.268  0.1915 -0.0408 -0.9158
 4876TIP3    H236044   3.921   1.383   0.254  0.1290  0.0643  0.2688
 4877TIP3   OH236045   5.662   2.440  11.293 -0.0991  0.1383 -0.2833
 4877TIP3    H136046   5.609   2.518  11.274 -0.9663 -0.5923 -0.9057
 4877TIP3    H236047   5.598   2.374  11.321  0.8848  0.3782  2.7063
 4878TIP3   OH236048   5.319   6.686   2.557  0.3098  0.0927  0.8285
 4878TIP3    H136049   5.344   6.764   2.606 -0.4384  1.2766 -0.5999
 4878TIP3    H236050   5.324   6.713   2.465  0.1842 -1.5949  0.3013
 4879TIP3   OH236051   0.290   3.496   5.251 -0.7833  0.2129 -0.1096
 4879TIP3    H136052   0.328   3.474   5.165 -0.3584 -0.0074  0.1339
 4879TIP3    H236053   0.210   3.444   5.255 -1.9072  1.8126 -1.2568
 4880TIP3   OH236054   2.375   5.211  16.113  0.1002 -0.3487  0.1815
 4880TIP3    H136055   2.470   5.221  16.119  0.2644 -2.3599  1.5580
 4880TIP3    H236056   2.340   5.298  16.133  1.6643  0.6841 -1.5002
 4881TIP3   OH236057   2.668   5.366  15.836  0.2841  0.2438 -0.6495
 4881TIP3    H136058   2.597   5.386  15.896  1.0453 -0.3260  0.4578
 4881TIP3    H236059   2.732   5.318  15.889  1.3840  0.5341 -1.6806
 4882TIP3   OH236060   3.131   5.434   5.623 -1.2237  0.0200 -0.4134
 4882TIP3    H136061   3.169   5.355   5.662 -0.8166 -0.4675 -1.7614
 4882TIP3    H236062   3.170   5.506   5.673  0.3046 -0.5342 -0.7674
 4883TIP3   OH236063   4.351   4.910   1.527 -0.7353 -0.7662 -0.1287
 4883TIP3    H136064   4.381   4.832   1.575 -0.5367 -1.0916 -0.7730
 4883TIP3    H236065   4.269   4.883   1.487  0.5635 -1.4722 -2.4144
 4884TIP3   OH236066   6.700   3.594   0.266 -0.4261  0.0197 -0.2620
 4884TIP3    H136067   6.696   3.499   0.272 -1.8888  0.1048  0.2749
 4884TIP3    H236068   6.725   3.623   0.354 -1.7137  0.2034  0.0636
 4885TIP3   OH236069   4.075   0.484  11.676  0.1853  0.2611  0.3567
 4885TIP3    H136070   4.117   0.511  11.594  3.1233 -0.2742  1.6034
 4885TIP3    H236071   4.007   0.423  11.649  1.0776  0.1202 -1.6878
 4886TIP3   OH236072   4.107   6.541   2.341  0.2784 -0.3047  0.8889
 4886TIP3    H136073   4.049   6.466   2.324  0.1151 -0.4549  2.0797
 4886TIP3    H236074   4.152   6.555   2.258 -0.6626 -0.8832  0.2611
 4887TIP3   OH236075   4.858   0.999   1.559  0.4500  0.1606  0.6428
 4887TIP3    H136076   4.775   0.972   1.600  0.0341 -1.2753 -1.0814
 4887TIP3    H236077   4.888   0.921   1.513  1.6777  1.3100 -0.5374
 4888TIP3   OH236078   1.286   5.943  12.578 -0.0818  0.6791 -0.4160
 4888TIP3    H136079   1.222   6.015  12.584  0.6655  1.3906 -0.8805
 4888TIP3    H236080   1.284   5.902  12.664 -0.8023  1.0167 -0.2661
 4889TIP3   OH236081   5.178   5.060  13.895 -0.0260  0.1687  0.0388
 4889TIP3    H136082   5.150   5.111  13.971  0.0672  0.5628 -0.1930
 4889TIP3    H236083   5.113   5.079  13.828 -2.1334 -2.9156  1.1003
 4890TIP3   OH236084   5.236   3.870   0.693 -0.6059 -0.2629  0.5319
 4890TIP3    H136085   5.211   3.779   0.710  0.4614 -0.5376  0.6435
 4890TIP3    H236086   5.247   3.909   0.779 -3.2448  0.6083  0.5282
 4891TIP3   OH236087   3.442   2.401  12.005  0.0541 -0.2223  0.5441
 4891TIP3    H136088   3.380   2.406  12.077  0.8822 -2.5940  1.4815
 4891TIP3    H236089   3.523   2.369  12.045  0.4286 -1.9092 -1.4841
 4892TIP3   OH236090   5.442   4.004  14.769 -0.2364  0.6138  0.5010
 4892TIP3    H136091   5.511   4.043  14.716 -0.2172  0.0269  0.0970
 4892TIP3    H236092   5.405   3.935  14.714 -1.8177  1.5824  0.3100
 4893TIP3   OH236093   6.511   3.053   1.445  0.2754  0.5576 -0.3883
 4893TIP3    H136094   6.598   3.091   1.433  0.3738  0.9301  1.3414
 4893TIP3    H236095   6.527   2.960   1.461  0.4509  0.8334  1.0876
 4894TIP3   OH236096   0.236   2.440  16.942 -0.3512  0.6492  0.0362
 4894TIP3    H136097   0.259   2.434  16.849  0.6421 -0.7974  0.3544
 4894TIP3    H236098   0.315   2.475  16.983 -0.9411  1.7043  0.2901
 4895TIP3   OH236099   6.513   3.024  11.066  0.0428 -0.0246  0.0584
 4895TIP3    H136100   6.592   2.998  11.018  1.5425  2.9864  0.7428
 4895TIP3    H236101   6.451   3.051  10.999  0.6960  0.4296 -0.3670
 4896TIP3   OH236102   3.006   5.063  15.745 -0.5274  0.6553  0.0269
 4896TIP3    H136103   3.025   5.157  15.747  1.7647  0.1932  1.7577
 4896TIP3    H236104   2.965   5.049  15.659  0.7285  2.9326 -0.9968
 4897TIP3   OH236105   2.136   1.641   4.194 -0.4632 -0.0675 -0.1379
 4897TIP3    H136106   2.161   1.706   4.128 -0.3215  1.5392  1.4545
 4897TIP3    H236107   2.207   1.645   4.259 -0.5608 -1.6661  0.0761
 4898TIP3   OH236108   6.004   3.870  14.936  0.1494  0.4301  0.1927
 4898TIP3    H136109   5.933   3.808  14.919 -0.0845  0.9444 -0.7388
 4898TIP3    H236110   6.047   3.882  14.851  1.6587 -0.2383  0.8381
 4899TIP3   OH236111   5.003   0.416   4.989 -0.2720 -0.1205 -0.4028
 4899TIP3    H136112   4.926   0.369   4.957 -0.4174 -0.2182  0.0952
 4899TIP3    H236113   4.986   0.429   5.082  0.5037 -0.4957 -0.2158
 4900TIP3   OH236114   6.547   1.885  13.908 -0.0641 -0.2049 -0.2302
 4900TIP3    H136115   6.561   1.975  13.936 -0.8605 -0.5614  1.3464
 4900TIP3    H236116   6.474   1.890  13.846  0.2908  0.2910 -0.6165
 4901TIP3   OH236117   2.690   4.338  11.403 -0.0360 -0.2678 -0.0870
 4901TIP3    H136118   2.777   4.362  11.371  0.0355 -0.5372 -0.0959
 4901TIP3    H236119   2.646   4.300  11.327 -0.1674 -0.1201 -0.0854
 4902TIP3   OH236120   4.489   3.255  16.614 -0.0309 -0.0463  0.3503
 4902TIP3    H136121   4.465   3.305  16.692 -1.2473 -0.9888  0.5924
 4902TIP3    H236122   4.572   3.213  16.637 -0.7463 -0.9055  1.4123
 4903TIP3   OH236123   1.344   3.056   4.031 -0.1338 -0.1491  0.4635
 4903TIP3    H136124   1.345   3.089   3.941 -0.1441 -0.2482  0.4262
 4903TIP3    H236125   1.413   2.989   4.032 -0.7859 -0.8289  0.2666
 4904TIP3   OH236126   3.741   5.229   4.148 -0.0050  0.1435 -0.1205
 4904TIP3    H136127   3.832   5.220   4.122 -0.4622 -0.7442 -1.4877
 4904TIP3    H236128   3.691   5.201   4.071 -1.4175 -1.6251  1.3939
 4905TIP3   OH236129   2.352   4.929  12.332 -0.3405 -0.4572 -0.4380
 4905TIP3    H136130   2.264   4.952  12.362  0.7780  0.7686  1.9962
 4905TIP3    H236131   2.383   4.864  12.395  0.4629 -1.0316 -1.3922
 4906TIP3   OH236132   5.131   4.979   1.952  0.0776 -0.3846 -0.2469
 4906TIP3    H136133   5.108   4.909   2.013  0.7072  0.8739  1.4745
 4906TIP3    H236134   5.050   5.029   1.941  0.1291 -0.2219  0.0976
 4907TIP3   OH236135   4.158   0.118   0.992 -0.6591 -0.0504 -0.4540
 4907TIP3    H136136   4.167   0.025   1.008 -0.9999 -0.0825 -0.4395
 4907TIP3    H236137   4.209   0.160   1.062  0.5785 -0.2430 -1.2395
 4908TIP3   OH236138   3.765   0.968  11.590  0.1122  0.1171 -0.0262
 4908TIP3    H136139   3.743   0.903  11.656  0.0639  1.3657  1.2105
 4908TIP3    H236140   3.842   0.933  11.546  0.4366 -0.4856  1.0159
 4909TIP3   OH236141   0.223   4.115  14.724  0.3398  0.3127 -0.1628
 4909TIP3    H136142   0.209   4.172  14.648 -0.5796 -0.6074 -0.7024
 4909TIP3    H236143   0.310   4.077  14.710  0.1140  0.0408 -0.8335
 4910TIP3   OH236144   2.777   0.034   2.655 -0.1412 -0.4292  0.2512
 4910TIP3    H136145   2.872   0.025   2.654 -0.1767 -0.9520  0.9298
 4910TIP3    H236146   2.745  -0.050   2.689 -0.7356  0.4088  1.8379
 4911TIP3   OH236147   1.676   2.518   3.058 -0.1282 -0.3165  0.3369
 4911TIP3    H136148   1.623   2.443   3.033  0.6422 -0.7748  0.0692
 4911TIP3    H236149   1.759   2.481   3.085  0.9304  0.5634 -1.6099
 4912TIP3   OH236150   0.283   3.300  13.816 -1.1540  0.1797  0.4393
 4912TIP3    H136151   0.325   3.225  13.774 -2.2536 -0.1154 -0.1461
 4912TIP3    H236152   0.354   3.345  13.862 -0.1157 -0.0639 -0.9099
 4913TIP3   OH236153   6.347   2.670  16.451  0.5171 -0.5149  0.1002
 4913TIP3    H136154   6.403   2.747  16.446  0.1209 -0.0909  1.7218
 4913TIP3    H236155   6.319   2.654  16.361  2.9380 -0.5261 -0.6637
 4914TIP3   OH236156   2.824   0.754   5.823  0.5101  0.0091 -0.0007
 4914TIP3    H136157   2.874   0.686   5.867  1.0621  1.2953  1.4150
 4914TIP3    H236158   2.828   0.731   5.731  0.1028 -2.2455  0.5114
 4915TIP3   OH236159   6.045   1.311  10.549 -0.2861  0.5029  0.6559
 4915TIP3    H136160   5.970   1.251  10.546 -0.4346  0.5959  2.0839
 4915TIP3    H236161   6.013   1.391  10.506 -1.1206  0.6553  1.5395
 4916TIP3   OH236162   2.853   4.693   2.308  0.3884 -0.0239 -0.1797
 4916TIP3    H136163   2.832   4.700   2.215 -0.1583  0.2672 -0.0343
 4916TIP3    H236164   2.781   4.644   2.346  0.7100 -0.3169  0.0566
 4917TIP3   OH236165   1.245   5.437   2.920  0.5335  0.1149  0.0580
 4917TIP3    H136166   1.182   5.487   2.868  0.6888 -0.6426 -0.8632
 4917TIP3    H236167   1.220   5.455   3.011  0.1076  1.2449 -0.2695
 4918TIP3   OH236168   0.961   4.693  12.836  0.1045 -0.1804 -0.1800
 4918TIP3    H136169   0.987   4.648  12.756  1.9653 -0.0818  0.3556
 4918TIP3    H236170   0.976   4.786  12.817  0.1372 -0.1218  0.1342
 4919TIP3   OH236171   5.334   0.336  15.021 -0.3344 -0.1057  0.0908
 4919TIP3    H136172   5.323   0.393  15.097 -2.2956  0.4061 -0.5474
 4919TIP3    H236173   5.422   0.301  15.030  0.1504  1.4353  1.5806
 4920TIP3   OH236174   5.598   5.679   5.939 -0.0785 -0.0442 -0.7499
 4920TIP3    H136175   5.693   5.681   5.944 -0.0730 -2.4093  0.8484
 4920TIP3    H236176   5.569   5.722   6.020 -0.3113 -2.1604  0.3249
 4921TIP3   OH236177   6.159   4.889   6.357 -0.1676  0.2181 -0.0058
 4921TIP3    H136178   6.243   4.844   6.356 -0.3547 -0.1277 -0.4648
 4921TIP3    H236179   6.134   4.891   6.449  1.5644  2.6352  0.4452
 4922TIP3   OH236180   3.747   5.311   2.433  0.1533  0.9179 -0.5286
 4922TIP3    H136181   3.827   5.308   2.485 -0.3842 -1.4942  0.2117
 4922TIP3    H236182   3.689   5.371   2.482 -0.1611 -0.9223  1.4246
 4923TIP3   OH236183   6.460   2.085  16.171  0.1323  0.0550 -0.0773
 4923TIP3    H136184   6.490   2.154  16.111  1.1933 -1.0267 -0.8021
 4923TIP3    H236185   6.369   2.068  16.145  0.6584 -0.5636 -1.5250
 4924TIP3   OH236186   2.257   5.513  16.426  0.3491  0.6523 -0.0817
 4924TIP3    H136187   2.168   5.495  16.458  0.3870 -0.7095 -0.7137
 4924TIP3    H236188   2.265   5.609  16.431 -1.6323  0.9127 -1.2936
 4925TIP3   OH236189   4.677   6.324  13.788 -0.0433  0.1902 -0.4081
 4925TIP3    H136190   4.772   6.332  13.782  0.1724  0.4355  2.7064
 4925TIP3    H236191   4.647   6.412  13.808 -0.6874 -0.3479  1.0384
 4926TIP3   OH236192   5.061   5.690   5.343 -0.3970 -0.2785 -0.3046
 4926TIP3    H136193   5.141   5.663   5.388  0.0665 -1.2473 -1.6452
 4926TIP3    H236194   5.082   5.681   5.250 -1.8857 -0.0183 -0.6859
 4927TIP3   OH236195   2.444   5.970   1.127 -0.2796  0.0214  0.1671
 4927TIP3    H136196   2.539   5.983   1.120  0.0161 -2.1330 -0.3262
 4927TIP3    H236197   2.420   5.930   1.044 -1.5611  0.1739  0.4616
 4928TIP3   OH236198   3.643   3.769  11.786  0.3182  0.1948 -0.1026
 4928TIP3    H136199   3.732   3.783  11.820 -0.2188  0.6163  1.1735
 4928TIP3    H236200   3.653   3.701  11.720  1.3511 -0.9102  1.1637
 4929TIP3   OH236201   3.818   0.336  12.196  0.1357  0.7051  0.3229
 4929TIP3    H136202   3.847   0.275  12.128 -2.2950  1.1141 -1.1126
 4929TIP3    H236203   3.772   0.282  12.259  1.2776  0.5236  1.0275
 4930TIP3   OH236204   4.373   3.736  15.039  0.6585 -0.0495 -0.1121
 4930TIP3    H136205   4.340   3.812  14.990 -1.6653  0.6641  2.4068
 4930TIP3    H236206   4.323   3.662  15.006  0.4024  0.1192 -0.1032
 4931TIP3   OH236207   2.332   5.451   2.516  0.7884 -0.2390  0.7332
 4931TIP3    H136208   2.389   5.381   2.484 -0.0452 -0.0224 -1.2351
 4931TIP3    H236209   2.244   5.415   2.511  0.3709  0.8960 -0.1179
 4932TIP3   OH236210   5.167   0.339   4.460 -0.2946 -0.7373 -0.4249
 4932TIP3    H136211   5.239   0.380   4.508  0.8490 -0.6123 -2.2190
 4932TIP3    H236212   5.107   0.412   4.440  1.7871  0.1745 -3.7000
 4933TIP3   OH236213   3.953   6.262  14.354  0.0998 -0.1890  0.5335
 4933TIP3    H136214   3.993   6.285  14.270 -1.8802 -2.3496 -1.0226
 4933TIP3    H236215   3.919   6.346  14.387  0.9319  0.6919 -0.7746
 4934TIP3   OH236216   6.785   5.886  15.524 -0.2515 -0.3917  1.4035
 4934TIP3    H136217   6.742   5.903  15.441  4.0278  0.8873 -0.7214
 4934TIP3    H236218   6.769   5.793  15.541 -0.4740 -0.8827 -1.3122
 4935TIP3   OH236219   0.976   3.176   5.278 -0.0403 -0.0219  0.1115
 4935TIP3    H136220   1.070   3.176   5.263 -0.1399  1.7361 -0.6982
 4935TIP3    H236221   0.946   3.091   5.246  1.0525  0.0356 -1.0866
 4936TIP3   OH236222   0.294   0.785  12.207 -0.2516  0.0335  0.2361
 4936TIP3    H136223   0.348   0.851  12.163 -0.7014 -0.1356 -0.5792
 4936TIP3    H236224   0.357   0.723  12.243  0.1857  0.9844  1.1423
 4937TIP3   OH236225   3.949   0.241  13.611  0.1075  0.5737  0.4007
 4937TIP3    H136226   3.879   0.186  13.646 -0.3655 -0.3664 -1.9399
 4937TIP3    H236227   3.973   0.299  13.683 -1.2792 -0.8662  2.0452
 4938TIP3   OH236228   6.178   4.027   3.370 -0.3808  0.7668 -0.6701
 4938TIP3    H136229   6.139   3.941   3.352 -0.0269  0.6228 -0.7630
 4938TIP3    H236230   6.106   4.080   3.402  0.1043 -0.6282  2.9800
 4939TIP3   OH236231   2.268   2.886   5.371 -0.3464  0.2274  0.0565
 4939TIP3    H136232   2.203   2.835   5.420  0.8097 -0.8080  0.5534
 4939TIP3    H236233   2.271   2.970   5.416 -0.4441 -0.1612  0.8123
 4940TIP3   OH236234   0.346   6.203  12.960 -0.5469  0.1509  0.2206
 4940TIP3    H136235   0.338   6.131  12.898  1.9142  0.2277 -0.2201
 4940TIP3    H236236   0.329   6.163  13.045 -0.9369 -0.5633 -0.1859
 4941TIP3   OH236237   5.843   1.016   4.038 -0.2894  0.5021  0.2140
 4941TIP3    H136238   5.808   1.105   4.043 -0.0365  0.5252  1.9861
 4941TIP3    H236239   5.816   0.984   3.952 -0.7461  2.1345 -0.2705
 4942TIP3   OH236240   2.542   1.017   2.210 -0.0123  0.2383  0.2771
 4942TIP3    H136241   2.501   0.986   2.291 -0.4333  0.8704  0.3124
 4942TIP3    H236242   2.525   0.948   2.146 -0.8016  0.3180  0.3936
 4943TIP3   OH236243   6.383   3.655  12.057 -0.3319 -0.1373 -0.1552
 4943TIP3    H136244   6.298   3.619  12.031 -2.2733  1.6108  3.3235
 4943TIP3    H236245   6.433   3.579  12.087 -1.6800 -0.8746  0.3018
 4944TIP3   OH236246   0.881   0.380  14.321 -0.2555  0.4773 -0.4560
 4944TIP3    H136247   0.943   0.381  14.247  1.4977  0.7120  0.9699
 4944TIP3    H236248   0.937   0.367  14.398 -2.1944 -1.0538  0.7161
 4945TIP3   OH236249   6.251   5.564   5.149 -0.5951  0.6215 -0.0978
 4945TIP3    H136250   6.218   5.625   5.215 -1.9323 -0.0788 -0.1028
 4945TIP3    H236251   6.246   5.478   5.191  1.0682  0.4586 -0.1698
 4946TIP3   OH236252   6.162   4.879  11.646  0.2035  0.1371  0.2902
 4946TIP3    H136253   6.237   4.833  11.607  0.1594  0.1785  0.1558
 4946TIP3    H236254   6.098   4.810  11.663  0.1407  0.1505  0.0978
 4947TIP3   OH236255   6.417   6.561  17.186  0.3519 -0.8100  0.1564
 4947TIP3    H136256   6.376   6.587  17.269  0.9296  2.4209 -0.5322
 4947TIP3    H236257   6.353   6.501  17.147 -0.8724 -0.7512  1.9819
 4948TIP3   OH236258   2.108   5.664   3.952  0.1195  0.3690  0.8535
 4948TIP3    H136259   2.111   5.672   4.048 -0.5881 -0.3600  0.9396
 4948TIP3    H236260   2.017   5.642   3.933  0.2027  0.7431 -0.0143
 4949TIP3   OH236261   6.637   2.402  15.681  0.1015  0.0155 -0.1295
 4949TIP3    H136262   6.586   2.368  15.755 -0.0237 -1.4617 -0.8819
 4949TIP3    H236263   6.578   2.466  15.640 -0.2632  0.0020  0.3590
 4950TIP3   OH236264   1.572   0.319   3.437  0.2397 -0.5083 -0.0503
 4950TIP3    H136265   1.602   0.324   3.347  1.3663  0.0200  0.3460
 4950TIP3    H236266   1.565   0.225   3.455 -0.3536 -0.6109 -0.7958
 4951TIP3   OH236267   5.894   6.725   3.363 -0.5081 -0.1970  0.5333
 4951TIP3    H136268   5.970   6.737   3.420 -1.6176  0.6124  1.8640
 4951TIP3    H236269   5.889   6.807   3.313  0.0853 -0.6567 -0.3007
 4952TIP3   OH236270   4.743   1.524  13.424  0.5720  0.1653 -0.1513
 4952TIP3    H136271   4.707   1.441  13.393 -2.2324  1.7017 -1.1899
 4952TIP3    H236272   4.797   1.555  13.351  0.5114 -0.1017 -0.3105
 4953TIP3   OH236273   4.675   1.896   3.100  0.3885  0.1781 -0.0377
 4953TIP3    H136274   4.586   1.864   3.089 -0.0959  0.9615  1.3914
 4953TIP3    H236275   4.719   1.874   3.018 -1.2820  0.3546 -1.0130
 4954TIP3   OH236276   0.079   3.265   0.691 -0.0204  0.2571  0.0749
 4954TIP3    H136277   0.146   3.320   0.650  0.0630 -1.1099 -1.6855
 4954TIP3    H236278   0.004   3.271   0.632 -0.7855  0.2401  1.0403
 4955TIP3   OH236279   0.367   3.642   0.269 -0.3391  0.6179 -0.4592
 4955TIP3    H136280   0.391   3.554   0.299 -1.4473  0.9182  1.3270
 4955TIP3    H236281   0.388   3.641   0.175  3.5992 -0.2025  0.3255
 4956TIP3   OH236282   4.824   6.740  15.587  0.0478 -0.1881  0.1149
 4956TIP3    H136283   4.843   6.719  15.678  0.8659 -0.5220 -0.1283
 4956TIP3    H236284   4.815   6.654  15.545  0.9900 -0.0399 -0.3901
 4957TIP3   OH236285   1.145   2.438   3.443 -0.1269 -0.1836 -0.9809
 4957TIP3    H136286   1.071   2.453   3.501 -0.2565  2.7349 -1.8129
 4957TIP3    H236287   1.113   2.462   3.356  1.2459 -0.6602 -1.6316
 4958TIP3   OH236288   4.834   3.650   2.094  0.2809 -0.3608  0.2569
 4958TIP3    H136289   4.920   3.611   2.079 -0.6647 -1.6726 -1.9440
 4958TIP3    H236290   4.845   3.742   2.070  1.5702 -0.0589  1.9270
 4959TIP3   OH236291   4.172   2.712   1.788 -0.1391  0.3180  0.7670
 4959TIP3    H136292   4.248   2.741   1.838 -0.1256 -0.2463  1.0802
 4959TIP3    H236293   4.132   2.792   1.755 -0.4101  0.7284  2.0743
 4960TIP3   OH236294   2.484   3.749  13.451  0.2529  0.0384  0.5393
 4960TIP3    H136295   2.533   3.696  13.388 -0.6468 -1.1938  0.8695
 4960TIP3    H236296   2.540   3.753  13.529  0.4267 -0.2225  0.4256
 4961TIP3   OH236297   5.255   5.113   0.853 -0.7747  0.4669 -0.3262
 4961TIP3    H136298   5.304   5.155   0.924  2.1162 -3.7928  0.3552
 4961TIP3    H236299   5.174   5.084   0.895  0.6074 -1.4122  1.1391
 4962TIP3   OH236300   5.840   0.300   5.294 -0.4135  0.5568 -0.6591
 4962TIP3    H136301   5.893   0.330   5.367 -1.4595 -0.7024  0.6606
 4962TIP3    H236302   5.887   0.225   5.258 -0.8250  0.0128 -0.0746
 4963TIP3   OH236303   1.869   5.703   2.698  0.2244  0.4170 -0.3012
 4963TIP3    H136304   1.916   5.744   2.625 -1.5187  0.9752 -1.1295
 4963TIP3    H236305   1.819   5.632   2.658  1.1086 -0.7935  0.7271
 4964TIP3   OH236306   2.615   0.673  15.683  0.2019  0.3810  0.3574
 4964TIP3    H136307   2.562   0.638  15.754  2.1269 -2.4383  0.4820
 4964TIP3    H236308   2.555   0.676  15.608 -0.7577 -0.4748  1.0797
 4965TIP3   OH236309   3.799   0.337  12.839 -0.3119 -0.0621  0.2858
 4965TIP3    H136310   3.725   0.397  12.835 -0.4029 -0.1719  0.3255
 4965TIP3    H236311   3.774   0.272  12.905 -0.0888  0.0251  0.4543
 4966TIP3   OH236312   3.408   3.899   4.458  0.8973  0.0109 -0.1853
 4966TIP3    H136313   3.486   3.947   4.430  1.6372  0.2317  2.1102
 4966TIP3    H236314   3.443   3.817   4.496  0.0303  0.0705  0.7716
 4967TIP3   OH236315   3.929   6.498   3.398  0.6086  0.3421 -0.3540
 4967TIP3    H136316   3.979   6.468   3.474  0.8600  0.3072 -0.5323
 4967TIP3    H236317   3.995   6.527   3.336  0.5280 -2.0094 -1.5777
 4968TIP3   OH236318   4.475   6.247  11.605 -0.1276 -0.1640  0.3816
 4968TIP3    H136319   4.392   6.282  11.635 -1.1320 -1.2016 -1.1124
 4968TIP3    H236320   4.455   6.207  11.520  1.9488 -0.1607 -0.1329
 4969TIP3   OH236321   3.232   0.922  11.405 -0.4909 -0.1432 -0.6141
 4969TIP3    H136322   3.209   0.944  11.495  0.5016 -1.1307 -0.0986
 4969TIP3    H236323   3.161   0.867  11.374 -1.3183  0.9951 -0.7798
 4970TIP3   OH236324   6.095   1.115  16.874 -0.4846 -0.3220  0.3275
 4970TIP3    H136325   6.037   1.109  16.798  1.1860  0.4327 -1.0356
 4970TIP3    H236326   6.162   1.177  16.848  0.9617 -1.1962  1.8702
 4971TIP3   OH236327   3.727   0.341  15.782 -0.0253  0.1815 -0.3310
 4971TIP3    H136328   3.738   0.281  15.855 -0.9503  1.6277  1.0269
 4971TIP3    H236329   3.793   0.314  15.718 -0.3059 -2.1470  0.3247
 4972TIP3   OH236330   2.135   6.647   1.970 -0.1613 -0.3871 -0.4742
 4972TIP3    H136331   2.100   6.702   1.901 -1.6108  0.1023  0.6332
 4972TIP3    H236332   2.088   6.673   2.049  1.5271 -0.8737  0.7312
 4973TIP3   OH236333   2.320   0.881   4.730  0.3602 -0.2746  0.1536
 4973TIP3    H136334   2.257   0.951   4.746 -1.0918 -2.0610  2.4642
 4973TIP3    H236335   2.284   0.834   4.655 -0.1552 -0.2586  0.3900
 4974TIP3   OH236336   2.246   3.384   1.938 -0.0250  0.0528  0.0646
 4974TIP3    H136337   2.339   3.366   1.953  0.2530 -0.0918 -1.7735
 4974TIP3    H236338   2.244   3.443   1.863 -1.4213 -0.0566 -0.0052
 4975TIP3   OH236339   3.093   1.418   3.847 -0.1867  0.2074  0.6167
 4975TIP3    H136340   3.013   1.403   3.797  0.0130  1.2553 -0.0325
 4975TIP3    H236341   3.127   1.330   3.865 -1.4282 -0.2376  0.8178
 4976TIP3   OH236342   1.029   3.403  12.097  0.1599  0.3360  0.6866
 4976TIP3    H136343   1.104   3.374  12.045 -1.1458  0.5864 -1.4060
 4976TIP3    H236344   0.970   3.443  12.033 -2.1680 -0.6697  2.1516
 4977TIP3   OH236345   4.162   3.032  12.884  0.0589  0.3236 -0.5072
 4977TIP3    H136346   4.133   3.081  12.807  0.1709 -0.0141 -0.7660
 4977TIP3    H236347   4.180   3.099  12.950  1.4262  0.7256 -1.2632
 4978TIP3   OH236348   3.542   0.538  12.315 -0.1215  0.3537 -0.1800
 4978TIP3    H136349   3.619   0.547  12.371  1.4918  0.1222 -2.3108
 4978TIP3    H236350   3.517   0.446  12.323 -0.8264  0.6445  1.2854
 4979TIP3   OH236351   6.679   6.761   5.793 -0.2007  0.4608  0.1108
 4979TIP3    H136352   6.737   6.813   5.848  0.0565 -0.2080  0.4758
 4979TIP3    H236353   6.619   6.825   5.754 -0.7455  0.8645  1.5923
 4980TIP3   OH236354   2.286   4.565  13.327  0.1416 -0.5757  0.7035
 4980TIP3    H136355   2.310   4.611  13.247  0.1965 -3.8830 -1.2899
 4980TIP3    H236356   2.361   4.575  13.385  1.7692 -1.4672 -1.2011
 4981TIP3   OH236357   6.451   5.251  14.664 -0.3090  0.3292  0.3003
 4981TIP3    H136358   6.496   5.322  14.710  3.1102 -1.3454 -0.3557
 4981TIP3    H236359   6.458   5.274  14.571 -2.1241  0.7591  0.2420
 4982TIP3   OH236360   5.214   4.843   4.902 -0.1813 -0.4192 -0.5609
 4982TIP3    H136361   5.212   4.929   4.860 -1.6730 -0.7597 -1.2138
 4982TIP3    H236362   5.259   4.859   4.985 -1.5461  1.2592 -0.1040
 4983TIP3   OH236363   3.709   2.059  17.143 -0.5404 -0.3833 -0.0974
 4983TIP3    H136364   3.778   2.120  17.168 -0.1363  0.1390 -2.4484
 4983TIP3    H236365   3.642   2.070  17.211  0.5850  0.8976  0.8323
 4984TIP3   OH236366   0.339   6.334   0.669  0.7499  0.3385  0.6324
 4984TIP3    H136367   0.307   6.365   0.584 -1.2325 -0.2461  1.1278
 4984TIP3    H236368   0.383   6.251   0.650  1.2808  0.7540  0.0406
 4985TIP3   OH236369   4.605   0.913  11.113 -0.0339  0.5764  0.1672
 4985TIP3    H136370   4.567   0.854  11.177  1.8981 -1.4289 -0.4559
 4985TIP3    H236371   4.699   0.914  11.134 -0.0821  3.9933  0.5951
 4986TIP3   OH236372   0.894   5.508  15.170  0.3758 -0.0076  0.4753
 4986TIP3    H136373   0.980   5.539  15.196  0.0667  0.6895  0.6911
 4986TIP3    H236374   0.911   5.428  15.120  1.1985  0.5705 -0.1870
 4987TIP3   OH236375   4.911   2.783  11.394  0.1010  0.4514  0.2678
 4987TIP3    H136376   4.941   2.783  11.303  1.7573 -1.6498  0.7896
 4987TIP3    H236377   4.937   2.869  11.427 -0.0963  1.0544 -1.1128
 4988TIP3   OH236378   2.335   6.524  16.984 -0.1697 -0.3519  0.1866
 4988TIP3    H136379   2.414   6.566  17.016  0.9746 -0.9412 -1.8043
 4988TIP3    H236380   2.271   6.595  16.975  0.2304  0.1766  1.4161
 4989TIP3   OH236381   0.888   6.141  15.406 -0.6509  0.2622 -0.1854
 4989TIP3    H136382   0.915   6.212  15.348 -1.0438  2.0292  1.7340
 4989TIP3    H236383   0.806   6.109  15.368  0.4222 -0.3716 -2.0424
 4990TIP3   OH236384   3.717   1.352  10.369  0.9817  0.7528  0.3164
 4990TIP3    H136385   3.642   1.308  10.330 -0.2159  0.6419  2.6324
 4990TIP3    H236386   3.781   1.282  10.383  0.6373  0.4401  0.3508
 4991TIP3   OH236387   0.499   4.352  16.402  0.2277 -0.2083 -0.1377
 4991TIP3    H136388   0.419   4.299  16.409 -0.5694  0.9694 -0.0748
 4991TIP3    H236389   0.467   4.440  16.382  1.5749  0.0770 -1.0793
 4992TIP3   OH236390   6.635   1.978   5.049 -0.0627  0.4408 -0.1619
 4992TIP3    H136391   6.619   2.018   5.135  0.5986 -1.0917  0.6877
 4992TIP3    H236392   6.712   2.024   5.016 -1.6653  2.6402 -0.9813
 4993TIP3   OH236393   5.374   5.908   0.506  0.0789 -0.2172 -0.1091
 4993TIP3    H136394   5.419   5.825   0.527  2.1322  0.5271 -1.3443
 4993TIP3    H236395   5.295   5.881   0.459  0.4788 -1.5045 -0.0633
 4994TIP3   OH236396   1.707   2.304   2.813 -0.6961 -0.1601  0.4997
 4994TIP3    H136397   1.758   2.373   2.855 -1.4316  0.1914  0.8061
 4994TIP3    H236398   1.737   2.305   2.722  1.2175 -1.2186  1.0719
 4995TIP3   OH236399   5.789   2.390  13.803 -0.2799  0.2262  0.6643
 4995TIP3    H136400   5.768   2.341  13.882 -0.7159  1.0937  1.1045
 4995TIP3    H236401   5.783   2.327  13.732  0.4004 -0.6267  1.3582
 4996TIP3   OH236402   2.693   3.673   1.274 -0.7387 -0.2073  0.3226
 4996TIP3    H136403   2.732   3.671   1.362 -2.4935  3.0755  1.2770
 4996TIP3    H236404   2.618   3.614   1.279 -1.3658  0.6449  1.3600
 4997TIP3   OH236405   0.047   2.450  12.558 -0.1724  0.9183  0.1756
 4997TIP3    H136406  -0.009   2.376  12.583 -1.4337  1.2099 -1.6878
 4997TIP3    H236407  -0.014   2.521  12.539  0.9385  1.8702  0.1299
 4998TIP3   OH236408   5.152   0.738  15.013  0.5928  0.1267  0.1730
 4998TIP3    H136409   5.213   0.766  14.945  0.5114  1.1558  0.5124
 4998TIP3    H236410   5.069   0.727  14.968  0.5648  0.7026  0.0737
 4999TIP3   OH236411   1.145   6.029  14.052 -0.8432 -0.8445 -0.0110
 4999TIP3    H136412   1.221   5.972  14.060 -0.7481 -0.5191  1.6486
 4999TIP3    H236413   1.073   5.971  14.028 -0.3440 -1.3633 -0.2350
 5000TIP3   OH236414   1.945   2.236  17.008 -0.1303 -0.0356  0.0735
 5000TIP3    H136415   2.029   2.217  17.049  1.4072  0.3282 -2.7871
 5000TIP3    H236416   1.917   2.318  17.047 -0.2291 -1.2086  2.5903
 5001TIP3   OH236417   0.363   4.830   4.320 -0.2523  0.3314 -0.4685
 5001TIP3    H136418   0.336   4.903   4.375  1.1323  1.3084 -1.0593
 5001TIP3    H236419   0.400   4.767   4.381  0.2611  0.9329 -0.1551
 5002TIP3   OH236420   1.354   6.372   5.226  0.1260  0.3677 -0.2425
 5002TIP3    H136421   1.393   6.367   5.313 -1.2914  1.4502  0.4728
 5002TIP3    H236422   1.428   6.389   5.168  1.1725 -0.9909  0.6603
 5003TIP3   OH236423   0.767   3.194   0.974  0.5583  0.0421  0.1191
 5003TIP3    H136424   0.715   3.220   0.897 -0.6701 -2.1257  0.1926
 5003TIP3    H236425   0.744   3.259   1.040  1.2871  1.6727 -1.1801
 5004TIP3   OH236426   5.609   6.391  16.309  0.7883  0.2968 -0.4557
 5004TIP3    H136427   5.582   6.307  16.272  1.1502 -1.4708  3.1381
 5004TIP3    H236428   5.528   6.431  16.340  0.8257  0.5429 -0.6717
 5005TIP3   OH236429   0.709   2.248   1.283 -0.0869 -0.4009  0.0016
 5005TIP3    H136430   0.660   2.296   1.216  0.9136  0.1692 -0.3444
 5005TIP3    H236431   0.703   2.156   1.257  0.0134 -0.2137 -0.6877
 5006TIP3   OH236432   0.989   0.799  13.626 -0.8348 -0.8049 -0.3579
 5006TIP3    H136433   0.938   0.821  13.703  1.9744  1.1089  1.0390
 5006TIP3    H236434   0.956   0.857  13.557  0.5048  1.5643  0.9584
 5007TIP3   OH236435   1.391   4.523  12.203  0.1651 -0.0357  0.1923
 5007TIP3    H136436   1.345   4.475  12.134 -2.2695  0.3410  1.5138
 5007TIP3    H236437   1.456   4.462  12.237 -1.9289 -1.9031  0.8866
 5008TIP3   OH236438   1.712   2.348  14.954  0.3679  0.1854  0.3126
 5008TIP3    H136439   1.626   2.361  14.914  0.6716 -1.0954 -0.7871
 5008TIP3    H236440   1.697   2.287  15.026  0.6622 -1.5867 -1.1047
 5009TIP3   OH236441   3.780   1.071   0.086 -0.1451 -0.9843  0.6102
 5009TIP3    H136442   3.784   1.082   0.181 -1.1503 -0.9105  0.6575
 5009TIP3    H236443   3.868   1.045   0.060  0.2866 -0.4053  1.4901
 5010TIP3   OH236444   1.158   3.538   0.358  0.6774 -0.0053  0.5791
 5010TIP3    H136445   1.103   3.462   0.376  0.5408  0.6182  2.9013
 5010TIP3    H236446   1.243   3.515   0.395  0.5788  1.0413  1.4797
 5011TIP3   OH236447   5.824   1.046   3.199  0.4970 -0.6906 -0.5843
 5011TIP3    H136448   5.865   1.120   3.155  2.1566 -1.3781 -0.2467
 5011TIP3    H236449   5.732   1.050   3.173  0.2861  2.2029  0.4381
 5012TIP3   OH236450   2.269   0.535   1.533 -0.5858 -0.3390 -0.0237
 5012TIP3    H136451   2.276   0.601   1.601 -1.0655 -1.5723  1.2320
 5012TIP3    H236452   2.176   0.519   1.523 -0.3978 -2.0787  0.9047
 5013TIP3   OH236453   4.154   4.551   5.318 -0.1836  0.0965 -0.1917
 5013TIP3    H136454   4.148   4.456   5.329 -0.2702  0.0180 -0.8950
 5013TIP3    H236455   4.080   4.574   5.262 -0.7080  0.7115  0.7454
 5014TIP3   OH236456   4.062   5.242   5.283  0.2735  0.2008  0.3918
 5014TIP3    H136457   4.116   5.178   5.330  1.5441 -0.1617 -1.5126
 5014TIP3    H236458   3.986   5.193   5.252  1.6582 -0.6457 -1.8021
 5015TIP3   OH236459   1.923   0.799  12.661  0.2389  0.4263  0.0582
 5015TIP3    H136460   1.913   0.894  12.653  0.5158  0.3959 -0.7243
 5015TIP3    H236461   1.847   0.763  12.615 -0.5525  0.2671  1.4403
 5016TIP3   OH236462   5.940   2.793  11.438  0.0715  0.1954 -0.6055
 5016TIP3    H136463   5.990   2.739  11.376 -0.1374 -0.8240  0.1075
 5016TIP3    H236464   5.891   2.730  11.491  0.6856  1.0284  0.9887
 5017TIP3   OH236465   0.994   6.333  16.976  0.6868 -1.0612 -0.1664
 5017TIP3    H136466   1.014   6.245  17.006  1.7075 -0.3006  1.4831
 5017TIP3    H236467   0.905   6.349  17.007  1.1643 -0.8584  1.1242
 5018TIP3   OH236468   0.955   1.450   6.496 -1.0304 -0.4017  0.3798
 5018TIP3    H136469   0.876   1.487   6.456 -0.1835  0.6982 -0.2979
 5018TIP3    H236470   0.966   1.501   6.577 -1.0526 -0.6101  0.5156
 5019TIP3   OH236471   2.150   6.382   5.456  0.0027  0.1567  0.0903
 5019TIP3    H136472   2.169   6.387   5.362  3.3952  0.1243  0.7116
 5019TIP3    H236473   2.055   6.386   5.461 -0.2405  0.4539 -3.3337
 5020TIP3   OH236474   4.129   1.214  13.679  0.2916  0.8534  0.2820
 5020TIP3    H136475   4.146   1.228  13.586  0.7686 -0.5557  0.1569
 5020TIP3    H236476   4.037   1.189  13.683  0.4377  0.2861  0.1223
 5021TIP3   OH236477   0.791   6.211  15.943 -0.7607 -0.0558  0.0861
 5021TIP3    H136478   0.831   6.176  16.022  0.1548  1.8095  0.4701
 5021TIP3    H236479   0.738   6.285  15.973  0.2216  1.1591 -1.1149
 5022TIP3   OH236480   2.347   4.335   5.473 -0.3988 -0.0176 -0.4530
 5022TIP3    H136481   2.441   4.327   5.492 -0.2676 -1.0375 -1.4841
 5022TIP3    H236482   2.326   4.425   5.496  0.6042 -0.0722  0.7825
 5023TIP3   OH236483   5.853   2.881  13.225 -0.0076  0.2265  0.4935
 5023TIP3    H136484   5.906   2.806  13.197 -0.0437 -0.0283  1.1160
 5023TIP3    H236485   5.832   2.927  13.143 -0.0005 -0.4442  0.1129
 5024TIP3   OH236486   3.275   4.822  16.031 -0.5050 -0.1775 -0.2626
 5024TIP3    H136487   3.366   4.837  16.006 -0.5641 -2.1279 -1.8443
 5024TIP3    H236488   3.275   4.733  16.067 -1.7197 -0.0248  0.1452
 5025TIP3   OH236489   6.132   2.373   1.684  0.6030  0.2486 -0.3477
 5025TIP3    H136490   6.088   2.383   1.600 -0.6543 -0.3913  0.2257
 5025TIP3    H236491   6.145   2.463   1.716  0.7234  0.4737 -1.0234
 5026TIP3   OH236492   1.219   2.746   4.368  0.0031  0.5262 -0.0442
 5026TIP3    H136493   1.141   2.737   4.313 -0.2987  2.0853  0.1138
 5026TIP3    H236494   1.194   2.705   4.451 -0.6118  0.9303 -0.0267
 5027TIP3   OH236495   6.685   5.846  13.517 -0.2343  0.4153  0.3216
 5027TIP3    H136496   6.736   5.846  13.436 -1.6179  2.4940 -0.5954
 5027TIP3    H236497   6.593   5.846  13.489 -0.7413  1.3128  1.8699
 5028TIP3   OH236498   2.077   0.436  12.600 -0.1414 -0.0246 -0.1360
 5028TIP3    H136499   2.063   0.352  12.556 -0.2188 -0.9221  1.5894
 5028TIP3    H236500   1.996   0.451  12.649  1.3152 -0.7928  2.5642
 5029TIP3   OH236501   2.531   0.203  15.465  0.6337  0.2146 -0.3117
 5029TIP3    H136502   2.604   0.265  15.454  1.9425 -0.7617  2.4965
 5029TIP3    H236503   2.565   0.120  15.433  0.8734 -0.3003  1.2379
 5030TIP3   OH236504   3.749   5.491   5.129  0.0703  0.2167  0.3917
 5030TIP3    H136505   3.829   5.473   5.081  0.7985 -1.7600  2.2684
 5030TIP3    H236506   3.683   5.434   5.090 -0.3306  1.4964 -0.8377
 5031TIP3   OH236507   1.489   2.589  12.876  0.2719 -0.2021 -0.2016
 5031TIP3    H136508   1.562   2.568  12.934 -0.1801 -2.5279 -0.4457
 5031TIP3    H236509   1.411   2.562  12.924 -0.3622  1.0633 -0.4895
 5032TIP3   OH236510   2.502   5.105  14.631 -0.3152 -0.0854  0.0065
 5032TIP3    H136511   2.572   5.164  14.660  0.6066 -1.2692  0.2633
 5032TIP3    H236512   2.541   5.057  14.557 -1.5596  0.6663 -1.1543
 5033TIP3   OH236513   3.714   0.298  15.108  0.0778  0.4524 -0.4410
 5033TIP3    H136514   3.742   0.326  15.195 -0.4376 -0.9636  0.1923
 5033TIP3    H236515   3.707   0.380  15.058 -1.4132  1.4642  1.3649
 5034TIP3   OH236516   4.442   5.858   1.222 -0.1697  0.5251  0.1426
 5034TIP3    H136517   4.500   5.802   1.273 -0.8841  1.4193  1.9745
 5034TIP3    H236518   4.500   5.909   1.166  0.6606 -0.0743  0.4553
 5035TIP3   OH236519   3.247   4.051  14.793 -0.4272  0.0561  0.4543
 5035TIP3    H136520   3.243   3.956  14.786  0.5968  0.0519 -0.2399
 5035TIP3    H236521   3.175   4.074  14.852 -0.2891 -1.1957  1.1313
 5036TIP3   OH236522   5.798   0.360  12.331  0.3522  0.1159 -0.3840
 5036TIP3    H136523   5.844   0.414  12.394  1.1780  1.1468 -1.8448
 5036TIP3    H236524   5.726   0.321  12.381  1.0543  0.8051  1.2035
 5037TIP3   OH236525   4.187   0.962  13.817 -0.2636  0.1364  0.4262
 5037TIP3    H136526   4.107   0.957  13.870  1.5154 -0.8117  3.1447
 5037TIP3    H236527   4.242   1.025  13.864  1.6128 -1.1907  0.0602
 5038TIP3   OH236528   1.930   4.955  11.487 -0.5729 -0.5525 -0.4174
 5038TIP3    H136529   1.975   4.950  11.571 -1.2154 -0.2483 -0.0536
 5038TIP3    H236530   1.888   5.041  11.486  0.3344 -0.1055 -1.5140
 5039TIP3   OH236531   2.711   5.614   6.032  0.1311  0.7391 -0.4044
 5039TIP3    H136532   2.699   5.606   6.127  1.6560 -0.4679 -0.2960
 5039TIP3    H236533   2.783   5.676   6.022 -0.1232  0.9725 -0.7685
 5040TIP3   OH236534   4.334   1.028   0.902  0.2649 -0.4237  0.3200
 5040TIP3    H136535   4.264   1.004   0.963  0.7064  0.1307  1.0532
 5040TIP3    H236536   4.365   0.945   0.867  0.1852 -0.7724  1.0607
 5041TIP3   OH236537   2.431   4.440  11.493 -0.4274  0.0529  0.0317
 5041TIP3    H136538   2.517   4.401  11.505 -0.9098 -0.4606  1.9244
 5041TIP3    H236539   2.421   4.500  11.567 -1.6374  0.1918 -0.2364
 5042TIP3   OH236540   4.532   1.091   3.903  0.4197  0.3744 -0.4066
 5042TIP3    H136541   4.535   1.040   3.822 -2.2207 -0.4147 -0.0524
 5042TIP3    H236542   4.489   1.173   3.879 -0.8053 -0.0532  0.2596
 5043TIP3   OH236543   4.137   2.482   2.959  0.1594  0.2731 -0.6360
 5043TIP3    H136544   4.071   2.548   2.937 -0.9071 -0.3381  0.6101
 5043TIP3    H236545   4.205   2.530   3.006 -0.0876  0.6649 -0.6811
 5044TIP3   OH236546   1.225   1.745  14.166  0.2607 -0.5850  0.0338
 5044TIP3    H136547   1.226   1.725  14.072 -1.8237 -0.7563  0.0165
 5044TIP3    H236548   1.248   1.838  14.171 -2.3071  0.1379 -0.8906
 5045TIP3   OH236549   3.110   0.999  15.209  0.3619  0.2806  0.0269
 5045TIP3    H136550   3.170   0.936  15.168  1.6152  0.3308  1.7220
 5045TIP3    H236551   3.151   1.084  15.196 -0.4312  0.5608 -0.6842
 5046TIP3   OH236552   4.741   3.852  17.032 -0.2001 -0.3118 -0.2806
 5046TIP3    H136553   4.742   3.787  16.962  0.1397 -1.2748  0.6089
 5046TIP3    H236554   4.827   3.894  17.028 -0.6515  0.5563 -1.2723
 5047TIP3   OH236555   5.092   5.610  14.528  0.5934 -0.3825 -0.0347
 5047TIP3    H136556   5.040   5.532  14.508  2.1906 -0.8867 -2.3269
 5047TIP3    H236557   5.038   5.659  14.590 -2.1101 -1.4428 -1.4823
 5048TIP3   OH236558   3.357   5.960   3.333 -0.0858 -0.8458 -0.0319
 5048TIP3    H136559   3.333   5.921   3.249  1.5640  0.9290 -1.3792
 5048TIP3    H236560   3.451   5.974   3.327 -0.2430  1.0399  1.3640
 5049TIP3   OH236561   0.899   0.152  16.641  0.7070 -0.1536  0.1049
 5049TIP3    H136562   0.883   0.207  16.718 -0.1206 -0.9763  0.5254
 5049TIP3    H236563   0.885   0.063  16.672  0.9220 -0.5285 -0.8689
 5050TIP3   OH236564   1.147   4.988   3.668  0.7026 -0.2094  0.1952
 5050TIP3    H136565   1.101   5.013   3.588 -3.3308 -0.9015  2.1680
 5050TIP3    H236566   1.136   4.893   3.673 -0.0154 -0.0377  2.1036
 5051TIP3   OH236567   5.762   4.568   5.833 -0.5549  0.9927  0.2199
 5051TIP3    H136568   5.771   4.641   5.894 -0.7347  1.0416  0.1878
 5051TIP3    H236569   5.802   4.600   5.752 -2.0229  1.6291 -0.2730
 5052TIP3   OH236570   5.714   1.532   0.136 -0.6736 -0.7142  0.2776
 5052TIP3    H136571   5.727   1.448   0.092 -1.4835 -0.5902 -0.2093
 5052TIP3    H236572   5.640   1.571   0.090 -0.5058  0.1193  0.7236
 5053TIP3   OH236573   2.929   0.727   1.351  0.5239  0.1118  0.1712
 5053TIP3    H136574   3.018   0.709   1.323  0.4447  0.6360 -0.4326
 5053TIP3    H236575   2.931   0.716   1.446  0.9920 -0.8558  0.0594
 5054TIP3   OH236576   4.581   6.102  13.971 -0.4124  0.1712 -0.1244
 5054TIP3    H136577   4.672   6.099  13.943 -0.4491  2.0171 -0.4671
 5054TIP3    H236578   4.534   6.139  13.898 -1.3167  0.0676  0.3964
 5055TIP3   OH236579   5.049   5.262  12.736 -0.1170  0.2879  0.2502
 5055TIP3    H136580   5.025   5.294  12.823 -0.3437 -1.0213  0.6756
 5055TIP3    H236581   5.018   5.172  12.734  1.1128 -0.1237 -0.6894
 5056TIP3   OH236582   3.335   3.192   0.426  0.0176 -0.2638  0.1646
 5056TIP3    H136583   3.407   3.250   0.400  0.6528 -1.2286 -0.2872
 5056TIP3    H236584   3.280   3.186   0.347 -0.4927  0.3654  0.4669
 5057TIP3   OH236585   5.594   0.587  14.835  0.0374 -0.3218 -0.2336
 5057TIP3    H136586   5.648   0.644  14.779  0.1278 -0.2970 -0.1207
 5057TIP3    H236587   5.611   0.618  14.924 -0.0483 -0.4110 -0.1858
 5058TIP3   OH236588   4.594   5.890  13.545 -0.3149 -0.2638  0.6878
 5058TIP3    H136589   4.547   5.899  13.462  0.2981 -1.0062  0.2563
 5058TIP3    H236590   4.545   5.824  13.594 -2.3125  2.1712  2.0903
 5059TIP3   OH236591   3.888   6.126   0.787  0.2022  0.6055 -0.0556
 5059TIP3    H136592   3.817   6.122   0.723  0.0562  0.2730  0.1293
 5059TIP3    H236593   3.926   6.213   0.774  0.1291  0.5668 -0.5493
 5060TIP3   OH236594   6.437   5.842  13.446 -1.1961 -0.4735  0.5628
 5060TIP3    H136595   6.415   5.902  13.374 -1.0161  0.7484  1.5031
 5060TIP3    H236596   6.377   5.867  13.517 -1.8771 -2.1574  0.6017
 5061TIP3   OH236597   2.374   0.554   6.546  0.0532 -0.7834  0.3979
 5061TIP3    H136598   2.372   0.497   6.623 -0.3563 -1.3437 -0.0265
 5061TIP3    H236599   2.282   0.563   6.521  0.1043  0.1748  0.5437
 5062TIP3   OH236600   4.022   1.333  10.957 -0.0839 -0.2856 -0.2547
 5062TIP3    H136601   4.105   1.286  10.958  0.7316  1.0128 -2.4490
 5062TIP3    H236602   3.990   1.323  10.867 -1.1925  1.1111 -0.0387
 5063TIP3   OH236603   5.652   2.397  11.778  0.5948  0.6664 -0.0459
 5063TIP3    H136604   5.630   2.304  11.779  0.4349  0.6856 -1.1392
 5063TIP3    H236605   5.742   2.400  11.745  0.1218  0.9845 -1.3245
 5064TIP3   OH236606   1.351   0.960  15.142  0.2646  0.4659 -0.1232
 5064TIP3    H136607   1.287   0.893  15.163 -0.7920  1.7268  0.7919
 5064TIP3    H236608   1.418   0.951  15.210  1.5123 -1.3847 -1.5511
 5065TIP3   OH236609   5.824   3.632  14.979  0.5194  0.6179  0.0580
 5065TIP3    H136610   5.901   3.576  14.981  0.0412 -0.0292  0.3303
 5065TIP3    H236611   5.753   3.577  15.012  0.1855  1.5986  0.9954
 5066TIP3   OH236612   3.424   5.349   1.728 -0.2733  0.3981 -0.0006
 5066TIP3    H136613   3.371   5.336   1.649  1.3042  1.1336 -1.2261
 5066TIP3    H236614   3.505   5.300   1.710 -0.3655 -0.4043  1.6723
 5067TIP3   OH236615   5.334   5.425   3.129 -0.3483 -0.0270  0.2359
 5067TIP3    H136616   5.302   5.407   3.217 -1.0473  2.4955  0.5151
 5067TIP3    H236617   5.429   5.426   3.138 -0.3891 -0.6145  0.7903
 5068TIP3   OH236618   5.403   1.222  15.767 -0.4705  0.4055 -0.7491
 5068TIP3    H136619   5.433   1.140  15.806  0.3282 -0.4609 -3.1114
 5068TIP3    H236620   5.323   1.198  15.720 -0.1549  0.9384 -1.5768
 5069TIP3   OH236621   1.429   5.328  14.636  0.4229  0.2120 -0.2201
 5069TIP3    H136622   1.470   5.246  14.608  0.2207  0.0828 -0.1435
 5069TIP3    H236623   1.427   5.382  14.557  1.3378  0.4693 -0.0748
 5070TIP3   OH236624   6.656   2.228   4.758  0.1978  0.0678 -0.2189
 5070TIP3    H136625   6.561   2.229   4.771 -0.0564  1.8694 -2.0377
 5070TIP3    H236626   6.687   2.303   4.809  0.2578  1.4030 -2.1823
 5071TIP3   OH236627   5.950   2.546  17.038  0.5797  0.5023 -0.3540
 5071TIP3    H136628   5.860   2.562  17.009  1.0295  1.4736 -1.2588
 5071TIP3    H236629   5.974   2.624  17.087  1.0791  0.4386 -0.4932
 5072TIP3   OH236630   6.069   5.256   0.202 -0.3022  0.0777 -0.1748
 5072TIP3    H136631   6.059   5.270   0.296 -0.4013 -0.0982 -0.1598
 5072TIP3    H236632   5.991   5.296   0.164 -0.7738 -0.7588 -0.1037
 5073TIP3   OH236633   1.881   6.335  15.809  0.1994 -0.1492  0.1017
 5073TIP3    H136634   1.844   6.386  15.882  0.6366 -0.7758  0.7760
 5073TIP3    H236635   1.807   6.286  15.774  0.1074 -0.3289  0.5412
 5074TIP3   OH236636   0.748   3.217   3.398 -0.0081 -0.0347 -0.2048
 5074TIP3    H136637   0.787   3.257   3.320 -0.7228 -0.7414 -0.9343
 5074TIP3    H236638   0.654   3.232   3.389 -0.0207  0.7590  1.0388
 5075TIP3   OH236639   0.877   5.701   1.946  0.9206  0.1752 -0.3477
 5075TIP3    H136640   0.966   5.672   1.964  0.9136  1.4579  1.8402
 5075TIP3    H236641   0.864   5.777   2.003 -1.5093  0.1154 -0.7686
 5076TIP3   OH236642   5.207   3.088  10.895 -0.4402  0.5085  1.0741
 5076TIP3    H136643   5.226   3.013  10.839 -0.9912  1.4303 -0.3799
 5076TIP3    H236644   5.140   3.056  10.956 -1.8486  0.2468 -0.5731
 5077TIP3   OH236645   3.034   2.127  17.192  0.6763  0.1517 -0.4897
 5077TIP3    H136646   3.102   2.111  17.258 -0.2792 -1.1674  0.1865
 5077TIP3    H236647   3.016   2.221  17.199  1.1553  0.1709  0.5602
 5078TIP3   OH236648   4.120   4.277   0.051  0.3488 -0.2524  0.1864
 5078TIP3    H136649   4.153   4.234   0.130  0.2543 -0.1551  0.2798
 5078TIP3    H236650   4.146   4.219  -0.021  0.1598 -0.5020  0.3186
 5079TIP3   OH236651   0.644   2.683  10.409 -0.4482 -0.0646 -0.1050
 5079TIP3    H136652   0.667   2.736  10.333  1.7556 -1.4961 -0.4764
 5079TIP3    H236653   0.716   2.621  10.418 -1.4423 -0.9466  2.2129
 5080TIP3   OH236654   1.127   5.694   1.264 -0.0939 -0.0486 -0.0202
 5080TIP3    H136655   1.175   5.655   1.191  2.1089  0.5971  1.0607
 5080TIP3    H236656   1.146   5.787   1.259 -1.2507  0.2248  0.4356
 5081TIP3   OH236657   3.027   4.673  14.765 -0.1199 -0.0169  0.8539
 5081TIP3    H136658   2.932   4.685  14.760 -0.1821 -0.0131  1.9432
 5081TIP3    H236659   3.062   4.762  14.769 -0.2095 -0.0329  2.5705
 5082TIP3   OH236660   1.290   4.010  12.639 -0.4015 -0.6719 -0.0124
 5082TIP3    H136661   1.215   4.059  12.608 -0.7751  0.4164  2.4765
 5082TIP3    H236662   1.312   4.050  12.723  2.2697 -1.6886 -0.1601
 5083TIP3   OH236663   0.302   1.986  14.451 -0.9254 -0.3260 -0.1379
 5083TIP3    H136664   0.337   1.955  14.534  0.9161 -1.7448 -1.4032
 5083TIP3    H236665   0.368   2.046  14.417 -2.0913  0.9763 -0.1586
 5084TIP3   OH236666   2.040   2.900  11.461 -0.0630 -0.2512 -0.3525
 5084TIP3    H136667   2.117   2.846  11.441  0.0041  0.2141 -1.3818
 5084TIP3    H236668   1.977   2.878  11.392 -0.4703  0.1279 -0.1045
 5085TIP3   OH236669   6.301   0.054  10.932 -0.3464  0.3502 -0.3304
 5085TIP3    H136670   6.261  -0.034  10.932 -0.2302  0.2801 -1.6022
 5085TIP3    H236671   6.335   0.064  10.843  2.6675  0.3353  0.7887
 5086TIP3   OH236672   1.835   3.544  12.028 -0.3794 -0.2089  0.6385
 5086TIP3    H136673   1.924   3.509  12.036 -0.8725 -1.6274  0.1006
 5086TIP3    H236674   1.818   3.586  12.112  0.0685 -1.6812  1.4838
 5087TIP3   OH236675   3.986   1.156   3.122 -0.2932  0.1819 -0.3936
 5087TIP3    H136676   3.978   1.106   3.041 -0.7664  1.1845 -0.9819
 5087TIP3    H236677   4.075   1.140   3.152 -0.1100 -0.1970 -1.1237
 5088TIP3   OH236678   6.300   0.875   2.101 -0.1103 -0.6234 -0.3294
 5088TIP3    H136679   6.365   0.938   2.071  0.9466 -1.4955  0.0840
 5088TIP3    H236680   6.243   0.924   2.160 -0.1197  0.2625 -1.0724
 5089TIP3   OH236681   2.298   4.564  14.437 -0.1534  0.8114 -0.0976
 5089TIP3    H136682   2.224   4.606  14.394  0.9151  0.3417 -2.4888
 5089TIP3    H236683   2.269   4.474  14.453  0.2222  0.3421 -1.9507
 5090TIP3   OH236684   0.434   3.027   6.464  0.1946 -0.0211  0.0092
 5090TIP3    H136685   0.355   3.013   6.515 -0.2427  0.9986 -0.3683
 5090TIP3    H236686   0.482   2.945   6.470 -0.3089 -0.2300  1.2559
 5091TIP3   OH236687   2.452   6.412   2.505  0.3708 -0.3041 -0.2572
 5091TIP3    H136688   2.479   6.420   2.414 -0.7677 -1.6374 -0.7183
 5091TIP3    H236689   2.359   6.435   2.505  0.5290  0.3911  0.6917
 5092TIP3   OH236690   2.758   4.630   4.125  0.4284 -0.5631 -0.2395
 5092TIP3    H136691   2.805   4.546   4.125 -1.4907 -1.6868 -1.6733
 5092TIP3    H236692   2.743   4.649   4.217  2.1080 -1.0970  0.1537
 5093TIP3   OH236693   0.340   2.089   5.856  0.3317 -0.1185 -0.0280
 5093TIP3    H136694   0.291   2.171   5.865 -1.6970 -1.3507  0.7196
 5093TIP3    H236695   0.402   2.090   5.929  0.6452  0.9658 -0.3061
 5094TIP3   OH236696   3.878   1.993   5.836 -0.9416  0.2980 -0.2750
 5094TIP3    H136697   3.918   2.019   5.753 -0.3238  0.2179 -0.0109
 5094TIP3    H236698   3.796   1.950   5.811 -0.2521 -0.6739 -0.9040
 5095TIP3   OH236699   4.618   3.096  14.818  0.2107 -0.1750  0.3289
 5095TIP3    H136700   4.669   3.110  14.898 -1.3808 -3.5036  2.0198
 5095TIP3    H236701   4.530   3.126  14.840 -0.3453 -1.5389  0.0097
 5096TIP3   OH236702   5.038   3.155  16.792  0.0352  0.2748 -0.4758
 5096TIP3    H136703   4.970   3.156  16.724  1.9965 -1.6855 -2.5730
 5096TIP3    H236704   5.108   3.211  16.757 -0.2573  1.8999  1.4461
 5097TIP3   OH236705   0.181   1.940   2.805 -0.4836 -0.0620 -0.3659
 5097TIP3    H136706   0.240   2.007   2.769 -1.0804  1.1030  0.7691
 5097TIP3    H236707   0.216   1.857   2.774  2.2027  0.5484  0.9202
 5098TIP3   OH236708   2.414   1.365   2.660 -0.2988  0.0023 -0.0939
 5098TIP3    H136709   2.349   1.334   2.724  0.1875  0.0095  0.4103
 5098TIP3    H236710   2.495   1.321   2.685 -0.2447 -0.4949 -1.1147
 5099TIP3   OH236711   6.440   0.616  13.597 -0.3893  0.0121 -0.1465
 5099TIP3    H136712   6.363   0.589  13.547 -0.8229 -1.1043  1.1015
 5099TIP3    H236713   6.514   0.597  13.538 -0.9242 -0.8361 -0.5676
 5100TIP3   OH236714   4.471   5.756  16.682  0.0615  0.2863 -0.0660
 5100TIP3    H136715   4.537   5.724  16.744  0.1852 -0.9556 -0.8274
 5100TIP3    H236716   4.478   5.697  16.607  1.3797  3.0330 -2.1982
 5101TIP3   OH236717   1.204   0.367   0.742  0.2371  0.1868  0.2885
 5101TIP3    H136718   1.178   0.287   0.696  1.4816 -0.7138  1.1170
 5101TIP3    H236719   1.291   0.387   0.708 -0.4759  1.7941 -0.6666
 5102TIP3   OH236720   5.284   0.539  15.199  0.3482  0.1680  0.5200
 5102TIP3    H136721   5.234   0.603  15.149 -0.3599 -0.2977  0.6082
 5102TIP3    H236722   5.367   0.582  15.218 -0.5300  1.4797  1.5122
 5103TIP3   OH236723   4.619   5.710   1.625  0.5632 -0.0003  0.4886
 5103TIP3    H136724   4.611   5.732   1.717 -0.5365 -1.6540  0.8086
 5103TIP3    H236725   4.691   5.646   1.622  0.7209  0.1898  0.1741
 5104TIP3   OH236726   4.313   5.943   2.727 -0.1983  0.0798  0.0564
 5104TIP3    H136727   4.335   5.895   2.807 -0.2690  1.2038  0.7644
 5104TIP3    H236728   4.258   5.882   2.677  0.1812 -0.7805  0.6787
 5105TIP3   OH236729   6.679   3.037  14.728  0.2937  0.1371 -0.2140
 5105TIP3    H136730   6.750   3.027  14.664 -0.5442  0.7981 -1.2774
 5105TIP3    H236731   6.638   2.951  14.733 -0.4834  0.4009 -1.6131
 5106TIP3   OH236732   6.302   1.294   2.744 -0.5191 -0.0381 -0.4898
 5106TIP3    H136733   6.297   1.207   2.783  0.2392  0.1809  0.1165
 5106TIP3    H236734   6.348   1.281   2.661 -1.4064 -0.3796 -0.9373
 5107TIP3   OH236735   4.680   6.266  16.127 -0.5134  0.4603 -0.0039
 5107TIP3    H136736   4.607   6.206  16.141 -0.3895  0.5656  1.1548
 5107TIP3    H236737   4.750   6.210  16.091 -0.4231 -0.0929  0.9996
 5108TIP3   OH236738   5.306   4.500   0.352 -0.1193 -0.1522  0.1463
 5108TIP3    H136739   5.337   4.522   0.264  0.3768  0.9688  0.5935
 5108TIP3    H236740   5.246   4.572   0.374 -0.9640 -0.9121  0.3581
 5109TIP3   OH236741   0.540   1.246   2.054 -0.0215 -0.4527 -0.6434
 5109TIP3    H136742   0.491   1.192   1.992 -1.9220  0.7029 -0.1757
 5109TIP3    H236743   0.542   1.333   2.015 -1.0576  0.2388  0.7870
 5110TIP3   OH236744   0.741   6.273  10.978 -0.1989  0.1943  0.3327
 5110TIP3    H136745   0.743   6.178  10.989  0.0064  0.3163  1.3642
 5110TIP3    H236746   0.828   6.296  10.945 -0.2216  0.0405  0.1649
 5111TIP3   OH236747   5.137   6.047  15.360  0.2600 -0.5921  0.4435
 5111TIP3    H136748   5.109   6.045  15.451 -0.3857 -0.7027  0.2495
 5111TIP3    H236749   5.232   6.037  15.363  0.2134 -0.8288  1.0882
 5112TIP3   OH236750   6.266   4.282   3.120 -0.1971  0.3871  0.1250
 5112TIP3    H136751   6.332   4.214   3.130 -1.3908 -0.5934  1.6963
 5112TIP3    H236752   6.185   4.235   3.098 -0.4100  1.5468 -1.6359
 5113TIP3   OH236753   5.114   0.179  11.964 -0.0849 -0.0240  0.6556
 5113TIP3    H136754   5.203   0.172  11.999 -0.1095  0.9398  0.9245
 5113TIP3    H236755   5.113   0.263  11.918 -0.4002 -0.7366 -0.6798
 5114TIP3   OH236756   1.108   1.396   2.760 -0.3561  0.3983  0.2582
 5114TIP3    H136757   1.118   1.318   2.816  1.1172  1.5577  1.6925
 5114TIP3    H236758   1.151   1.466   2.810 -0.2461  1.7790 -1.7312
 5115TIP3   OH236759   1.670   0.467  13.513  0.2792 -0.1202 -0.2467
 5115TIP3    H136760   1.618   0.545  13.530  0.0751 -0.8378  2.6232
 5115TIP3    H236761   1.608   0.407  13.470 -0.7651 -0.2598  1.4064
 5116TIP3   OH236762   0.849   1.113  13.672 -0.6015 -0.3027 -0.7663
 5116TIP3    H136763   0.828   1.055  13.745 -0.0017 -0.1676 -0.4889
 5116TIP3    H236764   0.853   1.055  13.596 -0.5488 -0.5443 -0.5804
 5117TIP3   OH236765   4.873   6.655   2.931 -0.0052 -0.5054 -0.1435
 5117TIP3    H136766   4.929   6.730   2.952  0.9883 -1.5059  0.8103
 5117TIP3    H236767   4.915   6.613   2.856 -0.1571 -0.5461 -0.2061
 5118TIP3   OH236768   3.067   0.648  13.719 -0.1422  0.1865 -0.0322
 5118TIP3    H136769   2.995   0.659  13.656  1.0780 -0.1780 -1.5067
 5118TIP3    H236770   3.084   0.553  13.719  1.9099  0.5213 -1.4897
 5119TIP3   OH236771   2.017   0.507   1.618  0.0924 -0.1326 -0.1778
 5119TIP3    H136772   1.974   0.538   1.698  0.6150  2.2596 -0.7783
 5119TIP3    H236773   1.947   0.500   1.554  0.1421  0.9167 -0.3491
 5120TIP3   OH236774   5.029   5.415   2.485 -0.2032 -0.2238 -0.5169
 5120TIP3    H136775   5.000   5.332   2.448  1.3139 -0.7960 -0.4697
 5120TIP3    H236776   5.024   5.403   2.579 -0.3560 -0.1257 -0.5127
 5121TIP3   OH236777   1.203   1.594  14.442 -0.1085 -0.3259 -0.1446
 5121TIP3    H136778   1.121   1.584  14.393 -0.0106 -0.0237 -0.3653
 5121TIP3    H236779   1.240   1.676  14.412 -0.4707  0.2931  1.0598
 5122TIP3   OH236780   3.939   5.990   2.767  0.3193 -0.0897  0.5994
 5122TIP3    H136781   3.957   6.084   2.762  1.3969 -0.3560 -0.8142
 5122TIP3    H236782   4.005   5.956   2.828  0.5515 -0.0836  0.3507
 5123TIP3   OH236783   5.592   4.530   1.675  0.1887 -0.3071  0.3729
 5123TIP3    H136784   5.520   4.591   1.694  0.5137  0.3811 -0.5706
 5123TIP3    H236785   5.635   4.568   1.599  0.1066 -1.9880 -0.5130
 5124TIP3   OH236786   1.350   3.409   1.136 -0.3292 -0.1162  0.1227
 5124TIP3    H136787   1.363   3.485   1.080 -0.5921  0.3673  0.6982
 5124TIP3    H236788   1.409   3.423   1.210 -0.7235 -0.2338  0.4645
 5125TIP3   OH236789   1.936   4.375   1.139  0.0235  0.9016 -0.1170
 5125TIP3    H136790   1.979   4.351   1.221 -0.8982  0.9253  0.3723
 5125TIP3    H236791   1.843   4.379   1.160 -0.1701  1.4556 -1.0305
 5126TIP3   OH236792   1.298   6.767  15.127 -0.3064 -0.2944 -0.4769
 5126TIP3    H136793   1.283   6.708  15.200 -0.4618 -0.4491 -0.6342
 5126TIP3    H236794   1.369   6.726  15.077  1.0993  0.7414  0.6066
 5127TIP3   OH236795   5.175   6.047  12.133  0.1417  0.5087 -0.2883
 5127TIP3    H136796   5.265   6.041  12.098  0.2150 -2.6047  0.3161
 5127TIP3    H236797   5.187   6.057  12.227 -0.1581  0.2061 -0.2201
 5128TIP3   OH236798   3.326   0.061   3.685  0.1244  0.6498 -0.5078
 5128TIP3    H136799   3.329   0.156   3.674 -0.7589  1.0293  2.1960
 5128TIP3    H236800   3.403   0.041   3.739 -1.2673  0.2333  1.3699
 5129TIP3   OH236801   2.544   6.447  12.381  0.2047 -0.3498 -0.0990
 5129TIP3    H136802   2.568   6.359  12.409  4.6082  0.3717 -1.1880
 5129TIP3    H236803   2.569   6.503  12.455 -1.5356  0.1172  0.1472
 5130TIP3   OH236804   5.766   6.211  12.520  0.0996 -0.2545 -0.0211
 5130TIP3    H136805   5.803   6.130  12.485  0.0552 -0.7422  1.0607
 5130TIP3    H236806   5.715   6.183  12.596 -0.2355  0.7445  0.1226
 5131TIP3   OH236807   5.173   6.756   2.283 -0.0134  0.0675  0.1102
 5131TIP3    H136808   5.207   6.817   2.218  0.3786 -1.1779 -0.8777
 5131TIP3    H236809   5.117   6.810   2.340 -0.4654  1.1517 -1.3264
 5132TIP3   OH236810   1.149   4.126   5.910 -0.4441 -0.2269 -0.3146
 5132TIP3    H136811   1.187   4.153   5.994 -0.4463  0.4100 -0.5117
 5132TIP3    H236812   1.134   4.032   5.919  0.1711 -0.2822  0.1568
 5133TIP3   OH236813   1.135   2.417   0.615 -0.4601 -0.7400  0.2110
 5133TIP3    H136814   1.054   2.438   0.568 -0.5537 -1.7549 -0.0919
 5133TIP3    H236815   1.110   2.419   0.707 -0.7372 -0.6670  0.1344
 5134TIP3   OH236816   0.487   6.034   0.023 -0.7373  0.1635  0.0032
 5134TIP3    H136817   0.427   5.976   0.070 -0.8089 -0.3717 -0.7282
 5134TIP3    H236818   0.458   6.028  -0.068  1.6197 -1.6034 -0.6698
 5135TIP3   OH236819   0.485   5.678  16.258  0.0288  0.0993  0.8193
 5135TIP3    H136820   0.401   5.686  16.212  0.8550 -1.6981 -1.0798
 5135TIP3    H236821   0.543   5.739  16.214  1.2311 -2.6653 -1.6129
 5136TIP3   OH236822   0.916   1.766   0.739 -0.7432 -0.4195  0.0358
 5136TIP3    H136823   0.835   1.737   0.780 -0.5650 -1.5324 -0.3864
 5136TIP3    H236824   0.898   1.765   0.645 -0.2935 -0.5247 -0.0527
 5137TIP3   OH236825   2.962   3.964   3.585  0.2602  0.2829  0.0719
 5137TIP3    H136826   3.001   3.886   3.625  0.6299  0.4009 -0.0549
 5137TIP3    H236827   2.908   3.931   3.514  0.1139  0.1173  0.2576
 5138TIP3   OH236828   4.512   1.623   0.514  0.2424  0.7163  0.2925
 5138TIP3    H136829   4.599   1.587   0.531  0.4719  1.9377  1.7874
 5138TIP3    H236830   4.500   1.614   0.420  1.1586 -1.3169  0.3550
 5139TIP3   OH236831   6.727   0.363  15.944 -0.1757  0.1981 -0.1345
 5139TIP3    H136832   6.736   0.391  15.853 -1.1356  0.9126 -0.0135
 5139TIP3    H236833   6.725   0.268  15.939 -0.9863  0.2486 -0.9353
 5140TIP3   OH236834   6.737   3.991   1.254 -0.5454  0.2012  0.0683
 5140TIP3    H136835   6.779   4.064   1.300 -0.6471  0.6914 -0.6024
 5140TIP3    H236836   6.797   3.970   1.183  0.0077 -1.0942  0.8911
 5141TIP3   OH236837   5.497   2.834   3.591  0.4917  0.3982 -0.0582
 5141TIP3    H136838   5.572   2.775   3.603 -0.9425 -1.7092 -1.1408
 5141TIP3    H236839   5.447   2.825   3.672 -1.1605 -2.0429 -1.2936
 5142TIP3   OH236840   5.708   3.471   2.308 -0.4242  0.2840  0.0858
 5142TIP3    H136841   5.784   3.528   2.299 -0.1933 -0.5096 -3.4452
 5142TIP3    H236842   5.729   3.393   2.257 -3.5121 -0.0555 -0.7911
 5143TIP3   OH236843   3.800   0.493  13.447  0.0542 -0.1273 -0.2554
 5143TIP3    H136844   3.882   0.447  13.431  0.0031 -0.1291 -0.5139
 5143TIP3    H236845   3.785   0.544  13.368 -0.1742 -0.0975 -0.1929
 5144TIP3   OH236846   4.246   2.644  16.630  0.2231  0.1514  0.0017
 5144TIP3    H136847   4.189   2.709  16.589 -0.5259 -0.8700 -0.6246
 5144TIP3    H236848   4.320   2.635  16.570 -0.3878 -0.6190 -0.6595
 5145TIP3   OH236849   1.522   1.728   2.210  0.3105  0.1814 -0.2616
 5145TIP3    H136850   1.540   1.641   2.244 -0.3418 -0.2355 -0.9665
 5145TIP3    H236851   1.532   1.786   2.286  1.4200 -0.4172  0.0573
 5146TIP3   OH236852   1.263   0.618   0.522 -0.1892  0.2629  0.1441
 5146TIP3    H136853   1.268   0.585   0.433 -1.0092  0.8444 -0.1216
 5146TIP3    H236854   1.179   0.663   0.527 -1.2002 -1.7212  1.8938
 5147TIP3   OH236855   4.992   3.135  14.854  0.7668 -0.4438 -0.1116
 5147TIP3    H136856   4.923   3.109  14.916  0.4001 -0.9961 -0.7550
 5147TIP3    H236857   4.950   3.133  14.769  0.8991  1.6729 -0.2438
 5148TIP3   OH236858   6.742   1.029  12.242  0.3340  0.2589 -0.2588
 5148TIP3    H136859   6.769   0.937  12.243  1.3060  0.5175 -1.0417
 5148TIP3    H236860   6.804   1.071  12.182 -1.3220  1.0564 -1.4606
 5149TIP3   OH236861   3.300   1.566  15.030 -0.3164  0.3531  0.3945
 5149TIP3    H136862   3.251   1.632  15.079  0.5627  0.4109  1.2166
 5149TIP3    H236863   3.373   1.542  15.088  1.1939  0.9980 -1.2023
 5150TIP3   OH236864   0.473   2.831  16.517  0.1975  0.0859 -0.0732
 5150TIP3    H136865   0.433   2.863  16.598 -0.2800 -0.7941  0.0405
 5150TIP3    H236866   0.408   2.850  16.449  0.3435  0.2793 -0.1603
 5151TIP3   OH236867   5.068   1.056  12.546  0.1282 -0.0565 -0.2934
 5151TIP3    H136868   5.026   1.141  12.550  1.4964  0.5470  2.9946
 5151TIP3    H236869   5.151   1.071  12.501  0.3627  0.3736  0.2756
 5152TIP3   OH236870   2.708   3.434   0.508  0.2712  0.1832  0.0491
 5152TIP3    H136871   2.711   3.523   0.474  1.0210  0.1797  0.1087
 5152TIP3    H236872   2.748   3.440   0.594  2.2154 -0.5925 -0.7796
 5153TIP3   OH236873   6.396   0.568  12.193  0.0885 -0.4723  0.8746
 5153TIP3    H136874   6.400   0.663  12.182  0.6046 -0.2976  2.3658
 5153TIP3    H236875   6.331   0.539  12.130  0.9575  0.6999 -0.5967
 5154TIP3   OH236876   3.846   1.764  14.030  0.0085 -0.0813  0.5305
 5154TIP3    H136877   3.883   1.823  14.096  1.7122 -1.1786  0.5854
 5154TIP3    H236878   3.880   1.797  13.947  2.5858 -2.1093  0.7258
 5155TIP3   OH236879   3.964   6.242   6.248  0.5659  0.2436  0.0109
 5155TIP3    H136880   3.976   6.166   6.305  0.6634 -1.7357 -2.5265
 5155TIP3    H236881   3.973   6.318   6.306 -3.6870 -1.6468  3.4194
 5156TIP3   OH236882   6.374   1.821   4.146  0.4318 -0.5838 -0.3398
 5156TIP3    H136883   6.327   1.905   4.147 -1.8279 -1.7279 -2.7489
 5156TIP3    H236884   6.401   1.807   4.236  0.4377  2.4938  0.2018
 5157TIP3   OH236885   6.455   6.621   1.895 -0.5935  0.5900 -0.6540
 5157TIP3    H136886   6.540   6.638   1.855 -0.0868 -0.6849 -0.1516
 5157TIP3    H236887   6.423   6.707   1.922  1.2062  0.9131  0.4762
 5158TIP3   OH236888   1.471   4.102   5.773 -0.6246 -0.8582  0.1847
 5158TIP3    H136889   1.455   4.196   5.780  0.9943 -0.3397 -2.5119
 5158TIP3    H236890   1.492   4.075   5.863  0.4208  1.6514  0.7464
 5159TIP3   OH236891   4.296   2.432   0.596  0.5493 -0.5222  0.0652
 5159TIP3    H136892   4.330   2.385   0.520  1.0705 -0.6854  0.3980
 5159TIP3    H236893   4.246   2.366   0.645 -1.0951 -0.0507 -0.9360
 5160TIP3   OH236894   0.094   1.408   5.051  0.3060 -0.1536  0.0415
 5160TIP3    H136895   0.109   1.434   5.142 -0.7354  0.1442  0.1348
 5160TIP3    H236896   0.150   1.332   5.039 -2.3839 -2.5765  2.1228
 5161TIP3   OH236897   3.103   2.308  13.819  0.3473  0.2597 -0.1495
 5161TIP3    H136898   3.156   2.340  13.747  0.3642 -0.5611 -0.5151
 5161TIP3    H236899   3.154   2.328  13.898  0.6743  0.4831 -0.4177
 5162TIP3   OH236900   0.073   3.710   0.982  0.7039  0.2509  0.4755
 5162TIP3    H136901   0.143   3.690   0.920 -0.5701  1.8486 -1.5171
 5162TIP3    H236902   0.004   3.647   0.962  0.3779  0.6285  0.4079
 5163TIP3   OH236903   2.439   1.768  14.280 -0.1031  0.1092 -0.7038
 5163TIP3    H136904   2.411   1.778  14.189 -1.3893 -0.1618 -0.3585
 5163TIP3    H236905   2.357   1.749  14.328  0.5860  0.0339  0.4647
 5164TIP3   OH236906   4.795   5.277   0.994 -0.0434 -0.9086  0.0293
 5164TIP3    H136907   4.803   5.297   1.088 -0.4589  3.1104 -0.6994
 5164TIP3    H236908   4.710   5.235   0.986 -0.4718 -0.3121  1.3208
 5165TIP3   OH236909   1.409   3.987   1.263  0.2878  0.5616 -0.2005
 5165TIP3    H136910   1.492   4.008   1.221 -0.9016  1.4738 -2.1568
 5165TIP3    H236911   1.385   4.066   1.311 -0.6472  1.1951 -1.6743
 5166TIP3   OH236912   2.430   0.599   2.052  0.3522 -0.4890  0.1934
 5166TIP3    H136913   2.522   0.610   2.076  0.2167  1.8073 -0.1763
 5166TIP3    H236914   2.384   0.593   2.136  0.7990 -1.2850  0.3831
 5167TIP3   OH236915   3.494   0.393  16.036 -0.5152 -0.4536  0.3104
 5167TIP3    H136916   3.418   0.352  15.995 -2.0312 -0.4190  3.0256
 5167TIP3    H236917   3.561   0.325  16.036 -0.8718 -0.8192 -1.1409
 5168TIP3   OH236918   1.317   0.812  12.420  0.1263 -0.1384 -0.0315
 5168TIP3    H136919   1.283   0.784  12.505 -1.4288  2.0797  0.1245
 5168TIP3    H236920   1.300   0.737  12.362  0.1599 -1.2401  1.3456
 5169TIP3   OH236921   6.236   2.799  13.232 -0.5174 -0.5272 -0.4743
 5169TIP3    H136922   6.226   2.866  13.300  2.0622 -1.2412  0.6574
 5169TIP3    H236923   6.173   2.731  13.257 -0.6761 -0.0973  0.3388
 5170TIP3   OH236924   4.532   1.158   1.020 -0.1763 -0.8424  0.2866
 5170TIP3    H136925   4.571   1.190   0.938  0.3118 -1.2976  0.3400
 5170TIP3    H236926   4.450   1.116   0.993 -0.2811 -0.5157  0.0924
 5171TIP3   OH236927   3.616   0.120   1.277 -0.3589 -0.3138  0.4556
 5171TIP3    H136928   3.692   0.070   1.250 -0.7105 -0.5337 -0.1429
 5171TIP3    H236929   3.612   0.193   1.214  0.7953  1.1030  1.9868
 5172TIP3   OH236930   4.568   1.209  12.271 -0.4184 -0.6014 -0.6691
 5172TIP3    H136931   4.573   1.301  12.298  0.1187 -0.0767 -2.4625
 5172TIP3    H236932   4.659   1.184  12.255 -0.4790 -1.7199  0.6189
 5173TIP3   OH236933   5.653   6.776  15.691 -0.1796  0.3898  0.1598
 5173TIP3    H136934   5.719   6.837  15.724  1.8604 -1.0086 -1.2592
 5173TIP3    H236935   5.667   6.696  15.742 -1.0686  0.1994  0.1230
 5174TIP3   OH236936   3.198   6.205  13.396  0.0195 -0.2318  0.4265
 5174TIP3    H136937   3.171   6.244  13.479  0.5319 -0.3947  0.6778
 5174TIP3    H236938   3.254   6.131  13.422 -0.7557 -0.9843 -0.0472
 5175TIP3   OH236939   5.611   4.832  11.321 -0.5637  0.2488 -0.0361
 5175TIP3    H136940   5.659   4.810  11.241  1.2864 -1.4571  1.4922
 5175TIP3    H236941   5.534   4.774  11.320  0.0840 -0.6183  0.0028
 5176TIP3   OH236942   5.863   5.218  13.143 -0.3274  0.2848  0.1379
 5176TIP3    H136943   5.916   5.170  13.080  0.1898  0.1988  0.6468
 5176TIP3    H236944   5.925   5.271  13.192 -0.7520  0.4930  0.4544
 5177TIP3   OH236945   2.162   2.632  15.985  0.3288  0.3457 -0.1453
 5177TIP3    H136946   2.246   2.677  15.977 -0.1423  1.9789  3.3339
 5177TIP3    H236947   2.120   2.644  15.900  1.9649  2.9424 -0.6430
 5178TIP3   OH236948   1.615   1.135  14.596 -0.6987  0.5369 -0.0214
 5178TIP3    H136949   1.557   1.205  14.568  2.2692  2.8571 -0.5804
 5178TIP3    H236950   1.612   1.139  14.692 -0.0738  1.8604 -0.0469
 5179TIP3   OH236951   3.334   5.476  13.428  0.3519 -0.2180 -0.6292
 5179TIP3    H136952   3.412   5.528  13.449  0.6892 -0.2248 -1.8495
 5179TIP3    H236953   3.268   5.508  13.489  0.7156  1.2481 -0.9775
 5180TIP3   OH236954   3.945   3.277   2.278  0.2104  0.0034  0.0895
 5180TIP3    H136955   3.885   3.211   2.243 -2.1017  0.8602  2.3149
 5180TIP3    H236956   4.027   3.230   2.293 -0.9788 -2.0308  0.3296
 5181TIP3   OH236957   2.576   0.583   0.550 -0.5013  0.0373  0.3289
 5181TIP3    H136958   2.665   0.551   0.537  0.3267  0.8036  3.6910
 5181TIP3    H236959   2.520   0.507   0.532  1.0468 -1.4465  1.6494
 5182TIP3   OH236960   3.813   2.524  11.241  0.1190 -0.2971 -0.5022
 5182TIP3    H136961   3.762   2.443  11.249  0.5274 -0.4081  1.4326
 5182TIP3    H236962   3.749   2.594  11.247 -0.0962 -0.4658 -0.8296
 5183TIP3   OH236963   3.600   2.312  14.808 -0.0179 -0.0611  0.2888
 5183TIP3    H136964   3.574   2.247  14.743 -1.1316  0.8062 -0.1389
 5183TIP3    H236965   3.678   2.354  14.769  1.1779 -1.6587  0.9212
 5184TIP3   OH236966   6.655   2.921  11.391 -0.3506  0.4499  0.5983
 5184TIP3    H136967   6.720   2.894  11.327 -0.0542  3.1571 -0.2832
 5184TIP3    H236968   6.579   2.948  11.339 -1.3078 -0.3370  1.5306
 5185TIP3   OH236969   3.603   0.454   2.935  0.3025 -0.0319  0.3479
 5185TIP3    H136970   3.557   0.516   2.877 -1.5540  0.7216  2.5565
 5185TIP3    H236971   3.616   0.376   2.881 -0.7102  0.9331 -1.3362
 5186TIP3   OH236972   1.488   2.973  16.046  0.2384  0.1910 -0.2866
 5186TIP3    H136973   1.551   2.939  15.982  0.1639 -0.1267 -0.1908
 5186TIP3    H236974   1.532   2.963  16.130 -1.3687 -3.4917  0.2177
 5187TIP3   OH236975   4.972   4.062  11.831 -0.6814  0.3510 -0.3174
 5187TIP3    H136976   5.035   4.010  11.881  0.1982  0.7173 -1.0256
 5187TIP3    H236977   4.942   4.004  11.762  1.1853  1.1360 -1.8177
 5188TIP3   OH236978   5.994   1.830   1.277 -0.0279 -0.4134  0.0923
 5188TIP3    H136979   6.001   1.745   1.234  2.9644  0.0481 -0.4531
 5188TIP3    H236980   5.984   1.892   1.205 -1.0080 -0.1586  0.4314
 5189TIP3   OH236981   1.749   2.589   0.233 -0.0925 -0.2842 -0.2948
 5189TIP3    H136982   1.738   2.679   0.263 -4.3428 -0.5973 -0.6197
 5189TIP3    H236983   1.711   2.588   0.146 -0.0654 -2.3932 -0.3093
 5190TIP3   OH236984   2.287   1.355   1.070 -0.6918  0.2548  0.1500
 5190TIP3    H136985   2.259   1.420   1.134 -0.7290  2.3500 -1.9140
 5190TIP3    H236986   2.350   1.300   1.116 -0.5973  1.8219  1.9279
 5191TIP3   OH236987   3.111   4.342   2.552 -1.0771 -0.4281  0.1706
 5191TIP3    H136988   3.152   4.403   2.613 -2.8312 -0.5430  1.5252
 5191TIP3    H236989   3.118   4.257   2.596 -1.0227 -0.7654 -0.4865
 5192TIP3   OH236990   5.607   2.634  14.144  0.7564 -0.1077  0.5051
 5192TIP3    H136991   5.527   2.668  14.183 -1.0641 -2.1347 -1.3597
 5192TIP3    H236992   5.633   2.562  14.201  0.3239 -0.5126  0.1922
 5193TIP3   OH236993   1.464   0.073   5.790 -0.3510 -0.4825  0.7430
 5193TIP3    H136994   1.530   0.073   5.858 -0.6196 -1.8029  1.0271
 5193TIP3    H236995   1.390   0.025   5.828 -0.1271 -2.1287 -0.7971
 5194TIP3   OH236996   1.779   5.797  11.703  0.8573  0.4671  0.4287
 5194TIP3    H136997   1.824   5.881  11.712  0.0294  1.3767 -3.1331
 5194TIP3    H236998   1.846   5.737  11.671  0.8208  0.4174  0.4455
 5195TIP3   OH236999   0.038   1.595   2.691 -0.2492  0.3728 -0.3624
 5195TIP3    H137000   0.071   1.510   2.663 -0.5680  0.1765 -0.1606
 5195TIP3    H237001   0.113   1.653   2.689  0.7683 -0.7164  2.8113
 5196TIP3   OH237002   6.100   0.080  10.634 -0.3577  0.3427  0.4569
 5196TIP3    H137003   6.188   0.041  10.643 -0.3659  0.6010  1.8596
 5196TIP3    H237004   6.117   0.173  10.621 -0.4248  0.4124  0.8645
 5197TIP3   OH237005   0.796   1.383  11.721 -0.1585 -0.2543  0.4886
 5197TIP3    H137006   0.878   1.334  11.731  0.1652 -0.2363 -1.8241
 5197TIP3    H237007   0.735   1.320  11.682 -0.4319  0.5134 -0.3298
 5198TIP3   OH237008   4.663   2.350   1.688  0.0828 -0.2591 -0.4596
 5198TIP3    H137009   4.701   2.379   1.771  1.5505  0.4466 -1.3380
 5198TIP3    H237010   4.615   2.271   1.710  1.2974 -0.6508  0.9043
 5199TIP3   OH237011   5.344   5.148  11.374 -0.3283  0.2330  0.2165
 5199TIP3    H137012   5.394   5.127  11.296 -0.6272 -1.3014  0.4149
 5199TIP3    H237013   5.313   5.237  11.360  0.1421  0.1925 -1.1300
 5200TIP3   OH237014   1.532   2.084  11.813 -0.1530  0.3009 -0.3025
 5200TIP3    H137015   1.464   2.060  11.877 -0.4139 -0.2628 -0.7831
 5200TIP3    H237016   1.610   2.100  11.866 -0.3469 -0.2335  0.1507
 5201TIP3   OH237017   3.815   2.802  14.111 -0.2048 -0.8499  0.3134
 5201TIP3    H137018   3.798   2.860  14.037  0.8850 -1.0196 -0.0738
 5201TIP3    H237019   3.811   2.714  14.074 -0.7553 -0.9849  0.6835
 5202TIP3   OH237020   1.699   6.691   0.803  0.1292 -0.0416  0.8174
 5202TIP3    H137021   1.771   6.710   0.863  2.8726 -1.2287 -1.9388
 5202TIP3    H237022   1.697   6.595   0.798 -0.6440  0.0233 -0.2747
 5203TIP3   OH237023   5.550   5.729  17.084 -0.0097  0.9420 -0.0177
 5203TIP3    H137024   5.586   5.641  17.097  2.6951  1.7308 -1.8239
 5203TIP3    H237025   5.499   5.723  17.003 -2.5247  0.3005  1.5447
 5204TIP3   OH237026   5.851   5.748  16.442  0.1188 -0.2876  0.0389
 5204TIP3    H137027   5.871   5.836  16.474  0.7530 -0.0431 -1.0000
 5204TIP3    H237028   5.918   5.692  16.481 -0.1814 -0.2845  0.5640
 5205TIP3   OH237029   3.385   1.049  10.848  0.1110 -0.3348  0.4411
 5205TIP3    H137030   3.401   1.019  10.759 -0.9581 -0.0877  0.1551
 5205TIP3    H237031   3.472   1.054  10.888  0.8436  1.9466 -1.3426
 5206TIP3   OH237032   3.367   0.196   5.346  0.1130 -0.0648  0.1982
 5206TIP3    H137033   3.369   0.100   5.355  1.6771 -0.0279  0.4487
 5206TIP3    H237034   3.438   0.226   5.402  0.1110  1.2028 -0.4700
 5207TIP3   OH237035   2.075   4.800   2.789 -0.3793 -0.4189 -0.1221
 5207TIP3    H137036   2.087   4.876   2.846 -2.2021  0.2635 -0.6228
 5207TIP3    H237037   1.989   4.813   2.749  0.5163 -1.3220 -2.3971
 5208TIP3   OH237038   0.027   2.453   3.175  0.0486  0.1131 -0.5071
 5208TIP3    H137039  -0.041   2.480   3.236 -0.0389  0.0874 -0.5929
 5208TIP3    H237040   0.105   2.440   3.229 -0.3557 -1.1719 -0.2191
 5209TIP3   OH237041   3.404   6.183   0.872  0.3417  0.1675 -0.2291
 5209TIP3    H137042   3.440   6.117   0.932  1.3338 -0.0711 -1.0771
 5209TIP3    H237043   3.350   6.133   0.811  1.3375  0.0844 -1.0600
 5210TIP3   OH237044   0.905   2.953   0.035 -0.2854  0.8586 -0.1470
 5210TIP3    H137045   0.948   2.873   0.004  0.5286  1.5678 -0.8789
 5210TIP3    H237046   0.857   2.926   0.113 -0.5232 -0.4751 -0.7511
 5211TIP3   OH237047   3.634   3.055  14.573 -0.3747  0.0135  0.2324
 5211TIP3    H137048   3.595   2.972  14.602 -0.0773  0.2137  1.2300
 5211TIP3    H237049   3.668   3.036  14.486 -2.0874 -0.3624 -0.3674
 5212TIP3   OH237050   4.231   2.592  16.056 -0.4782  0.3080  0.5586
 5212TIP3    H137051   4.177   2.530  16.104 -0.4913 -0.8062 -0.8713
 5212TIP3    H237052   4.270   2.541  15.985  0.0308  1.7802 -0.2509
 5213TIP3   OH237053   3.394   4.558   3.626  0.1256  0.2184  0.5051
 5213TIP3    H137054   3.418   4.467   3.643 -1.5475  0.2052  3.1659
 5213TIP3    H237055   3.429   4.606   3.701 -2.3430  1.1491  1.1148
 5214TIP3   OH237056   5.276   4.187  12.805  0.4095  0.2243 -0.1931
 5214TIP3    H137057   5.355   4.134  12.795  0.0161 -0.4518  0.2881
 5214TIP3    H237058   5.282   4.253  12.735  0.7846 -0.5999 -0.9371
 5215TIP3   OH237059   2.787   3.370   5.388 -0.6914 -0.4236 -0.4800
 5215TIP3    H137060   2.831   3.447   5.425 -0.9803 -0.7699  0.5953
 5215TIP3    H237061   2.814   3.369   5.297  1.4773 -0.5819  0.1384
 5216TIP3   OH237062   1.737   2.219  15.244  0.3614  0.2598  0.1899
 5216TIP3    H137063   1.728   2.150  15.309 -3.7080  1.2531  0.8554
 5216TIP3    H237064   1.758   2.297  15.296  1.2062  0.2644 -0.1538
 5217TIP3   OH237065   2.228   5.022  12.077  0.5999 -0.0049 -0.3942
 5217TIP3    H137066   2.204   4.943  12.027 -1.1982 -0.1352  0.6071
 5217TIP3    H237067   2.271   4.988  12.155 -0.1084 -0.0145  0.0019
 5218TIP3   OH237068   0.705   6.658   5.021 -0.6519 -0.2875 -0.0875
 5218TIP3    H137069   0.633   6.609   4.980 -0.0679 -1.3075  0.1018
 5218TIP3    H237070   0.661   6.725   5.074 -1.5041 -1.7146  1.0560
 5219TIP3   OH237071   0.249   5.070   6.146 -0.8204  0.2884  0.5244
 5219TIP3    H137072   0.296   5.149   6.118 -0.5748  0.0573  0.2939
 5219TIP3    H237073   0.222   5.090   6.236 -0.3488  0.4519  0.6322
 5220TIP3   OH237074   6.722   4.816  12.748  0.2201 -0.4041  0.4995
 5220TIP3    H137075   6.690   4.906  12.744 -0.9363 -0.8899 -2.4790
 5220TIP3    H237076   6.727   4.796  12.841 -1.1466  2.1668  1.1642
 5221TIP3   OH237077   5.981   1.325  13.779 -0.0985 -0.6739  0.3318
 5221TIP3    H137078   5.997   1.263  13.851  0.6454  1.4979  2.0936
 5221TIP3    H237079   5.898   1.366  13.800  0.0653 -0.1040 -0.1083
 5222TIP3   OH237080   1.026   0.350   0.948  0.0932  0.5940  0.3664
 5222TIP3    H137081   1.101   0.374   0.893 -1.6654  0.5095 -2.1104
 5222TIP3    H237082   0.950   0.390   0.905 -1.2369  1.2041  3.1918
 5223TIP3   OH237083   5.338   3.119  12.727 -0.1757  0.0832  0.6973
 5223TIP3    H137084   5.263   3.064  12.751  0.5517 -0.8972  0.7594
 5223TIP3    H237085   5.345   3.109  12.632 -1.2531  1.6549  0.4202
 5224TIP3   OH237086   2.837   5.788  15.148  0.3674  0.2757 -0.6471
 5224TIP3    H137087   2.864   5.856  15.209 -1.2214 -0.2986  0.7132
 5224TIP3    H237088   2.866   5.707  15.188 -1.1874 -0.1493 -0.3818
 5225TIP3   OH237089   4.751   4.994   1.100 -0.4941 -0.2665  0.2556
 5225TIP3    H137090   4.680   5.057   1.109  0.2502  0.5326  0.6765
 5225TIP3    H237091   4.818   5.040   1.050 -0.4292 -1.1542 -0.4899
 5226TIP3   OH237092   1.354   2.651   0.203 -0.0335  0.0674  0.6968
 5226TIP3    H137093   1.421   2.661   0.135 -0.3963 -0.2755  0.2796
 5226TIP3    H237094   1.373   2.565   0.242 -0.5844 -0.2934  0.1785
 5227TIP3   OH237095   3.812   5.794   5.971  0.4106  0.4647  0.3223
 5227TIP3    H137096   3.827   5.879   6.014  0.1782  0.0119  1.3131
 5227TIP3    H237097   3.830   5.730   6.040 -2.5847 -0.2169  0.5379
 5228TIP3   OH237098   5.844   4.264   0.029 -0.1488  0.4212  0.0264
 5228TIP3    H137099   5.803   4.228  -0.050 -1.2570 -0.7557  1.1127
 5228TIP3    H237100   5.937   4.263   0.010 -0.3401 -0.6811 -0.9392
 5229TIP3   OH237101   0.287   6.330  12.170  0.5412  0.4213 -0.4956
 5229TIP3    H137102   0.309   6.405  12.114  0.4757  0.6076 -0.2706
 5229TIP3    H237103   0.247   6.267  12.110  2.8075 -0.4375 -1.1617
 5230TIP3   OH237104   0.609   3.129   4.377  0.0445 -0.0579  0.3016
 5230TIP3    H137105   0.543   3.157   4.442 -0.5509  0.9219 -0.7102
 5230TIP3    H237106   0.567   3.146   4.293  1.5100  0.3569 -0.3507
 5231TIP3   OH237107   4.909   6.748  15.022  0.0984 -0.2318  0.1328
 5231TIP3    H137108   4.981   6.767  14.961 -1.0188  0.3152 -1.0557
 5231TIP3    H237109   4.931   6.662  15.058  1.9290  0.4261  0.6776
 5232TIP3   OH237110   5.071   2.502   1.886 -0.0505 -0.2700  0.0522
 5232TIP3    H137111   5.141   2.533   1.943 -0.6821  0.3469  0.5005
 5232TIP3    H237112   5.047   2.417   1.922 -0.8971  0.4118  1.1062
 5233TIP3   OH237113   5.167   6.267  14.777  0.1947  0.5006 -0.4227
 5233TIP3    H137114   5.111   6.337  14.744 -1.1862  0.0434  0.8762
 5233TIP3    H237115   5.123   6.186  14.753  1.4318  0.0702 -1.3083
 5234TIP3   OH237116   3.683   0.042  15.660 -0.5215  0.6802  0.5241
 5234TIP3    H137117   3.726   0.064  15.742 -2.5082  0.5723  1.6260
 5234TIP3    H237118   3.710  -0.048  15.642 -0.5291  0.5208  1.3318
 5235TIP3   OH237119   2.533   5.506  11.023 -0.2986 -0.5248  0.7319
 5235TIP3    H137120   2.510   5.430  10.969 -0.7324 -1.0328  1.6336
 5235TIP3    H237121   2.629   5.502  11.030  0.0377  0.9807 -2.1030
 5236TIP3   OH237122   0.059   4.841  13.661 -0.5832  0.7175 -0.6066
 5236TIP3    H137123   0.142   4.794  13.670 -1.6892 -1.1731  0.0519
 5236TIP3    H237124  -0.003   4.774  13.632 -3.0836  0.7722  4.1618
 5237TIP3   OH237125   1.330   0.064  12.721 -0.6490 -0.2883 -0.9583
 5237TIP3    H137126   1.237   0.085  12.729 -0.6079 -0.9401  2.2164
 5237TIP3    H237127   1.365   0.130  12.662 -3.0710  0.1242 -2.0017
 5238TIP3   OH237128   5.363   6.113   2.760 -0.2643  0.2461 -0.4234
 5238TIP3    H137129   5.419   6.048   2.717  0.0085  0.2476 -0.0669
 5238TIP3    H237130   5.350   6.078   2.848 -0.3892  0.5124 -0.3375
 5239TIP3   OH237131   4.703   1.135  11.809  0.4076  0.1272 -0.0481
 5239TIP3    H137132   4.638   1.145  11.878 -0.6569  3.3456 -1.4222
 5239TIP3    H237133   4.661   1.079  11.744  0.1731 -0.2233  0.3968
 5240TIP3   OH237134   0.203   5.751   2.745 -0.2608  0.3649  0.4730
 5240TIP3    H137135   0.147   5.794   2.810 -0.5691  0.8408 -0.1041
 5240TIP3    H237136   0.142   5.711   2.684  0.0252  0.8909 -0.1662
 5241TIP3   OH237137   2.158   6.722  13.418 -0.6055  0.0908 -0.1910
 5241TIP3    H137138   2.253   6.714  13.417 -0.5341  0.8593 -0.1528
 5241TIP3    H237139   2.140   6.801  13.367 -1.2666 -0.4440 -0.7917
 5242TIP3   OH237140   5.663   5.029   6.098  0.5063  0.0229  0.1628
 5242TIP3    H137141   5.670   5.122   6.122  0.3931 -0.2374  1.2138
 5242TIP3    H237142   5.748   4.992   6.122  0.5100 -0.1683 -0.1452
 5243TIP3   OH237143   6.525   4.434   1.416  0.2331 -0.6220 -0.0557
 5243TIP3    H137144   6.544   4.342   1.435  1.4598 -0.1354  1.1611
 5243TIP3    H237145   6.473   4.464   1.492 -0.0243 -0.2672 -0.3676
 5244TIP3   OH237146   1.435   1.442   2.749 -0.1323 -0.1123 -0.5605
 5244TIP3    H137147   1.435   1.367   2.689 -2.6620 -0.1408 -0.5605
 5244TIP3    H237148   1.404   1.407   2.832 -0.3870  0.7158 -0.2992
 5245TIP3   OH237149   4.887   5.432   1.866 -0.8644  0.0340  0.2999
 5245TIP3    H137150   4.871   5.493   1.937 -2.4295 -0.8139  0.6894
 5245TIP3    H237151   4.849   5.473   1.789  1.2115  1.1488 -0.1481
 5246TIP3   OH237152   1.834   0.957  12.963 -0.4522  0.3452 -0.4641
 5246TIP3    H137153   1.811   1.038  13.008 -0.4401 -0.7947  1.6563
 5246TIP3    H237154   1.910   0.980  12.910  0.1322  1.5000  0.8341
 5247TIP3   OH237155   4.427   0.119  15.152 -0.1155 -0.2311 -0.4544
 5247TIP3    H137156   4.460   0.167  15.228 -0.8125 -1.5324  0.6787
 5247TIP3    H237157   4.414   0.187  15.085 -3.2603  1.5622  1.8472
 5248TIP3   OH237158   5.022   3.712   2.375  0.0492  0.3871  0.5264
 5248TIP3    H137159   5.054   3.666   2.453 -0.9673  0.1072  0.7810
 5248TIP3    H237160   5.055   3.660   2.301 -0.6470 -0.4639  0.8071
 5249TIP3   OH237161   4.587   1.795   5.823 -0.1073  0.5806  0.0576
 5249TIP3    H137162   4.559   1.704   5.830 -0.3711  0.6054 -0.6152
 5249TIP3    H237163   4.508   1.847   5.836 -0.2708  0.6659 -1.2373
 5250TIP3   OH237164   5.458   5.518   1.971 -0.6079 -0.0340 -0.0412
 5250TIP3    H137165   5.511   5.486   2.044  1.0293  1.5137 -0.4869
 5250TIP3    H237166   5.463   5.449   1.905  0.5516 -0.0990  0.0982
 5251TIP3   OH237167   2.433   0.709   3.179  0.1139 -0.1105  0.4553
 5251TIP3    H137168   2.478   0.642   3.127 -0.4957  0.2572 -0.5778
 5251TIP3    H237169   2.482   0.713   3.261  0.2519 -1.7099  0.4699
 5252TIP3   OH237170   1.564   6.434  15.105 -0.0473 -0.3037  0.1500
 5252TIP3    H137171   1.598   6.352  15.140  0.0537 -0.8971 -1.2799
 5252TIP3    H237172   1.497   6.407  15.042  0.2255  0.7005 -0.5832
 5253TIP3   OH237173   0.914   5.484   4.709  0.0284  0.4061  0.6486
 5253TIP3    H137174   0.960   5.488   4.793  1.4659  0.9553 -0.1312
 5253TIP3    H237175   0.889   5.392   4.699  0.4448  0.2104  1.3683
 5254TIP3   OH237176   4.298   6.379  16.173 -0.1305 -0.4914  0.0288
 5254TIP3    H137177   4.334   6.359  16.259  0.9293 -2.1660 -0.7820
 5254TIP3    H237178   4.204   6.364  16.183 -0.1700  0.3853  1.1635
 5255TIP3   OH237179   4.087   1.132  15.667  0.3294  0.3856  0.0809
 5255TIP3    H137180   4.148   1.199  15.635  0.1119  0.8018  0.5307
 5255TIP3    H237181   4.050   1.169  15.747 -0.2625 -0.0126 -0.0034
 5256TIP3   OH237182   6.177   6.688  15.490  0.0625 -0.4567  0.2783
 5256TIP3    H137183   6.169   6.667  15.583 -2.8720 -0.7906  0.0062
 5256TIP3    H237184   6.093   6.727  15.467  1.4095  1.3641 -1.8304
 5257TIP3   OH237185   4.816   1.421   5.889 -0.3504  0.7622  0.0101
 5257TIP3    H137186   4.754   1.477   5.935 -0.5103  1.1386 -0.6524
 5257TIP3    H237187   4.866   1.481   5.833  1.8994  0.7119  1.9130
 5258TIP3   OH237188   2.531   0.832   0.429 -0.0712  0.2025 -0.1319
 5258TIP3    H137189   2.555   0.745   0.462 -0.6022  0.4116  0.8274
 5258TIP3    H237190   2.455   0.817   0.373  0.6920 -0.1264 -1.0872
 5259TIP3   OH237191   1.887   3.779  13.084 -0.4181  0.4464 -0.3321
 5259TIP3    H137192   1.940   3.848  13.045 -1.4713  1.0175 -0.7587
 5259TIP3    H237193   1.808   3.775  13.030 -1.1233  0.0778  0.7021
 5260TIP3   OH237194   2.938   4.491  12.041  0.5041 -0.3203 -0.1154
 5260TIP3    H137195   3.006   4.480  12.107  0.9546 -2.3434 -0.8537
 5260TIP3    H237196   2.886   4.410  12.047  0.1640 -0.2396 -1.7723
 5261TIP3   OH237197   0.436   4.949  13.224  0.5835 -0.5561  0.3056
 5261TIP3    H137198   0.388   4.909  13.151  0.6207 -1.1254  0.5897
 5261TIP3    H237199   0.465   4.875  13.277 -0.0365 -0.1129  1.2719
 5262TIP3   OH237200   1.849   6.652   3.241 -0.0442  0.6826 -0.4076
 5262TIP3    H137201   1.821   6.726   3.187 -0.8051  0.9967  0.4125
 5262TIP3    H237202   1.803   6.663   3.324 -1.0446 -1.2973 -0.6539
 5263TIP3   OH237203   4.480   4.306  16.420 -0.2982  0.0560 -0.2026
 5263TIP3    H137204   4.542   4.257  16.366  0.9433  2.1389 -0.7003
 5263TIP3    H237205   4.530   4.328  16.499 -1.5173 -1.2914  0.9828
 5264TIP3   OH237206   5.277   4.979   5.823  0.4725 -0.2225  0.1747
 5264TIP3    H137207   5.361   4.960   5.863  0.6465 -0.5285 -0.3277
 5264TIP3    H237208   5.275   4.925   5.743 -0.1287 -0.1047  0.1008
 5265TIP3   OH237209   1.495   0.808  17.143  0.3952 -0.4259  0.8407
 5265TIP3    H137210   1.470   0.864  17.070  1.1566 -0.9611  0.1603
 5265TIP3    H237211   1.478   0.861  17.221 -3.9164 -1.1586  0.5071
 5266TIP3   OH237212   1.397   1.048  12.612 -0.5504 -0.4116 -0.9204
 5266TIP3    H137213   1.364   0.961  12.634 -1.4903  0.1299 -0.1701
 5266TIP3    H237214   1.333   1.083  12.550 -2.5739  1.4630  2.1302
 5267TIP3   OH237215   2.810   0.074   3.242  0.2130 -0.0559  0.2068
 5267TIP3    H137216   2.765   0.129   3.306  0.5367 -0.3486  0.6942
 5267TIP3    H237217   2.819   0.129   3.164 -0.7443  0.0889  0.1944
 5268TIP3   OH237218   0.503   5.194  13.490  0.1689 -0.3756  0.2588
 5268TIP3    H137219   0.518   5.194  13.584  1.7516 -0.5596  0.0165
 5268TIP3    H237220   0.409   5.180  13.481 -0.1552  0.7070  1.8285
 5269TIP3   OH237221   3.059   2.816  15.685 -0.3695  0.0347  0.0965
 5269TIP3    H137222   3.080   2.837  15.594 -1.5967  2.0380  0.2302
 5269TIP3    H237223   2.996   2.744  15.680 -0.7526  0.4161 -0.6635
 5270TIP3   OH237224   2.676   2.178   2.096 -0.3731 -0.0889  0.2228
 5270TIP3    H137225   2.707   2.192   2.007  0.3231 -0.5353  0.3907
 5270TIP3    H237226   2.589   2.139   2.085  0.1220 -1.0833 -0.2798
 5271TIP3   OH237227   0.725   3.962   0.185 -0.4148  0.0453 -0.2845
 5271TIP3    H137228   0.641   3.922   0.164  0.2763 -1.7624  0.3099
 5271TIP3    H237229   0.782   3.939   0.112 -0.1644  0.4280 -0.2137
 5272TIP3   OH237230   3.832   6.165  12.209 -0.9176  0.2651 -0.5707
 5272TIP3    H137231   3.856   6.092  12.266  0.4209 -0.6446 -2.2456
 5272TIP3    H237232   3.809   6.124  12.125  0.5699  1.7953 -1.7680
 5273TIP3   OH237233   0.021   0.463   3.047 -0.3180  0.2604 -0.1320
 5273TIP3    H137234   0.003   0.532   2.983 -0.3579 -0.3446 -0.7712
 5273TIP3    H237235  -0.025   0.492   3.126  0.4250  1.4232 -0.1117
 5274TIP3   OH237236   2.605   5.454   6.270  0.0868  0.1640  0.5400
 5274TIP3    H137237   2.526   5.505   6.254  0.1893  0.0660 -0.2790
 5274TIP3    H237238   2.588   5.369   6.228  0.6645  0.1770  0.2695
 5275TIP3   OH237239   0.090   6.108   2.148 -0.6407  0.0218  0.2019
 5275TIP3    H137240   0.035   6.121   2.225  1.1996 -0.4574  1.6378
 5275TIP3    H237241   0.028   6.092   2.077 -2.3759  0.5557  1.5496
 5276TIP3   OH237242   3.519   1.472  12.169  0.0181  0.5080 -0.1000
 5276TIP3    H137243   3.581   1.484  12.241 -0.7089 -0.4734  0.7053
 5276TIP3    H237244   3.510   1.377  12.161 -0.9082  0.6392 -0.6151
 5277TIP3   OH237245   5.355   1.016  16.729 -0.2731  0.4794 -0.0968
 5277TIP3    H137246   5.387   1.091  16.679  0.2703  0.9005  0.8687
 5277TIP3    H237247   5.406   1.018  16.810 -1.0917 -0.2440  0.4381
 5278TIP3   OH237248   6.709   0.883   4.818  0.4049 -0.2871  0.2521
 5278TIP3    H137249   6.688   0.851   4.906  0.7674 -1.4282 -0.0719
 5278TIP3    H237250   6.752   0.809   4.775  1.4447  0.7210 -0.4428
 5279TIP3   OH237251   1.866   0.473   1.872 -0.1488  0.0033 -0.7979
 5279TIP3    H137252   1.811   0.513   1.939 -0.2220  2.3777 -2.2478
 5279TIP3    H237253   1.836   0.382   1.869 -0.9198  0.1387  1.5608
 5280TIP3   OH237254   4.584   0.618   4.342 -0.1367 -0.0339 -0.7119
 5280TIP3    H137255   4.618   0.687   4.399 -0.0937  0.2622 -1.0985
 5280TIP3    H237256   4.492   0.609   4.367  0.0313 -0.3284 -0.1740
 5281TIP3   OH237257   1.692   2.853   2.104  0.0487 -0.4620 -0.3563
 5281TIP3    H137258   1.733   2.840   2.189 -1.0197  0.4576  0.3265
 5281TIP3    H237259   1.743   2.923   2.063 -1.0146  0.9487  0.6490
 5282TIP3   OH237260   2.709   3.834  14.239  0.7156  0.4018 -0.6572
 5282TIP3    H137261   2.686   3.922  14.267  0.9627  0.3588 -0.3243
 5282TIP3    H237262   2.731   3.787  14.319 -0.3368 -0.2408 -0.7260
 5283TIP3   OH237263   5.597   0.479   4.335 -0.2442 -0.5757 -0.1515
 5283TIP3    H137264   5.552   0.518   4.260  2.4048 -0.7336 -1.8573
 5283TIP3    H237265   5.689   0.500   4.322  0.2776 -0.5754  3.1026
 5284TIP3   OH237266   3.618   0.089   3.696  0.4569 -0.9298 -0.5210
 5284TIP3    H137267   3.586   0.179   3.688 -1.8894 -1.3505  3.0811
 5284TIP3    H237268   3.697   0.087   3.643  0.9926  3.4619 -0.0755
 5285TIP3   OH237269   4.178   1.166   1.229  0.8946 -0.2995  0.4489
 5285TIP3    H137270   4.169   1.200   1.140  1.0579  0.5875  0.7686
 5285TIP3    H237271   4.173   1.071   1.219 -3.6744 -0.1327 -0.0330
 5286TIP3   OH237272   6.160   0.880  16.186 -0.5337  0.1825 -0.4111
 5286TIP3    H137273   6.147   0.802  16.133  2.8895 -1.9272  1.7146
 5286TIP3    H237274   6.247   0.912  16.162 -0.7900  1.7791  0.6940
 5287TIP3   OH237275   1.829   3.231   0.323 -0.3029  0.2085  0.0832
 5287TIP3    H137276   1.807   3.323   0.313  0.0402  0.3655  0.7310
 5287TIP3    H237277   1.865   3.205   0.237  1.0721  1.0907  0.3806
 5288TIP3   OH237278   0.291   2.519   1.131 -0.3482  0.5630  0.1576
 5288TIP3    H137279   0.386   2.526   1.138 -0.1317 -0.1496 -1.7679
 5288TIP3    H237280   0.258   2.549   1.216  1.5793  0.9817  0.7751
 5289TIP3   OH237281   4.727   3.608   0.636 -0.0312 -0.3579  0.1774
 5289TIP3    H137282   4.657   3.566   0.587 -1.2661 -0.3541  1.8994
 5289TIP3    H237283   4.801   3.547   0.629 -0.5130 -0.8242 -0.8262
 5290TIP3   OH237284   3.331   4.440   5.348 -0.5703 -0.1658 -0.7022
 5290TIP3    H137285   3.248   4.397   5.328 -1.4588  1.0156  0.3258
 5290TIP3    H237286   3.390   4.413   5.278 -1.5551 -1.7683 -0.9290
 5291TIP3   OH237287   2.433   2.784  11.685 -0.5299 -0.1841 -0.4016
 5291TIP3    H137288   2.504   2.721  11.679  0.2223  0.7782 -1.9757
 5291TIP3    H237289   2.354   2.734  11.668  0.1019 -0.6321 -2.0839
 5292TIP3   OH237290   5.887   2.166   1.815 -0.2105 -0.6904  0.2659
 5292TIP3    H137291   5.805   2.164   1.765  0.6253 -2.0503 -1.0618
 5292TIP3    H237292   5.890   2.255   1.851 -1.5673 -0.1745 -0.8224
 5293TIP3   OH237293   1.451   2.198   1.815  0.0305  0.4851  0.4128
 5293TIP3    H137294   1.535   2.168   1.782 -0.7613 -0.9684 -0.3276
 5293TIP3    H237295   1.467   2.220   1.907  1.4205  1.1273  0.0356
 5294TIP3   OH237296   0.924   1.175   6.028  0.1255  0.2787 -0.0541
 5294TIP3    H137297   0.965   1.226   6.098  1.3007 -1.7401  0.7431
 5294TIP3    H237298   0.838   1.215   6.018  0.5740  1.6828  1.3498
 5295TIP3   OH237299   5.074   2.343   5.541 -0.4369 -0.2161  0.5747
 5295TIP3    H137300   5.165   2.320   5.521  0.0629  0.1512  2.4153
 5295TIP3    H237301   5.046   2.394   5.465  0.7575 -0.6954 -0.2066
 5296TIP3   OH237302   6.005   2.586  16.285 -0.2036  0.8239  0.0647
 5296TIP3    H137303   6.022   2.496  16.313 -0.2886  0.4216 -1.1389
 5296TIP3    H237304   6.087   2.614  16.245 -0.7843  0.5987 -1.3136
 5297TIP3   OH237305   6.450   5.821  10.746  0.0585  0.0098 -0.0635
 5297TIP3    H137306   6.408   5.741  10.714 -2.3911  1.7812 -1.4065
 5297TIP3    H237307   6.379   5.872  10.785  1.4500  1.8802  0.0882
 5298TIP3   OH237308   5.078   1.528   2.670  0.4277 -0.3425  0.9207
 5298TIP3    H137309   5.100   1.621   2.657 -1.3126 -0.0324  0.0046
 5298TIP3    H237310   4.989   1.520   2.635  0.6216 -2.3957  0.8630
 5299TIP3   OH237311   6.325   1.777  13.817 -0.0851 -0.3581  0.0409
 5299TIP3    H137312   6.230   1.786  13.817 -0.0831 -0.3102  0.8232
 5299TIP3    H237313   6.341   1.683  13.825 -0.0791 -0.0951  4.5305
 5300TIP3   OH237314   2.137   4.278   2.323  0.3938  0.2175  1.3523
 5300TIP3    H137315   2.230   4.265   2.306  0.4589  2.0352  0.1452
 5300TIP3    H237316   2.133   4.361   2.371 -0.6157  0.3168  1.1105
 5301TIP3   OH237317   6.452   3.931   2.543 -0.2430 -0.0164 -0.0379
 5301TIP3    H137318   6.434   3.838   2.557 -0.0510  0.2130  1.8489
 5301TIP3    H237319   6.381   3.961   2.485 -2.6969 -0.4373  2.6182
 5302TIP3   OH237320   6.494   1.908   5.554 -0.1951 -0.0301  0.6198
 5302TIP3    H137321   6.503   1.881   5.646  0.5660  1.1670  0.8915
 5302TIP3    H237322   6.579   1.889   5.515  0.6911  2.8459  1.0465
 5303TIP3   OH237323   1.807   0.366  12.013  0.3396  0.6630 -0.0690
 5303TIP3    H137324   1.825   0.407  12.097  1.4885  0.4443 -0.2041
 5303TIP3    H237325   1.849   0.280  12.019 -0.6403  0.1505 -0.4018
 5304TIP3   OH237326   6.686   4.566  11.113  0.1816 -0.0254  0.3449
 5304TIP3    H137327   6.747   4.555  11.040  1.3783 -1.5625  1.5254
 5304TIP3    H237328   6.664   4.477  11.140 -0.1331  0.5108  1.9415
 5305TIP3   OH237329   1.164   0.958  14.137 -0.4472 -0.1817 -0.9264
 5305TIP3    H137330   1.240   0.951  14.079  0.5443 -1.2017  0.4446
 5305TIP3    H237331   1.147   1.052  14.143  1.9864  0.2351  0.3036
 5306TIP3   OH237332   5.565   2.633  11.695 -0.5004 -0.4516  0.1092
 5306TIP3    H137333   5.473   2.620  11.674 -0.8049 -0.6380  1.5096
 5306TIP3    H237334   5.597   2.546  11.718 -0.0120 -0.3546 -0.1804
 5307TIP3   OH237335   5.688   2.253  14.287  0.4294 -0.7242  0.0711
 5307TIP3    H137336   5.680   2.328  14.346  1.0222 -0.8678  0.3402
 5307TIP3    H237337   5.662   2.178  14.340 -1.5591 -0.5470 -0.6179
 5308TIP3   OH237338   6.098   4.186   3.981  0.3035  0.8734 -0.5858
 5308TIP3    H137339   6.155   4.231   4.043 -0.5912  0.7744  0.3247
 5308TIP3    H237340   6.044   4.256   3.944 -0.3317  0.7033  0.0133
 5309TIP3   OH237341   4.636   5.130   6.055 -0.5105 -0.3558 -0.1907
 5309TIP3    H137342   4.555   5.181   6.047 -0.2728 -0.2120 -1.8100
 5309TIP3    H237343   4.626   5.081   6.136 -1.1471  1.5871  0.9309
 5310TIP3   OH237344   3.810   2.640   2.350 -0.9692  0.5298  0.0920
 5310TIP3    H137345   3.854   2.717   2.385  2.5509 -1.0104 -0.6865
 5310TIP3    H237346   3.838   2.636   2.258 -2.2615 -0.8376 -0.2615
 5311TIP3   OH237347   4.511   4.455   3.499 -0.7348 -0.3164  0.0860
 5311TIP3    H137348   4.497   4.368   3.461  2.2515 -0.6596 -0.3638
 5311TIP3    H237349   4.505   4.442   3.594 -0.1035 -1.0746  0.0257
 5312TIP3   OH237350   4.193   6.448  11.822  0.1530 -0.7100  0.0369
 5312TIP3    H137351   4.130   6.502  11.869 -0.0155  0.7863 -1.8441
 5312TIP3    H237352   4.277   6.466  11.865 -0.2999 -0.8315  0.9798
 5313TIP3   OH237353   1.541   1.648  13.147  0.1091  0.0279 -0.1846
 5313TIP3    H137354   1.542   1.558  13.113  1.6215  0.7717 -2.2121
 5313TIP3    H237355   1.623   1.657  13.195 -0.6386 -0.0579  1.1391
 5314TIP3   OH237356   1.954   5.705   3.053  0.0260 -0.6464 -0.1637
 5314TIP3    H137357   1.989   5.625   3.013  1.7072 -0.2694  0.5036
 5314TIP3    H237358   1.908   5.674   3.131 -0.1340 -1.0493 -0.4131
 5315TIP3   OH237359   6.191   0.354   1.936 -0.1159 -0.4951  0.1658
 5315TIP3    H137360   6.245   0.338   1.858  1.6415  0.5510  1.1311
 5315TIP3    H237361   6.228   0.433   1.974 -1.3441 -0.6700  1.7530
 5316TIP3   OH237362   3.924   4.845  14.848 -0.0222  0.2295  0.9624
 5316TIP3    H137363   3.841   4.801  14.868  0.3545 -0.1912  1.6358
 5316TIP3    H237364   3.917   4.872  14.757 -0.5033 -0.6777  0.7373
 5317TIP3   OH237365   3.527   2.873  11.747  0.1855 -0.0323  0.0448
 5317TIP3    H137366   3.580   2.799  11.719  0.2297 -0.1250  0.3708
 5317TIP3    H237367   3.560   2.894  11.834 -2.0683 -1.7590  1.3662
 5318TIP3   OH237368   0.713   0.390  16.383 -0.6235  0.1078 -0.2422
 5318TIP3    H137369   0.712   0.480  16.350 -0.3111  0.1525 -0.1334
 5318TIP3    H237370   0.655   0.392  16.459 -1.4504 -0.0286 -0.8664
 5319TIP3   OH237371   3.766   4.282  12.008  0.1318 -0.4431  0.9030
 5319TIP3    H137372   3.704   4.222  11.966 -1.5600  1.4494  0.6281
 5319TIP3    H237373   3.848   4.269  11.960 -0.8331 -0.8299 -0.6800
 5320TIP3   OH237374   2.371   0.781  12.876 -0.1579  0.5998  0.3726
 5320TIP3    H137375   2.371   0.807  12.784 -0.2077 -0.0832  0.1695
 5320TIP3    H237376   2.386   0.686  12.874 -0.0895  0.5904  1.0701
 5321TIP3   OH237377   1.242   5.283   4.470 -0.2794 -0.1399 -0.4414
 5321TIP3    H137378   1.239   5.241   4.384 -2.3836 -1.5794  0.2875
 5321TIP3    H237379   1.195   5.365   4.458  1.3253  0.6858 -1.1786
 5322TIP3   OH237380   6.088   3.668   5.011 -0.1109 -0.0196 -0.1228
 5322TIP3    H137381   6.043   3.742   5.051 -0.0698 -0.3079  0.4532
 5322TIP3    H237382   6.144   3.633   5.080  0.5599 -0.0234 -0.6642
 5323TIP3   OH237383   3.935   4.631  11.542  0.2965  0.0507  0.2929
 5323TIP3    H137384   3.932   4.552  11.488 -0.6497 -1.1833  2.0852
 5323TIP3    H237385   3.954   4.702  11.481  0.3620 -1.4578 -1.4648
 5324TIP3   OH237386   1.236   5.316   1.213  0.0143  0.0236 -0.4763
 5324TIP3    H137387   1.323   5.276   1.221  1.3275  2.7963 -0.2161
 5324TIP3    H237388   1.250   5.390   1.154 -1.9628  1.1598  0.4556
 5325TIP3   OH237389   2.801   5.231  15.632  0.1280  0.0393 -0.1458
 5325TIP3    H137390   2.884   5.279  15.622  1.1400 -1.5360  0.5049
 5325TIP3    H237391   2.754   5.280  15.699  1.6368 -0.4619  1.3332
 5326TIP3   OH237392   3.440   1.501   4.969  0.5583  1.2819  0.5146
 5326TIP3    H137393   3.349   1.472   4.958  0.6619  0.6830  1.1393
 5326TIP3    H237394   3.433   1.595   4.986  0.2324  1.7085 -1.8164
 5327TIP3   OH237395   6.445   0.445   0.211 -0.0517  0.3527 -0.0156
 5327TIP3    H137396   6.402   0.446   0.125  2.2883  1.0987 -1.2155
 5327TIP3    H237397   6.491   0.361   0.214 -0.2291  0.2778  0.5473
 5328TIP3   OH237398   3.850   1.195  15.141  0.7617  0.3409  0.0652
 5328TIP3    H137399   3.767   1.160  15.108 -0.0750  0.7036  1.7051
 5328TIP3    H237400   3.862   1.278  15.094 -0.6119  1.0466  0.9264
 5329TIP3   OH237401   5.023   5.385  13.457 -0.6608  0.2133  0.3590
 5329TIP3    H137402   5.027   5.394  13.552 -1.3049 -0.3895  0.4538
 5329TIP3    H237403   4.949   5.440  13.431 -2.3475 -1.8616  0.5531
 5330TIP3   OH237404   5.183   6.697  15.197 -0.3069 -0.0212 -0.3016
 5330TIP3    H137405   5.132   6.755  15.253  0.9541  1.4756 -0.6773
 5330TIP3    H237406   5.118   6.656  15.140 -1.2871  0.5100  0.4141
 5331TIP3   OH237407   0.790   1.841   1.974  0.3845 -0.8731 -0.3710
 5331TIP3    H137408   0.728   1.800   1.913 -0.3946 -2.1578  1.2176
 5331TIP3    H237409   0.740   1.848   2.056  0.5957  3.0704 -0.5151
 5332TIP3   OH237410   4.091   3.563   4.193  0.1147  0.4598  0.3523
 5332TIP3    H137411   4.069   3.573   4.286 -1.7827  0.0833 -0.0250
 5332TIP3    H237412   4.148   3.486   4.190 -0.3902  0.0463  1.1328
 5333TIP3   OH237413   0.376   4.534   0.857 -0.5230  0.0924  0.3114
 5333TIP3    H137414   0.418   4.511   0.774 -3.9643 -0.7691 -1.2838
 5333TIP3    H237415   0.356   4.627   0.848  2.2517  0.8670  1.6765
 5334TIP3   OH237416   6.705   2.237   2.854  0.4528 -0.3591  0.2455
 5334TIP3    H137417   6.653   2.161   2.825  1.1230 -1.3871  1.6840
 5334TIP3    H237418   6.737   2.212   2.941 -0.3320  2.0862  1.2631
 5335TIP3   OH237419   5.153   6.205  13.646  0.0921  0.2181 -0.0888
 5335TIP3    H137420   5.209   6.208  13.724  1.1574  0.3209 -0.8336
 5335TIP3    H237421   5.134   6.112  13.633 -0.0163  0.1943  0.2432
 5336TIP3   OH237422   5.402   3.635  16.680  0.3025  0.3906 -0.2337
 5336TIP3    H137423   5.464   3.600  16.616 -0.6176 -0.1148 -0.8625
 5336TIP3    H237424   5.416   3.729  16.678  0.5564  0.3432 -0.9029
 5337TIP3   OH237425   2.917   2.906  16.898 -0.4379 -0.1243 -0.1849
 5337TIP3    H137426   2.953   2.934  16.982  1.2006 -1.4306 -0.4291
 5337TIP3    H237427   2.826   2.884  16.917 -0.1605 -0.1305  1.1779
 5338TIP3   OH237428   0.183   1.213  16.779  0.3531 -0.2204  0.0253
 5338TIP3    H137429   0.147   1.279  16.838 -0.0936 -0.9192  0.5492
 5338TIP3    H237430   0.107   1.175  16.736  0.4494 -1.6314  1.0561
 5339TIP3   OH237431   0.009   6.464  16.136  0.3585  0.7986  0.5303
 5339TIP3    H137432   0.032   6.548  16.176 -1.8427  1.7176 -0.0480
 5339TIP3    H237433  -0.077   6.443  16.175  0.2672 -0.4944 -0.3654
 5340TIP3   OH237434   0.260   6.621   0.144  0.0133 -0.1766  0.5869
 5340TIP3    H137435   0.213   6.661   0.070  0.2891 -0.4719  0.2520
 5340TIP3    H237436   0.208   6.544   0.166  0.8677 -1.0421 -0.4107
 5341TIP3   OH237437   0.624   2.512  13.970 -0.0710  0.4019 -0.2520
 5341TIP3    H137438   0.593   2.586  13.919 -0.6462 -0.1226 -0.6739
 5341TIP3    H237439   0.713   2.535  13.996  0.4005  0.4570 -1.8969
 5342TIP3   OH237440   5.018   2.290   1.005 -0.3073 -0.5457  0.4065
 5342TIP3    H137441   5.042   2.317   1.094 -0.8576  0.6493  0.2014
 5342TIP3    H237442   5.096   2.306   0.953 -0.7303  0.9597  0.2260
 5343TIP3   OH237443   0.388   5.672  12.788  0.3462  0.0101 -0.2961
 5343TIP3    H137444   0.303   5.664  12.745  0.4922 -0.5618 -0.4778
 5343TIP3    H237445   0.445   5.612  12.740  0.5941 -0.3784  0.4766
 5344TIP3   OH237446   5.836   4.060  15.004  0.0502  0.4842 -0.4046
 5344TIP3    H137447   5.905   3.998  14.981 -0.5748 -0.1727 -0.5280
 5344TIP3    H237448   5.882   4.136  15.039  0.7438 -0.8225  1.6026
 5345TIP3   OH237449   1.352   6.443  16.203 -0.3866  0.0408 -1.2820
 5345TIP3    H137450   1.329   6.510  16.139  0.3392  0.6007 -0.9693
 5345TIP3    H237451   1.381   6.369  16.151 -1.5504 -0.1666 -1.6412
 5346TIP3   OH237452   2.603   3.117   0.586  0.8835  0.3340 -0.0274
 5346TIP3    H137453   2.672   3.166   0.542  1.0081 -0.7338 -1.0733
 5346TIP3    H237454   2.544   3.090   0.516 -0.4015  0.9112  0.8121
 5347TIP3   OH237455   1.151   1.700  11.303  0.3053  0.0523  0.5304
 5347TIP3    H137456   1.073   1.649  11.278  0.8763  0.1801 -1.6059
 5347TIP3    H237457   1.167   1.757  11.228  1.2812  1.4714  1.7991
 5348TIP3   OH237458   3.803   6.071  16.932  0.2127 -0.8061 -0.4569
 5348TIP3    H137459   3.796   6.143  16.995  0.5146 -1.4610  0.3344
 5348TIP3    H237460   3.734   6.010  16.957  1.6074 -2.0286  0.5037
 5349TIP3   OH237461   1.267   2.282   4.893  0.7088  0.2836  0.3509
 5349TIP3    H137462   1.239   2.278   4.802 -0.4587 -0.0248  0.7161
 5349TIP3    H237463   1.359   2.254   4.892  0.0897 -1.8136 -0.4606
 5350TIP3   OH237464   0.925   2.955   1.511  0.5680 -0.4174  0.0419
 5350TIP3    H137465   0.902   2.866   1.484  0.3006 -0.2364 -0.3410
 5350TIP3    H237466   0.957   2.996   1.431  0.5043 -0.1100  0.1758
 5351TIP3   OH237467   2.792   0.950  16.922 -0.0013 -0.1065  0.2862
 5351TIP3    H137468   2.877   0.986  16.896 -0.3704 -0.2869 -1.2140
 5351TIP3    H237469   2.807   0.856  16.930 -0.2631 -0.2572 -0.8804
 5352TIP3   OH237470   1.374   0.256  15.217  0.0883 -0.2130  0.5468
 5352TIP3    H137471   1.366   0.167  15.185 -0.1956 -0.0758  0.2274
 5352TIP3    H237472   1.291   0.297  15.195  0.6752  0.4787 -0.4013
 5353TIP3   OH237473   1.915   6.463  16.862  0.1266 -0.1125 -0.7474
 5353TIP3    H137474   1.989   6.408  16.890  0.2687  0.0950 -0.7171
 5353TIP3    H237475   1.864   6.476  16.942  0.8969  1.0483 -0.4257
 5354TIP3   OH237476   3.427   5.665   4.423  0.1619  0.1139 -0.1979
 5354TIP3    H137477   3.428   5.760   4.422 -0.7242  0.1452  0.7098
 5354TIP3    H237478   3.477   5.639   4.345  0.9880  1.3021 -0.0738
 5355TIP3   OH237479   0.906   3.593   1.559  0.6322  0.6951  0.3853
 5355TIP3    H137480   0.993   3.558   1.578  0.6379  0.1573 -0.6086
 5355TIP3    H237481   0.919   3.649   1.483  0.0965  0.6090  0.2291
 5356TIP3   OH237482   2.818   6.394   4.304  0.5102 -0.1345  0.3063
 5356TIP3    H137483   2.864   6.354   4.230  1.3882 -1.7857  1.7301
 5356TIP3    H237484   2.885   6.445   4.349  0.3426 -0.4498  0.9111
 5357TIP3   OH237485   6.743   2.397  14.760 -0.4985 -0.5438 -0.9855
 5357TIP3    H137486   6.712   2.439  14.679  0.0877 -0.3352 -1.1020
 5357TIP3    H237487   6.678   2.422  14.826  0.1953  1.1086 -0.9011
 5358TIP3   OH237488   6.515   4.898  13.568  0.3646  0.4024 -0.3018
 5358TIP3    H137489   6.564   4.972  13.533  1.1356  0.6307  1.2429
 5358TIP3    H237490   6.455   4.937  13.632 -1.1619  0.0056 -1.4387
 5359TIP3   OH237491   1.284   5.206  13.314 -0.3712  0.8426 -0.1338
 5359TIP3    H137492   1.228   5.212  13.391  0.3946  4.2946  0.2407
 5359TIP3    H237493   1.327   5.121  13.322 -3.4634 -0.6630  0.9854
 5360TIP3   OH237494   3.007   0.267   4.877 -0.1336 -0.0268  0.2658
 5360TIP3    H137495   3.059   0.280   4.957 -1.2359 -0.2241  1.0352
 5360TIP3    H237496   3.039   0.184   4.841  0.7849  0.3665  0.1828
 5361TIP3   OH237497   0.657   0.206   2.828  0.0513  0.3873  0.2940
 5361TIP3    H137498   0.697   0.121   2.847  0.4970  0.1213 -1.7666
 5361TIP3    H237499   0.640   0.244   2.915 -0.8112 -2.0785  1.2608
 5362TIP3   OH237500   4.577   3.285   4.782 -0.0828  0.5368  0.1454
 5362TIP3    H137501   4.559   3.348   4.711 -0.7093  0.7119  0.4521
 5362TIP3    H237502   4.498   3.231   4.785 -0.5261  1.2339  1.4408
 5363TIP3   OH237503   5.251   6.061   4.123  0.2595 -0.1195  0.5366
 5363TIP3    H137504   5.188   6.124   4.087 -0.4771 -0.7758  0.6590
 5363TIP3    H237505   5.200   5.980   4.134  1.4908 -1.1093 -0.7894
 5364TIP3   OH237506   4.801   6.158  16.625  0.4018 -0.2314  0.0331
 5364TIP3    H137507   4.767   6.096  16.690  0.0628 -0.8945 -0.7580
 5364TIP3    H237508   4.815   6.105  16.547 -0.7657  0.8582 -0.9422
 5365TIP3   OH237509   3.474   0.748   6.443  0.3425 -0.0459 -0.5210
 5365TIP3    H137510   3.462   0.671   6.499  1.4243 -0.3389 -0.6949
 5365TIP3    H237511   3.510   0.815   6.502 -2.1038  0.8587  0.0140
 5366TIP3   OH237512   3.916   3.814   3.921  0.1886 -0.3056 -0.3555
 5366TIP3    H137513   3.913   3.721   3.942  0.2189  0.3933  3.0237
 5366TIP3    H237514   3.829   3.847   3.945  1.1507  1.0723  1.2777
 5367TIP3   OH237515   1.453   6.064   0.736  0.7973 -0.2267  0.0271
 5367TIP3    H137516   1.387   6.028   0.795  0.8400  0.9102  0.7958
 5367TIP3    H237517   1.535   6.022   0.762  0.4477 -1.3687 -0.6906
 5368TIP3   OH237518   1.842   0.877   3.570  0.8252  0.1069  0.2908
 5368TIP3    H137519   1.832   0.790   3.607  0.7814  0.6759  1.6350
 5368TIP3    H237520   1.932   0.879   3.536  0.6605 -0.6208 -0.1889
 5369TIP3   OH237521   5.568   2.933   5.800  0.5034 -0.1162  0.0703
 5369TIP3    H137522   5.504   2.999   5.775  1.1514  0.6110  0.3074
 5369TIP3    H237523   5.604   2.901   5.717 -1.3055 -1.6849 -0.1317
 5370TIP3   OH237524   5.654   0.770   6.582 -0.1984  0.3626  0.6678
 5370TIP3    H137525   5.702   0.778   6.499 -0.2771  2.3091  0.7937
 5370TIP3    H237526   5.694   0.695   6.626  0.8535  0.2522 -0.4610
 5371TIP3   OH237527   0.154   6.712   6.417 -0.3406  0.1518 -0.5121
 5371TIP3    H137528   0.190   6.760   6.492 -3.7602 -0.0077  1.3355
 5371TIP3    H237529   0.208   6.633   6.411  0.4872  0.5559  1.2548
 5372TIP3   OH237530   1.998   3.649  11.323  0.4201 -0.6684  0.1045
 5372TIP3    H137531   2.048   3.570  11.303  1.1226  0.0149 -0.8763
 5372TIP3    H237532   2.013   3.706  11.248  1.2138  1.0458  1.5486
 5373TIP3   OH237533   5.920   0.258  16.776  0.6435 -0.7161 -0.5959
 5373TIP3    H137534   5.909   0.172  16.818  1.4985 -0.6060 -0.1405
 5373TIP3    H237535   5.844   0.266  16.719  0.5452 -1.7769 -0.6295
 5374TIP3   OH237536   0.697   2.832   0.208 -0.5608 -0.1300 -0.1462
 5374TIP3    H137537   0.709   2.833   0.303  2.1491  1.3721 -0.4525
 5374TIP3    H237538   0.624   2.891   0.193  0.3302  1.2627  0.8715
 5375TIP3   OH237539   1.704   2.459  11.966 -0.2538  0.2426 -0.0555
 5375TIP3    H137540   1.624   2.495  11.928 -0.1570 -0.2824 -0.7774
 5375TIP3    H237541   1.731   2.522  12.032 -0.8495  0.7945 -0.3429
 5376TIP3   OH237542   6.536   2.821  15.898  0.2920 -0.1165 -0.0522
 5376TIP3    H137543   6.532   2.752  15.964 -3.1917 -1.3958 -1.5463
 5376TIP3    H237544   6.502   2.899  15.943 -0.0745 -0.4749  0.2939
 5377TIP3   OH237545   1.372   4.420   3.695 -0.1134 -0.5524 -0.2883
 5377TIP3    H137546   1.361   4.458   3.782  2.5838 -1.6004  0.5791
 5377TIP3    H237547   1.371   4.325   3.711  2.2129 -0.7476 -1.0930
 5378TIP3   OH237548   5.573   1.471  11.042 -0.2430 -0.4488  0.6313
 5378TIP3    H137549   5.605   1.484  11.131 -0.7009  1.0912  0.5739
 5378TIP3    H237550   5.478   1.473  11.050 -0.2810  2.0073 -0.2178
 5379TIP3   OH237551   4.827   5.587  13.330  0.4025  0.0698 -0.5500
 5379TIP3    H137552   4.856   5.660  13.384 -0.6648  0.5136 -0.5462
 5379TIP3    H237553   4.732   5.599  13.324  0.0947 -1.8213  0.1904
 5380TIP3   OH237554   4.014   1.157  16.101  0.4563 -0.2203  0.3813
 5380TIP3    H137555   3.922   1.132  16.093  0.0349  0.7748  2.0174
 5380TIP3    H237556   4.031   1.212  16.024  0.1876 -1.8486 -0.8728
 5381TIP3   OH237557   1.200   4.532  16.021 -0.5130 -0.0273  0.8330
 5381TIP3    H137558   1.192   4.437  16.015 -1.6281  0.0734  0.5200
 5381TIP3    H237559   1.287   4.551  15.988 -0.5187 -0.8885  0.2934
 5382TIP3   OH237560   6.126   6.684   6.573 -0.0929  0.9594  0.1662
 5382TIP3    H137561   6.200   6.656   6.627 -1.1191  0.1341  1.1760
 5382TIP3    H237562   6.165   6.740   6.506  1.1941  2.1797  1.8729
 5383TIP3   OH237563   5.883   3.263   4.894 -0.2508 -0.0260  0.2111
 5383TIP3    H137564   5.835   3.282   4.974 -0.9472  4.0760 -1.0922
 5383TIP3    H237565   5.892   3.347   4.850  1.5430 -1.9033 -3.2567
 5384TIP3   OH237566   1.021   0.258  15.833 -0.2195 -0.6426  0.5089
 5384TIP3    H137567   1.072   0.339  15.828 -0.6625 -0.2097  2.6082
 5384TIP3    H237568   0.930   0.287  15.822 -0.3235 -0.9352  0.6052
 5385TIP3   OH237569   0.302   1.873  12.023 -0.0517  0.3136 -0.1454
 5385TIP3    H137570   0.315   1.847  12.114 -1.6641 -0.9489 -0.2499
 5385TIP3    H237571   0.207   1.886  12.015  0.0185 -0.0483 -1.7530
 5386TIP3   OH237572   1.663   0.694  15.306 -0.4810 -0.2262  0.0081
 5386TIP3    H137573   1.677   0.633  15.379 -1.0383 -2.6295 -1.8314
 5386TIP3    H237574   1.714   0.657  15.234 -1.3858  1.1246 -1.3565
 5387TIP3   OH237575   2.033   3.832  15.117 -0.6254  0.5184 -0.3740
 5387TIP3    H137576   2.063   3.793  15.035 -0.0212 -0.0463  0.1059
 5387TIP3    H237577   2.109   3.827  15.175 -1.2049  0.4226  0.3921
 5388TIP3   OH237578   1.203   3.605  14.688 -0.2289  0.0920  0.2357
 5388TIP3    H137579   1.149   3.614  14.609  0.0561  1.4667  0.1933
 5388TIP3    H237580   1.169   3.671  14.748 -0.3819 -0.8875  1.2456
 5389TIP3   OH237581   5.831   2.116   3.965 -0.5060 -0.3743  0.3158
 5389TIP3    H137582   5.762   2.073   3.914 -0.9450 -0.0556  0.6372
 5389TIP3    H237583   5.881   2.044   4.004  0.0690 -0.6309 -0.8635
 5390TIP3   OH237584   1.142   1.360   1.141  0.4527 -0.2873 -0.2979
 5390TIP3    H137585   1.224   1.398   1.108  0.3094  0.9478  0.7281
 5390TIP3    H237586   1.094   1.434   1.177  0.6681 -1.5595  2.8033
 5391TIP3   OH237587   0.590   0.925  10.618 -0.4258  1.2987  0.0917
 5391TIP3    H137588   0.518   0.868  10.593  0.1828  1.1456 -1.3570
 5391TIP3    H237589   0.653   0.868  10.661 -0.1706  1.0220 -0.6468
 5392TIP3   OH237590   5.948   5.201   4.450  0.3316  0.5622 -0.7484
 5392TIP3    H137591   5.926   5.291   4.425  1.1195  1.3936  1.3878
 5392TIP3    H237592   6.035   5.208   4.490 -0.7565 -0.6701  1.9784
 5393TIP3   OH237593   5.961   2.814   4.222  0.5488 -0.4177 -0.0726
 5393TIP3    H137594   5.919   2.834   4.138  0.0527  1.2141  0.5542
 5393TIP3    H237595   6.025   2.884   4.234  2.1343 -1.8278 -0.0946
 5394TIP3   OH237596   6.140   2.344  14.801  0.2217  0.5183 -0.3611
 5394TIP3    H137597   6.177   2.282  14.739 -1.4017  0.0747 -0.9129
 5394TIP3    H237598   6.208   2.355  14.868  0.7865 -1.3503 -0.6043
 5395TIP3   OH237599   2.526   5.268   3.743  0.1288 -0.7907  0.0181
 5395TIP3    H137600   2.614   5.288   3.710 -0.3856  3.3417  0.7956
 5395TIP3    H237601   2.534   5.277   3.838 -0.8672 -1.5444  0.1743
 5396TIP3   OH237602   1.515   3.097  16.602 -0.6908 -0.0616  0.2267
 5396TIP3    H137603   1.468   3.179  16.592  0.4872  0.4599 -1.2073
 5396TIP3    H237604   1.447   3.030  16.611 -1.6848  0.8335 -0.5792
 5397TIP3   OH237605   4.548   4.213   4.475  0.2986  0.1495  0.0327
 5397TIP3    H137606   4.619   4.273   4.453  0.6116 -0.4185 -0.4836
 5397TIP3    H237607   4.474   4.271   4.494  0.4958  0.6953 -0.8287
 5398TIP3   OH237608   5.736   6.529  14.875 -0.3490 -0.1943  0.0174
 5398TIP3    H137609   5.785   6.553  14.796  0.5372  1.2344  0.9639
 5398TIP3    H237610   5.671   6.466  14.845  0.3540 -0.1150 -1.7471
 5399TIP3   OH237611   1.428   5.410  10.607 -0.2939  0.1850  0.0130
 5399TIP3    H137612   1.355   5.454  10.563 -1.1294 -0.2115  0.9894
 5399TIP3    H237613   1.417   5.318  10.585  0.1727  0.1769 -0.1957
 5400TIP3   OH237614   0.294   3.921   1.333 -0.5342 -0.3661 -0.3761
 5400TIP3    H137615   0.323   3.850   1.390 -0.0705 -0.2969 -0.5286
 5400TIP3    H237616   0.220   3.884   1.284 -1.6953 -0.0614  1.1062
 5401TIP3   OH237617   1.781   4.782  12.882  0.2232 -0.4986  0.2197
 5401TIP3    H137618   1.779   4.866  12.836  0.2725 -0.3872  0.4255
 5401TIP3    H237619   1.719   4.727  12.833  0.0605 -0.2904  0.1927
 5402TIP3   OH237620   6.499   3.076  11.531 -0.4516  0.0964  1.2055
 5402TIP3    H137621   6.426   3.052  11.474  0.5474  0.4191 -0.2374
 5402TIP3    H237622   6.565   3.007  11.516  0.0210  0.4569  1.5902
 5403TIP3   OH237623   1.526   6.445  13.941  0.6094  0.0133  0.0023
 5403TIP3    H137624   1.614   6.481  13.940  0.9253 -0.6783  1.4787
 5403TIP3    H237625   1.496   6.456  14.032 -0.9733  0.5957 -0.5594
 5404TIP3   OH237626   4.549   4.540  10.669  0.1514  0.1774 -0.3128
 5404TIP3    H137627   4.468   4.508  10.708 -0.0247  2.0716  0.8769
 5404TIP3    H237628   4.525   4.622  10.626  1.6502  1.2772  0.9266
 5405TIP3   OH237629   4.135   4.775   1.416 -0.2903 -0.3918  0.0941
 5405TIP3    H137630   4.130   4.820   1.332  2.0895 -1.2832 -0.5661
 5405TIP3    H237631   4.130   4.682   1.394  0.6498 -0.6480  0.9113
 5406TIP3   OH237632   6.177   6.591  10.929  0.4721 -0.2102 -0.2843
 5406TIP3    H137633   6.212   6.504  10.911  2.8386  1.3661 -3.9493
 5406TIP3    H237634   6.082   6.579  10.930  0.7307 -2.7049 -1.4450
 5407TIP3   OH237635   0.625   6.624  13.932  0.1357 -0.3054 -0.4319
 5407TIP3    H137636   0.683   6.618  14.008 -0.4434 -1.0790 -0.0500
 5407TIP3    H237637   0.591   6.713  13.935  0.8068 -0.0496 -0.2945
 5408TIP3   OH237638   3.033   1.462   1.143 -0.5391 -0.3275  0.8104
 5408TIP3    H137639   3.047   1.531   1.078  1.4093 -0.2619  1.2736
 5408TIP3    H237640   2.999   1.508   1.219 -1.5047 -0.2064  0.3066
 5409TIP3   OH237641   2.908   1.198  12.783 -0.5315  0.3023  0.1956
 5409TIP3    H137642   2.918   1.292  12.768 -1.6921  0.6701  1.5903
 5409TIP3    H237643   2.998   1.164  12.782 -0.1116  1.4073 -0.4015
 5410TIP3   OH237644   3.163   4.646  15.495  0.0194 -0.0946  0.3837
 5410TIP3    H137645   3.239   4.693  15.460 -0.3030  1.4600  1.7348
 5410TIP3    H237646   3.176   4.647  15.590 -2.4838  1.6171  0.7522
 5411TIP3   OH237647   2.044   2.975   0.939  0.2180 -0.0857  0.4818
 5411TIP3    H137648   1.987   2.911   0.897 -0.0529  0.3923  0.1147
 5411TIP3    H237649   2.132   2.946   0.918  0.0956 -0.3421  0.3194
 5412TIP3   OH237650   5.086   6.675  12.679  0.5624 -0.2657 -0.2313
 5412TIP3    H137651   5.121   6.638  12.598  1.2273  0.4752 -0.2934
 5412TIP3    H237652   5.005   6.627  12.695  0.7321 -0.8169 -1.0210
 5413TIP3   OH237653   4.639   0.729  16.384  0.2574 -0.3095  0.0319
 5413TIP3    H137654   4.584   0.650  16.385  1.9486 -1.5800 -2.0145
 5413TIP3    H237655   4.609   0.779  16.309 -0.2601  0.6301  0.8444
 5414TIP3   OH237656   2.701   5.937   4.105  0.6058  0.1815  0.1703
 5414TIP3    H137657   2.721   5.936   4.012  1.4642  1.4918  0.3318
 5414TIP3    H237658   2.700   6.030   4.129  0.2719 -0.1330  1.4319
 5415TIP3   OH237659   4.888   2.691  15.868 -0.3500  0.4491  0.0233
 5415TIP3    H137660   4.855   2.780  15.854 -0.2779  0.3354 -0.8889
 5415TIP3    H237661   4.838   2.659  15.943 -0.7985  1.0470 -0.0105
 5416TIP3   OH237662   2.003   1.773  14.800  0.4105  0.3322  0.4160
 5416TIP3    H137663   2.086   1.819  14.808 -0.4287  1.6334  1.9139
 5416TIP3    H237664   1.998   1.719  14.879 -0.8129  1.3834  1.0836
 5417TIP3   OH237665   0.433   1.379  15.706  0.1671 -1.1310 -0.0010
 5417TIP3    H137666   0.422   1.462  15.752  1.7085 -1.0729  0.2800
 5417TIP3    H237667   0.525   1.357  15.717 -0.1726 -2.7688 -0.2826
 5418TIP3   OH237668   4.013   6.364  12.234 -0.2439 -0.1668 -0.1200
 5418TIP3    H137669   3.958   6.286  12.229 -1.2436  0.5162  0.0521
 5418TIP3    H237670   4.005   6.395  12.324  1.1662 -0.5836  0.1606
 5419TIP3   OH237671   2.637   5.667  13.335 -0.0043 -0.1388 -0.0226
 5419TIP3    H137672   2.654   5.753  13.296  0.8186  1.2062  3.1129
 5419TIP3    H237673   2.657   5.605  13.266  1.9194  2.1007 -1.5708
 5420TIP3   OH237674   4.167   6.670  11.210 -0.5609 -0.2927 -0.1620
 5420TIP3    H137675   4.199   6.693  11.122  1.1574  1.3415  0.8422
 5420TIP3    H237676   4.101   6.737  11.229 -1.6127 -1.2075 -0.5767
 5421TIP3   OH237677   6.044   6.255  15.013  0.2753  0.3389  1.1344
 5421TIP3    H137678   5.972   6.192  15.024  0.7699 -0.8040 -1.7523
 5421TIP3    H237679   6.006   6.339  15.039 -1.4913 -0.5557  1.5489
 5422TIP3   OH237680   4.603   0.754   2.516 -0.0959  0.2786 -0.3618
 5422TIP3    H137681   4.574   0.663   2.522  2.3040 -0.4244  1.3116
 5422TIP3    H237682   4.649   0.759   2.431 -1.6710  0.3872 -1.2207
 5423TIP3   OH237683   3.079   3.017  13.179 -0.4366 -0.1630 -0.0420
 5423TIP3    H137684   3.085   3.012  13.084  1.1097 -1.1402  0.0879
 5423TIP3    H237685   3.077   2.926  13.208  0.5289  0.1075  0.9215
 5424TIP3   OH237686   4.419   2.168  12.330  0.2447 -0.0608  0.3220
 5424TIP3    H137687   4.434   2.161  12.425  1.2138  1.4773  0.3153
 5424TIP3    H237688   4.331   2.205  12.322  1.2983  2.7189  0.7536
 5425TIP3   OH237689   0.868   4.441  13.164 -0.5266 -0.5730  0.1123
 5425TIP3    H137690   0.814   4.402  13.233 -1.7097  0.8507  0.0260
 5425TIP3    H237691   0.813   4.510  13.127  0.1182 -1.3041 -2.2456
 5426TIP3   OH237692   6.657   2.563  13.998  0.0744 -0.1989  0.1264
 5426TIP3    H137693   6.687   2.631  14.058  0.0232 -0.4201  0.4095
 5426TIP3    H237694   6.702   2.484  14.028 -0.7000 -0.5148  0.4950
 5427TIP3   OH237695   2.295   1.471  13.140 -0.4528 -0.3207  0.1235
 5427TIP3    H137696   2.301   1.565  13.125 -0.3374 -0.5259 -1.1701
 5427TIP3    H237697   2.383   1.445  13.166 -1.0302  0.3088  2.8555
 5428TIP3   OH237698   5.303   2.991  13.543  0.2572 -1.0511  0.0913
 5428TIP3    H137699   5.304   3.085  13.527 -0.8683 -0.9648  0.5091
 5428TIP3    H237700   5.384   2.974  13.592  1.3061 -0.5804 -1.4392
 5429TIP3   OH237701   2.583   1.556   2.816 -0.2894 -0.3714 -0.4551
 5429TIP3    H137702   2.535   1.516   2.743  1.2660 -1.4811 -0.8935
 5429TIP3    H237703   2.653   1.607   2.773  2.2307 -3.0879  0.2771
 5430TIP3   OH237704   2.949   1.333   5.145  0.6489  0.1025  0.3205
 5430TIP3    H137705   2.884   1.265   5.129  0.2162  0.2766  1.3105
 5430TIP3    H237706   3.004   1.298   5.215  1.4032  0.1030 -0.2692
 5431TIP3   OH237707   1.420   0.349  13.711 -0.9801  0.1830 -0.1525
 5431TIP3    H137708   1.346   0.291  13.695 -0.8163 -0.0833  0.0580
 5431TIP3    H237709   1.491   0.312  13.658 -0.8387  0.1163  0.0869
 5432TIP3   OH237710   6.604   6.063   3.325 -0.2306  0.2453  0.4519
 5432TIP3    H137711   6.687   6.028   3.356  0.7060  0.2074 -2.0574
 5432TIP3    H237712   6.616   6.158   3.324  0.0349  0.2019 -0.6075
 5433TIP3   OH237713   4.571   3.659   3.820 -0.2959 -0.1662  0.1151
 5433TIP3    H137714   4.503   3.655   3.753  0.8942  1.9801 -1.2925
 5433TIP3    H237715   4.558   3.744   3.862 -1.1400 -1.5558  2.7798
 5434TIP3   OH237716   4.647   4.498   4.233 -0.0400 -0.0274  0.3739
 5434TIP3    H137717   4.573   4.558   4.248 -1.1260 -0.7822 -1.8106
 5434TIP3    H237718   4.708   4.518   4.305 -1.1080  2.5469  0.6450
 5435TIP3   OH237719   3.716   0.661  10.453  0.3000  0.1779  0.5322
 5435TIP3    H137720   3.779   0.665  10.525  0.3998 -1.5731  0.5746
 5435TIP3    H237721   3.632   0.645  10.496  0.2464 -0.1536  0.3078
 5436TIP3   OH237722   1.123   6.744  15.381  0.4199  0.0478  0.0981
 5436TIP3    H137723   1.034   6.712  15.393  0.5037 -0.2467 -0.0711
 5436TIP3    H237724   1.178   6.674  15.415  0.5771  0.3679  0.5092
 5437TIP3   OH237725   1.018   3.171  15.655  0.1454  0.1609 -0.3644
 5437TIP3    H137726   0.930   3.199  15.680 -0.3460 -1.6495  0.0714
 5437TIP3    H237727   1.003   3.112  15.581  0.8211 -1.4934  0.7825
 5438TIP3   OH237728   5.530   6.201  14.178  0.2420  0.6599  0.5283
 5438TIP3    H137729   5.561   6.187  14.267 -0.3793  0.7742  0.7657
 5438TIP3    H237730   5.436   6.184  14.183  0.2358  0.4782 -0.1442
 5439TIP3   OH237731   6.234   5.549   4.882  0.0560  0.4479  0.1515
 5439TIP3    H137732   6.153   5.499   4.881 -0.2958  1.0012  0.7929
 5439TIP3    H237733   6.255   5.557   4.975  1.4892 -0.7386 -0.0409
 5440TIP3   OH237734   2.306   6.697   0.521  0.4318  0.1852 -0.6043
 5440TIP3    H137735   2.244   6.770   0.532  0.7204  0.5397 -1.3192
 5440TIP3    H237736   2.281   6.635   0.590  1.3855  1.7968  1.2598
 5441TIP3   OH237737   4.670   2.038   3.497 -0.2983 -0.0021  0.1723
 5441TIP3    H137738   4.717   1.961   3.465  1.4436  0.6191  1.1493
 5441TIP3    H237739   4.656   2.020   3.590  1.1335  1.3299  0.6644
 5442TIP3   OH237740   6.079   6.362   3.879 -0.6444  0.4986  0.4785
 5442TIP3    H137741   6.136   6.386   3.806 -1.3910 -1.3893 -0.7543
 5442TIP3    H237742   6.005   6.422   3.872  0.4894  2.0348  1.2544
 5443TIP3   OH237743   5.156   4.948   2.928 -0.1932 -0.2673 -0.2174
 5443TIP3    H137744   5.135   4.858   2.954 -0.6590  0.0931  0.6851
 5443TIP3    H237745   5.119   4.956   2.840  0.0504 -1.0300 -0.3946
 5444TIP3   OH237746   1.943   0.539  16.577 -0.3342  0.3105 -0.2619
 5444TIP3    H137747   1.930   0.580  16.663  0.0950 -0.0435 -0.0203
 5444TIP3    H237748   1.938   0.445  16.595 -1.0140  0.2501 -0.7558
 5445TIP3   OH237749   3.005   6.363  14.082  0.3854  0.2137  0.6393
 5445TIP3    H137750   2.991   6.419  14.006 -1.2891  1.4460  1.8016
 5445TIP3    H237751   3.044   6.420  14.148  0.1815 -0.3912  1.2975
 5446TIP3   OH237752   2.254   0.699   5.468 -0.0078 -0.3055 -0.2993
 5446TIP3    H137753   2.178   0.688   5.411 -0.4293 -3.2021  0.7105
 5446TIP3    H237754   2.327   0.714   5.408 -1.0712  0.5739 -1.3859
 5447TIP3   OH237755   0.302   2.887  15.042 -0.0209  0.5200  0.3561
 5447TIP3    H137756   0.245   2.835  15.099 -0.1043  0.2859  0.0589
 5447TIP3    H237757   0.243   2.934  14.984  0.1272 -1.2862 -1.3228
 5448TIP3   OH237758   2.120   3.951   1.736  0.0503 -0.1973  0.3273
 5448TIP3    H137759   2.107   3.876   1.794  0.3337  0.4726  1.2733
 5448TIP3    H237760   2.041   3.955   1.682 -0.0289 -1.0773  0.3821
 5449TIP3   OH237761   0.122   6.054  13.492 -0.1212  0.3871  0.1000
 5449TIP3    H137762   0.131   5.995  13.418 -0.9311  1.0083 -0.4983
 5449TIP3    H237763   0.081   6.001  13.561 -0.0557  0.0179 -0.1460
 5450TIP3   OH237764   3.459   2.659  11.510 -0.5830  0.2008 -0.1017
 5450TIP3    H137765   3.486   2.600  11.580 -0.5100 -1.1270 -1.2346
 5450TIP3    H237766   3.364   2.647  11.503 -0.8564  1.6486  0.9540
 5451TIP3   OH237767   3.576   5.009  12.695 -0.1600  0.2398 -0.2984
 5451TIP3    H137768   3.486   5.027  12.668 -0.5300 -2.1613 -0.7392
 5451TIP3    H237769   3.627   5.083  12.661 -1.5558  0.2862 -2.3567
 5452TIP3   OH237770   3.722   4.366   3.490  0.1368 -0.9913 -0.1655
 5452TIP3    H137771   3.805   4.320   3.495 -0.2370 -1.4797  1.9433
 5452TIP3    H237772   3.746   4.459   3.496  0.6039 -1.0908 -0.5029
 5453TIP3   OH237773   3.521   1.867  15.723 -0.0121 -0.3765  0.0824
 5453TIP3    H137774   3.462   1.943  15.721 -1.4382 -1.4168  1.1080
 5453TIP3    H237775   3.609   1.905  15.728 -0.5245  1.2231 -2.0415
 5454TIP3   OH237776   4.613   0.802  13.933 -0.1301 -0.3601  0.0827
 5454TIP3    H137777   4.526   0.767  13.912 -0.6125  0.8791 -0.0743
 5454TIP3    H237778   4.646   0.835  13.849 -0.1997  0.6226  0.4297
 5455TIP3   OH237779   5.656   6.706   1.483  0.1416 -0.1081 -0.2451
 5455TIP3    H137780   5.602   6.729   1.407 -0.3303 -1.6116 -0.3822
 5455TIP3    H237781   5.643   6.779   1.544 -1.2451  0.0444 -0.6933
 5456TIP3   OH237782   1.586   3.773   1.904 -0.1034  0.2528  0.2413
 5456TIP3    H137783   1.652   3.712   1.936 -1.7718 -2.2385 -0.9990
 5456TIP3    H237784   1.629   3.859   1.907  2.9859 -1.2496 -0.0612
 5457TIP3   OH237785   2.734   3.817   2.892 -0.0019 -0.2992 -0.2116
 5457TIP3    H137786   2.669   3.831   2.961 -1.0475 -0.9675 -1.0315
 5457TIP3    H237787   2.753   3.724   2.896 -0.2688 -0.3912 -0.9892
 5458TIP3   OH237788   0.941   2.985  15.151  0.2758 -0.0422 -0.4141
 5458TIP3    H137789   1.016   2.934  15.121 -0.6293 -0.9093 -1.2163
 5458TIP3    H237790   0.894   3.008  15.071  0.3578  1.5741 -0.0181
 5459TIP3   OH237791   3.384   3.610   5.400  0.4436 -0.4584 -0.8105
 5459TIP3    H137792   3.386   3.701   5.432  0.5923 -0.0315 -2.0047
 5459TIP3    H237793   3.429   3.560   5.467 -0.8466  0.1394  0.5345
 5460TIP3   OH237794   1.116   5.421   3.514 -0.0326  0.3234  0.0928
 5460TIP3    H137795   1.077   5.501   3.478 -2.2932 -0.3921  0.8537
 5460TIP3    H237796   1.154   5.377   3.438  1.9035  2.4337 -0.2432
 5461TIP3   OH237797   6.666   4.587  13.283  0.5489  0.1275  0.5659
 5461TIP3    H137798   6.595   4.584  13.219  0.6505 -1.5205  0.5170
 5461TIP3    H237799   6.622   4.591  13.368  0.4071  3.3523  0.4008
 5462TIP3   OH237800   1.752   2.145   3.132 -0.4157  0.0437  0.3755
 5462TIP3    H137801   1.692   2.110   3.199 -2.3338  0.5209 -1.0408
 5462TIP3    H237802   1.724   2.102   3.051 -0.2287  1.9186 -0.6915
 5463TIP3   OH237803   5.424   1.955   4.005 -0.1915  0.1233  0.2623
 5463TIP3    H137804   5.462   1.971   4.091 -1.8664  0.8408  0.8962
 5463TIP3    H237805   5.369   1.877   4.017 -0.2579  0.0924 -0.2203
 5464TIP3   OH237806   3.136   2.682  12.562 -0.1488  0.3645  0.1188
 5464TIP3    H137807   3.181   2.599  12.543 -2.3568 -0.8371 -0.0889
 5464TIP3    H237808   3.104   2.671  12.652 -1.7697  0.3468 -0.4421
 5465TIP3   OH237809   6.444   1.958   4.826 -0.0033 -0.2969 -0.0070
 5465TIP3    H137810   6.381   1.993   4.890 -1.3448 -3.3854  0.4720
 5465TIP3    H237811   6.529   1.967   4.869 -0.8584 -2.0967  2.2051
 5466TIP3   OH237812   0.313   2.985   3.612 -0.1267  0.2853 -0.6419
 5466TIP3    H137813   0.297   3.034   3.531  1.6985  1.3321 -0.3782
 5466TIP3    H237814   0.261   3.032   3.678 -1.2982 -0.3323 -1.1049
 5467TIP3   OH237815   0.550   4.311  15.973 -0.5949 -0.1577 -0.1558
 5467TIP3    H137816   0.575   4.320  15.881 -0.5123 -1.2755 -0.2440
 5467TIP3    H237817   0.488   4.383  15.988 -0.4988  0.1142 -1.0381
 5468TIP3   OH237818   4.959   3.184  12.865  0.2158  0.4258  0.0749
 5468TIP3    H137819   4.981   3.258  12.922  0.2968  1.9454 -1.8583
 5468TIP3    H237820   5.031   3.122  12.878  0.2424  0.7488  1.5909
 5469TIP3   OH237821   1.588   5.867  12.115 -0.4801  0.0594 -0.0142
 5469TIP3    H137822   1.616   5.843  12.203  1.8949 -0.0713 -0.7941
 5469TIP3    H237823   1.530   5.796  12.088  1.1396 -1.4093  0.3074
 5470TIP3   OH237824   4.216   3.848   0.623 -0.2082  0.2537  0.2657
 5470TIP3    H137825   4.227   3.942   0.609  0.4336  0.2445  0.7006
 5470TIP3    H237826   4.122   3.836   0.633 -0.2301  0.9524  0.9158
 5471TIP3   OH237827   0.268   4.677  12.495  0.1179  0.0129  0.5225
 5471TIP3    H137828   0.219   4.647  12.571 -0.8973 -1.0488 -0.5259
 5471TIP3    H237829   0.352   4.632  12.502 -0.2546 -0.6786  0.6236
 5472TIP3   OH237830   5.129   4.766  13.517  0.3822  0.2060 -0.0549
 5472TIP3    H137831   5.074   4.824  13.465 -0.1377 -0.2102  0.0275
 5472TIP3    H237832   5.094   4.679  13.500  0.7882 -0.0222  0.2801
 5473TIP3   OH237833   4.443   1.458  14.743 -0.0196  0.2072  0.3594
 5473TIP3    H137834   4.471   1.494  14.827 -1.2688 -0.0721  0.8968
 5473TIP3    H237835   4.497   1.504  14.678  1.9665 -0.5902  1.3927
 5474TIP3   OH237836   5.308   5.128   0.360 -0.3497  0.2840 -1.2508
 5474TIP3    H137837   5.268   5.045   0.384  0.0638  0.3277 -0.3918
 5474TIP3    H237838   5.323   5.173   0.444  0.2448  0.8385 -1.6495
 5475TIP3   OH237839   1.922   5.311   0.047  0.2393 -0.0592 -0.2350
 5475TIP3    H137840   1.946   5.392   0.001  2.8573 -0.7554 -0.2179
 5475TIP3    H237841   1.914   5.337   0.138  1.4923  0.1250 -0.1665
 5476TIP3   OH237842   1.321   6.085   3.298  0.4018 -0.0898 -0.5455
 5476TIP3    H137843   1.344   6.053   3.211  0.2625  1.2925 -1.1043
 5476TIP3    H237844   1.246   6.031   3.324 -0.0031 -0.0426 -1.5864
 5477TIP3   OH237845   5.600   3.737   3.948  0.1199  0.5631  0.4220
 5477TIP3    H137846   5.678   3.727   4.003 -0.2526  0.9907  1.0366
 5477TIP3    H237847   5.634   3.737   3.858  0.5644 -1.7865  0.5564
 5478TIP3   OH237848   1.730   1.787  16.807 -0.1320  0.3229 -0.4429
 5478TIP3    H137849   1.658   1.744  16.854  1.0598  0.1090  1.2636
 5478TIP3    H237850   1.693   1.812  16.723 -1.5513 -1.8576 -0.5059
 5479TIP3   OH237851   5.079   2.160  15.515 -1.0788 -0.1103 -0.3188
 5479TIP3    H137852   5.101   2.219  15.587  0.1266 -0.8857 -0.0529
 5479TIP3    H237853   4.994   2.123  15.540  0.0858 -1.6343  1.5189
 5480TIP3   OH237854   3.839   2.720   4.256 -0.0376 -0.2832  0.0432
 5480TIP3    H137855   3.766   2.771   4.221 -0.5170 -1.8277 -1.2338
 5480TIP3    H237856   3.800   2.665   4.323  0.1631 -0.2934  0.1512
 5481TIP3   OH237857   5.864   2.657  11.864  0.0474  0.0661  0.0233
 5481TIP3    H137858   5.867   2.579  11.919 -1.6174  1.3205  1.9759
 5481TIP3    H237859   5.952   2.663  11.826 -0.2199 -3.5237 -1.3407
 5482TIP3   OH237860   6.138   3.088  11.238  0.1093  0.4015 -0.1181
 5482TIP3    H137861   6.173   3.114  11.152 -0.3394  0.1370 -0.3862
 5482TIP3    H237862   6.062   3.145  11.250 -0.5783 -0.4381 -0.4793
 5483TIP3   OH237863   3.557   3.798   3.648  0.3077 -0.3697 -0.7930
 5483TIP3    H137864   3.471   3.784   3.689  0.4441  1.4127  0.1549
 5483TIP3    H237865   3.540   3.859   3.576  0.9120  0.8326  0.0548
 5484TIP3   OH237866   1.221   0.831   4.781  0.3007 -0.2226 -0.2781
 5484TIP3    H137867   1.176   0.874   4.708  0.7324  0.0619 -0.3753
 5484TIP3    H237868   1.312   0.861   4.775  0.3254 -0.1515  0.4130
 5485TIP3   OH237869   0.784   1.680  13.769  0.0724 -0.2891  0.1518
 5485TIP3    H137870   0.718   1.638  13.825 -0.2178  0.4557  0.3790
 5485TIP3    H237871   0.740   1.758  13.736  1.6817  1.5967  2.3367
 5486TIP3   OH237872   3.571   5.942  14.548  0.1501  0.7358 -0.3966
 5486TIP3    H137873   3.623   5.864  14.566  1.2061  1.7634  1.1343
 5486TIP3    H237874   3.632   6.002  14.505 -0.2086  1.3360 -0.0776
 5487TIP3   OH237875   2.101   3.164  13.496  0.4136  0.2704 -0.5354
 5487TIP3    H137876   2.170   3.196  13.554  0.4825  0.0371 -0.4882
 5487TIP3    H237877   2.081   3.076  13.529  0.0653  0.3529 -0.5213
 5488TIP3   OH237878   1.083   5.094   1.089 -0.3171 -0.2624  0.1941
 5488TIP3    H137879   1.152   5.037   1.056 -0.1283  0.5222 -0.7796
 5488TIP3    H237880   1.116   5.125   1.173  0.0518 -0.7316  0.2232
 5489TIP3   OH237881   2.710   6.628  11.844 -0.4092 -0.0210 -0.4493
 5489TIP3    H137882   2.639   6.685  11.815 -0.4732 -0.1893 -0.6233
 5489TIP3    H237883   2.782   6.648  11.783 -0.8235 -1.0062 -1.2760
 5490TIP3   OH237884   2.571   0.873  16.729  0.1032 -0.0375  0.3873
 5490TIP3    H137885   2.553   0.852  16.637 -1.2027 -0.6061  0.7692
 5490TIP3    H237886   2.645   0.934  16.726  0.0616 -0.0525 -1.0356
 5491TIP3   OH237887   1.791   2.393   5.195  0.2618 -0.3346  0.0763
 5491TIP3    H137888   1.748   2.438   5.122  0.7556 -0.8235 -0.5155
 5491TIP3    H237889   1.742   2.421   5.272 -0.7112 -0.3638 -0.5210
 5492TIP3   OH237890   2.562   1.353  13.029  0.1301  0.1506 -0.1904
 5492TIP3    H137891   2.639   1.300  13.007  1.9867  2.8672 -0.4895
 5492TIP3    H237892   2.576   1.380  13.120  0.2998  1.8873 -0.7147
 5493TIP3   OH237893   4.048   6.132   1.189  0.0553  0.6020  0.5612
 5493TIP3    H137894   4.049   6.036   1.192  0.1570  0.5860  0.0693
 5493TIP3    H237895   4.129   6.158   1.233  0.7918  0.4188 -0.6678
 5494TIP3   OH237896   0.051   6.013   4.962  0.4391  0.5908 -0.3981
 5494TIP3    H137897   0.087   5.933   5.001  0.1847  0.5050 -0.3398
 5494TIP3    H237898  -0.043   5.998   4.961  0.5300  0.0386 -2.2504
 5495TIP3   OH237899   6.150   4.254   5.361  0.0891 -0.1976  0.2344
 5495TIP3    H137900   6.210   4.192   5.402 -0.2904 -0.7846 -0.0919
 5495TIP3    H237901   6.206   4.310   5.308  0.2819 -1.1375 -0.5584
 5496TIP3   OH237902   2.524   1.562   4.769  0.3986 -0.1881 -0.6763
 5496TIP3    H137903   2.534   1.568   4.864  0.4236 -1.0288 -0.6240
 5496TIP3    H237904   2.496   1.649   4.743 -1.2587 -0.4089  0.3062
 5497TIP3   OH237905   3.364   6.627  15.961 -0.4465  0.1619 -0.2173
 5497TIP3    H137906   3.270   6.642  15.964 -0.3617  0.6764  0.1032
 5497TIP3    H237907   3.398   6.676  16.036  0.0655 -0.0813 -0.2859
 5498TIP3   OH237908   0.069   2.852  15.226  0.2397 -0.2737 -0.0555
 5498TIP3    H137909   0.040   2.924  15.171 -1.0116  0.9198  2.0824
 5498TIP3    H237910   0.001   2.785  15.215  0.3765 -0.3351 -0.5270
 5499TIP3   OH237911   3.409   4.319  14.128 -0.2386 -0.5683  0.5089
 5499TIP3    H137912   3.396   4.414  14.137 -1.4465 -0.5535 -1.1592
 5499TIP3    H237913   3.495   4.303  14.167 -1.0740  0.8353  3.0723
 5500TIP3   OH237914   3.958   4.394   3.850  0.3080  0.2460 -0.1055
 5500TIP3    H137915   3.958   4.298   3.845 -0.3868  0.2568 -0.3085
 5500TIP3    H237916   3.941   4.414   3.942  0.0328  0.1795 -0.1422
 5501TIP3   OH237917   4.632   4.623   4.833  0.0895  0.0401  0.0694
 5501TIP3    H137918   4.579   4.700   4.858 -0.8898 -0.8264  0.7029
 5501TIP3    H237919   4.713   4.633   4.882 -1.0682 -0.6598  2.1684
 5502TIP3   OH237920   3.468   0.631   5.576  0.5385 -0.3176 -0.8698
 5502TIP3    H137921   3.537   0.685   5.616  0.9169 -0.8932 -0.7452
 5502TIP3    H237922   3.386   0.671   5.607  0.8203 -0.0551 -0.4559
 5503TIP3   OH237923   6.768   3.811  15.851  0.2986 -0.2715  0.1073
 5503TIP3    H137924   6.802   3.897  15.875 -1.1687  0.2543  0.3500
 5503TIP3    H237925   6.776   3.759  15.931 -2.7730  0.9126  1.2705
 5504TIP3   OH237926   0.621   3.905   4.387  0.4551 -0.5037  0.0562
 5504TIP3    H137927   0.695   3.960   4.363 -1.9007  2.4643 -0.6622
 5504TIP3    H237928   0.619   3.907   4.482  0.8636  0.0136  0.0538
 5505TIP3   OH237929   5.714   2.803   5.190 -0.1311 -0.5535  0.2679
 5505TIP3    H137930   5.622   2.788   5.208 -0.4176  0.3618 -0.4231
 5505TIP3    H237931   5.716   2.882   5.136  1.1320  0.0553  1.1881
 5506TIP3   OH237932   4.582   4.829   2.988 -0.0792 -0.0078  0.1817
 5506TIP3    H137933   4.591   4.745   2.943 -1.9269  1.2976 -2.7854
 5506TIP3    H237934   4.657   4.880   2.959 -0.0962  0.0919  0.3127
 5507TIP3   OH237935   3.756   6.628   4.953 -0.3830  0.8014  0.2558
 5507TIP3    H137936   3.770   6.656   5.043 -1.5345  2.4667 -0.0623
 5507TIP3    H237937   3.692   6.690   4.918 -2.2511 -1.6256 -0.7980
 5508TIP3   OH237938   2.333   3.164  13.751 -0.1423  0.0397 -0.0054
 5508TIP3    H137939   2.325   3.253  13.784 -0.5945  0.1837 -0.4909
 5508TIP3    H237940   2.419   3.134  13.782  1.0444  1.4780 -1.8180
 5509TIP3   OH237941   5.354   1.115   2.631  0.4276  0.3608 -0.1661
 5509TIP3    H137942   5.317   1.176   2.695  0.9705  0.6404 -0.1126
 5509TIP3    H237943   5.380   1.169   2.557 -1.5850 -0.1497 -1.2884
 5510TIP3   OH237944   6.058   0.849   4.566 -1.2232 -0.4686 -0.2616
 5510TIP3    H137945   5.999   0.924   4.575  0.4506  0.8387  0.0955
 5510TIP3    H237946   6.016   0.794   4.499 -2.2879  0.9652 -0.8128
 5511TIP3   OH237947   5.692   2.254   4.157  0.1414  0.5397 -0.8843
 5511TIP3    H137948   5.749   2.217   4.089  0.7886  1.5323 -0.8880
 5511TIP3    H237949   5.664   2.179   4.209  0.7874 -0.0483 -1.3888
 5512TIP3   OH237950   2.438   5.122  14.304  0.1386  0.2071  0.4521
 5512TIP3    H137951   2.521   5.076  14.315 -0.9331 -1.7815  0.2736
 5512TIP3    H237952   2.454   5.208  14.344  1.3748 -1.1525  3.0256
 5513TIP3   OH237953   5.534   4.664   5.648 -0.2223 -0.0949  0.3063
 5513TIP3    H137954   5.607   4.625   5.697  0.1656  1.4332  0.9778
 5513TIP3    H237955   5.459   4.656   5.706  0.0623  0.9924  0.8334
 5514TIP3   OH237956   3.880   4.496   4.108  0.5434 -0.0075  0.6135
 5514TIP3    H137957   3.854   4.588   4.099  2.8089  0.6041  0.0872
 5514TIP3    H237958   3.911   4.488   4.198  1.3292  0.0013  0.3461
 5515TIP3   OH237959   3.882   3.367   3.146 -0.1160  0.2504 -0.3899
 5515TIP3    H137960   3.885   3.283   3.191 -3.2985  0.5271  0.4635
 5515TIP3    H237961   3.891   3.432   3.216  0.0680  0.6216 -0.7559
 5516TIP3   OH237962   2.215   6.306   4.652  0.7298 -0.0282  0.1253
 5516TIP3    H137963   2.276   6.377   4.636 -1.1814  2.4407  3.1531
 5516TIP3    H237964   2.263   6.245   4.708  0.6220  1.7257  2.2013
 5517TIP3   OH237965   4.806   0.615  11.250 -0.3616 -0.0078 -0.1505
 5517TIP3    H137966   4.728   0.640  11.201 -0.1974 -1.8161 -1.3981
 5517TIP3    H237967   4.782   0.626  11.341 -1.8393  0.1609 -0.5478
 5518TIP3   OH237968   6.462   0.902  11.005 -0.4000  0.1256 -0.1038
 5518TIP3    H137969   6.429   0.932  10.920  1.0484  1.0978 -0.3335
 5518TIP3    H237970   6.556   0.919  11.002 -0.0641 -1.4099  1.0484
 5519TIP3   OH237971   2.294   0.017   0.274 -0.2516 -0.0621 -0.1095
 5519TIP3    H137972   2.299  -0.041   0.350  0.7118 -0.9607 -0.8389
 5519TIP3    H237973   2.208   0.001   0.236 -0.4294 -0.1764  0.3463
 5520TIP3   OH237974   0.911   5.857   2.700  0.6674 -0.3511 -0.3603
 5520TIP3    H137975   0.870   5.808   2.629 -1.4048  1.8292 -0.7302
 5520TIP3    H237976   0.913   5.947   2.668  0.6013  0.5000  1.9600
 5521TIP3   OH237977   4.176   5.167   0.248  0.5563  0.5139  0.5755
 5521TIP3    H137978   4.122   5.118   0.310  0.5012  0.5362  0.5450
 5521TIP3    H237979   4.213   5.239   0.299  0.3708  0.6342  0.5417
 5522TIP3   OH237980   0.681   6.450  10.722  0.0811  0.2243 -0.3310
 5522TIP3    H137981   0.664   6.400  10.802 -0.2755  0.8371 -0.0211
 5522TIP3    H237982   0.675   6.385  10.652  0.3839 -0.3125  0.1385
 5523TIP3   OH237983   2.339   1.171   4.163  0.5727  0.2601 -0.2876
 5523TIP3    H137984   2.264   1.229   4.174  0.0443 -0.0929 -1.9235
 5523TIP3    H237985   2.380   1.169   4.250 -0.6459  1.3453  0.3397
 5524TIP3   OH237986   5.593   3.036  11.403  0.1572 -0.0833 -0.1676
 5524TIP3    H137987   5.520   3.021  11.343  1.2027  2.0336 -2.0694
 5524TIP3    H237988   5.670   3.042  11.347  1.0519  2.8242  1.2413
 5525TIP3   OH237989   2.690   4.659  12.402  0.2197  0.2701  0.5945
 5525TIP3    H137990   2.637   4.618  12.334  0.9438  1.1264 -0.4976
 5525TIP3    H237991   2.777   4.666  12.363  1.4439 -2.1076  2.7358
 5526TIP3   OH237992   5.515   4.287  11.999  0.0169  0.1631 -0.5778
 5526TIP3    H137993   5.454   4.232  12.048  0.3794 -1.4951 -1.9431
 5526TIP3    H237994   5.466   4.314  11.922  0.8978 -0.9924 -1.5703
 5527TIP3   OH237995   1.346   4.255   4.058 -0.3061  0.1433 -0.5213
 5527TIP3    H137996   1.261   4.279   4.094  0.6699  0.4451  1.6421
 5527TIP3    H237997   1.406   4.324   4.088  1.0163 -0.9177 -0.6480
 5528TIP3   OH237998   4.791   3.736  12.846  0.0898 -0.2168 -0.0695
 5528TIP3    H137999   4.824   3.739  12.757  0.4009 -1.4498 -0.0057
 5528TIP3    H238000   4.727   3.665  12.845 -1.3514  1.0606  0.2117
 5529TIP3   OH238001   6.733   3.169   2.641 -1.2449 -0.3127 -0.3432
 5529TIP3    H138002   6.750   3.130   2.726  1.3616  0.3917 -0.5162
 5529TIP3    H238003   6.712   3.095   2.584  0.4600 -1.1269  0.0826
 5530TIP3   OH238004   2.379   0.846   3.459  0.2113  0.1336  0.2795
 5530TIP3    H138005   2.337   0.882   3.381  0.3445  0.4286  0.3468
 5530TIP3    H238006   2.430   0.918   3.495  3.0480 -0.9802 -1.3371
 5531TIP3   OH238007   1.246   5.941  16.742 -0.4123  0.0085  0.3684
 5531TIP3    H138008   1.207   5.855  16.762  2.7124 -1.5801 -0.0233
 5531TIP3    H238009   1.224   5.957  16.651  0.7793 -1.4157 -0.1849
 5532TIP3   OH238010   6.131   6.329   6.041 -0.5358  0.3426 -0.3497
 5532TIP3    H138011   6.145   6.285   6.125 -0.6832 -0.4307 -0.7255
 5532TIP3    H238012   6.212   6.376   6.025 -0.9956  1.5690  0.8645
 5533TIP3   OH238013   4.099   1.696  10.233 -1.0486  0.4117  0.4765
 5533TIP3    H138014   4.101   1.751  10.156 -1.0063  0.0771  0.2382
 5533TIP3    H238015   4.010   1.658  10.234 -1.2040  0.7759  0.8474
 5534TIP3   OH238016   6.275   4.906   4.465  0.6477 -0.0891  0.0335
 5534TIP3    H138017   6.347   4.870   4.414 -0.1956  0.8172 -1.8185
 5534TIP3    H238018   6.270   4.850   4.543  1.3278 -2.0523 -1.3209
 5535TIP3   OH238019   1.627   3.797  14.742  0.2622 -0.6196  0.2714
 5535TIP3    H138020   1.592   3.878  14.705 -1.1843 -1.3717 -0.0708
 5535TIP3    H238021   1.659   3.748  14.666 -1.2712 -1.4857  0.1615
 5536TIP3   OH238022   6.473   6.519   4.692 -0.3091  0.0736  0.2263
 5536TIP3    H138023   6.470   6.459   4.617 -0.7660  2.0023 -1.3548
 5536TIP3    H238024   6.535   6.587   4.665 -0.6793  0.9319  1.5079
 5537TIP3   OH238025   1.077   1.436  13.285  0.0754 -0.2040  0.6901
 5537TIP3    H138026   1.091   1.456  13.192 -2.5875 -0.6342  0.1484
 5537TIP3    H238027   1.156   1.466  13.328  1.0621  0.6827 -1.6392
 5538TIP3   OH238028   3.532   3.588   5.939  0.2093 -0.6044 -0.0476
 5538TIP3    H138029   3.444   3.627   5.937 -0.1794 -1.4721 -0.0709
 5538TIP3    H238030   3.527   3.521   6.007  1.0861 -0.1173  0.4912
 5539TIP3   OH238031   2.405   3.901   0.400 -0.0717  0.0301  0.1256
 5539TIP3    H138032   2.355   3.975   0.435 -0.1730 -0.7017  1.5116
 5539TIP3    H238033   2.458   3.870   0.473  1.2874 -0.1750 -0.9225
 5540TIP3   OH238034   4.385   2.799   1.497  0.2797 -0.2970 -0.1103
 5540TIP3    H138035   4.430   2.771   1.416  0.9594  0.1767  0.0931
 5540TIP3    H238036   4.374   2.719   1.547  2.4641 -0.2149  0.5914
 5541TIP3   OH238037   3.415   0.792  16.437  0.6884  0.1879  0.0303
 5541TIP3    H138038   3.328   0.761  16.461 -0.6222  2.9652 -1.0334
 5541TIP3    H238039   3.429   0.758  16.348  0.6199 -0.0344  0.1022
 5542TIP3   OH238040   3.519   3.262   0.212  0.3040  0.0210 -0.1827
 5542TIP3    H138041   3.603   3.304   0.192  1.2698 -1.8423 -0.1800
 5542TIP3    H238042   3.480   3.245   0.127  0.8276 -0.8347 -0.2639
 5543TIP3   OH238043   6.359   5.272   2.703 -0.7615  0.9659 -0.5708
 5543TIP3    H138044   6.351   5.212   2.629  1.5868  0.3280 -0.3490
 5543TIP3    H238045   6.313   5.228   2.775  0.2684 -0.2206 -0.6250
 5544TIP3   OH238046   1.496   4.949  14.202  0.1914 -0.5157  0.1604
 5544TIP3    H138047   1.591   4.940  14.206  0.4229  0.6712 -2.0327
 5544TIP3    H238048   1.481   5.024  14.145 -2.0705 -1.0421  0.0010
 5545TIP3   OH238049   1.195   5.475   0.392 -0.2003 -0.2303 -0.3886
 5545TIP3    H138050   1.225   5.514   0.310 -1.6217  0.5949 -0.5429
 5545TIP3    H238051   1.183   5.549   0.451 -1.7743 -0.5250 -0.2986
 5546TIP3   OH238052   2.029   5.015  15.676  0.5455  0.9893 -0.3465
 5546TIP3    H138053   2.078   4.945  15.631 -0.0864  0.3229 -0.0158
 5546TIP3    H238054   2.063   5.015  15.765  0.8057  1.3486 -0.4495
 5547TIP3   OH238055   5.458   0.915  16.151  0.1258 -0.1062  0.2887
 5547TIP3    H138056   5.519   0.931  16.223 -0.1415  0.6492  0.3557
 5547TIP3    H238057   5.402   0.993  16.150  0.3866  0.0637 -0.9884
 5548TIP3   OH238058   6.093   0.113   2.612 -0.0612  0.1766 -0.7413
 5548TIP3    H138059   6.139   0.193   2.587  1.0453 -0.2150  0.0214
 5548TIP3    H238060   6.139   0.043   2.567 -1.2989 -0.0029 -1.7573
 5549TIP3   OH238061   6.035   0.627  11.495  0.2518  0.8610 -0.3130
 5549TIP3    H138062   5.997   0.714  11.509  1.5792  1.4501 -0.3372
 5549TIP3    H238063   6.111   0.642  11.438 -0.3923 -0.5098 -1.5844
 5550TIP3   OH238064   1.024   3.070   3.686  0.2880  0.0158 -0.2995
 5550TIP3    H138065   1.090   3.001   3.688  0.8395  0.5407 -0.3910
 5550TIP3    H238066   0.949   3.033   3.732  0.1093 -1.1403 -1.4863
 5551TIP3   OH238067   6.557   5.935  12.856  0.1199  0.0530 -0.0071
 5551TIP3    H138068   6.598   5.892  12.781 -0.0172 -1.9775  1.0644
 5551TIP3    H238069   6.530   5.864  12.914  1.0362  1.6063  2.4273
 5552TIP3   OH238070   4.078   6.777  13.912  0.0657 -0.3750 -0.4185
 5552TIP3    H138071   4.025   6.826  13.974  0.4607 -0.8288  0.2799
 5552TIP3    H238072   4.142   6.840  13.879  0.5078 -0.3969  0.4010
 5553TIP3   OH238073   3.917   4.478   6.565  0.2643  0.1879  0.0535
 5553TIP3    H138074   3.934   4.385   6.551 -1.9444 -0.5065  1.7739
 5553TIP3    H238075   3.824   4.482   6.586  0.1498  2.8951 -0.8166
 5554TIP3   OH238076   3.341   1.673  13.390  0.3473 -0.1194 -0.3860
 5554TIP3    H138077   3.271   1.723  13.434 -0.3829 -1.3371 -0.1400
 5554TIP3    H238078   3.366   1.606  13.454  1.1008 -0.2713 -0.8375
 5555TIP3   OH238079   1.468   1.375   3.191  0.3539  0.2941  0.2962
 5555TIP3    H138080   1.404   1.443   3.211 -1.4091 -1.1655 -0.2930
 5555TIP3    H238081   1.434   1.332   3.113  1.0855 -1.7415  1.0688
 5556TIP3   OH238082   3.687   6.505  12.110  0.0788  0.0358 -0.2310
 5556TIP3    H138083   3.660   6.415  12.127  0.2238  0.0317 -0.0303
 5556TIP3    H238084   3.612   6.544  12.063 -0.1755 -0.0467  0.1084
 5557TIP3   OH238085   4.860   1.258  12.639 -0.3379  0.1053 -0.5823
 5557TIP3    H138086   4.909   1.308  12.704 -1.6868  0.3091  0.2837
 5557TIP3    H238087   4.879   1.302  12.556 -0.8369  1.5464  0.0587
 5558TIP3   OH238088   1.868   6.415   4.470 -0.0318 -0.2623  0.2453
 5558TIP3    H138089   1.882   6.369   4.553 -0.8840 -0.3617  0.3433
 5558TIP3    H238090   1.788   6.466   4.485 -1.1097 -1.5249 -1.0408
 5559TIP3   OH238091   4.451   2.928  16.754 -0.3396  0.7161  0.3631
 5559TIP3    H138092   4.435   3.014  16.714  0.8138  0.6506 -0.2843
 5559TIP3    H238093   4.422   2.865  16.688  1.4698  0.6068 -0.3605
 5560TIP3   OH238094   2.549   3.734  16.645  0.3810 -0.2684  0.5981
 5560TIP3    H138095   2.565   3.819  16.605  2.0159 -0.7156  0.2509
 5560TIP3    H238096   2.613   3.729  16.716  1.0778 -1.6470 -0.1012
 5561TIP3   OH238097   3.721   2.828   2.980  0.1363 -0.2800  0.1282
 5561TIP3    H138098   3.782   2.886   2.934  0.5780 -1.9860 -1.5091
 5561TIP3    H238099   3.770   2.796   3.056  0.6534 -0.1977 -0.1681
 5562TIP3   OH238100   5.624   2.426  15.747  0.0636 -0.2055 -0.0950
 5562TIP3    H138101   5.682   2.422  15.670  0.0606  0.0625 -0.1121
 5562TIP3    H238102   5.551   2.368  15.725  1.4725 -2.3929  0.8981
 5563TIP3   OH238103   0.137   6.732  13.664 -0.0932  0.1019  1.0462
 5563TIP3    H138104   0.113   6.705  13.752  2.2422  1.6766  2.2379
 5563TIP3    H238105   0.173   6.653  13.623 -0.9744 -0.5814  1.5752
 5564TIP3   OH238106   1.561   5.922   5.399 -0.6088  0.4820  0.0506
 5564TIP3    H138107   1.621   5.979   5.351 -3.0895  2.3729 -0.9075
 5564TIP3    H238108   1.596   5.920   5.488  0.5916  1.9730 -0.3771
 5565TIP3   OH238109   3.041   3.577   0.596 -0.0742 -0.0125 -0.0666
 5565TIP3    H138110   3.136   3.583   0.603 -0.0371 -1.5588  0.8715
 5565TIP3    H238111   3.025   3.533   0.513 -0.0353  1.9042 -1.1129
 5566TIP3   OH238112   3.504   2.538  14.668 -0.0448  0.3894  0.7397
 5566TIP3    H138113   3.469   2.504  14.586  1.9226  0.5844 -0.2189
 5566TIP3    H238114   3.514   2.461  14.723  1.7830 -0.2525 -0.4351
 5567TIP3   OH238115   5.894   5.173  12.522  0.4209  0.0211 -0.1481
 5567TIP3    H138116   5.945   5.108  12.571  1.3804 -0.8665 -2.2573
 5567TIP3    H238117   5.806   5.134  12.517  0.9640 -1.0869 -1.3099
 5568TIP3   OH238118   3.962   1.551   4.615  0.0431  0.0370  0.6523
 5568TIP3    H138119   3.891   1.527   4.555  0.6872  1.7601 -0.8402
 5568TIP3    H238120   3.997   1.467   4.646 -1.7128 -0.8365  0.2909
 5569TIP3   OH238121   0.631   2.237   3.305  0.6068  0.6143 -0.5602
 5569TIP3    H138122   0.702   2.302   3.308 -0.5787  1.9489 -0.9322
 5569TIP3    H238123   0.574   2.267   3.234 -0.2263 -0.5650 -0.4013
 5570TIP3   OH238124   0.201   0.620   2.318 -0.5891 -0.1952  0.2296
 5570TIP3    H138125   0.257   0.688   2.355 -0.2508 -2.7905  4.8235
 5570TIP3    H238126   0.116   0.664   2.307 -0.1679  1.2187  2.2841
 5571TIP3   OH238127   5.884   5.564  13.037 -0.1141 -0.2725 -0.1956
 5571TIP3    H138128   5.818   5.609  13.090  1.0166  1.2650 -0.0960
 5571TIP3    H238129   5.853   5.574  12.947 -0.3593 -0.1268 -0.0962
 5572TIP3   OH238130   5.576   3.919  12.069 -0.3625 -0.0214  0.4216
 5572TIP3    H138131   5.542   3.925  11.980 -0.3953 -0.4438  0.4024
 5572TIP3    H238132   5.653   3.862  12.061 -1.0128 -0.9774  0.8396
 5573TIP3   OH238133   3.647   4.174   1.558 -0.3659 -0.1397  0.3960
 5573TIP3    H138134   3.601   4.257   1.574 -0.4142 -0.3085  1.1181
 5573TIP3    H238135   3.732   4.201   1.522 -1.5354  0.1354 -2.2755
 5574TIP3   OH238136   0.540   5.095  11.846 -0.0335 -0.0559  0.8649
 5574TIP3    H138137   0.552   5.184  11.879 -2.3720  0.2140  1.0245
 5574TIP3    H238138   0.618   5.048  11.878  2.5398  2.4949 -1.4252
 5575TIP3   OH238139   1.046   2.975  12.535  0.0038 -0.4050 -0.7239
 5575TIP3    H138140   1.026   2.895  12.584  0.0572 -0.9835 -1.6282
 5575TIP3    H238141   1.027   3.046  12.596 -2.0834 -1.0348 -0.6072
 5576TIP3   OH238142   0.889   0.622  15.088 -0.1550 -0.0408 -0.1500
 5576TIP3    H138143   0.967   0.569  15.067 -1.2342 -1.3016 -1.0524
 5576TIP3    H238144   0.861   0.658  15.004 -2.2024 -1.9173 -0.3040
 5577TIP3   OH238145   6.588   1.802  10.946 -0.2759  0.2004  0.6677
 5577TIP3    H138146   6.548   1.796  10.859  0.2781 -2.6264  0.5524
 5577TIP3    H238147   6.652   1.872  10.939 -1.3991  1.1234 -0.6997
 5578TIP3   OH238148   5.369   3.384   6.679 -0.5805 -0.7279  0.0214
 5578TIP3    H138149   5.330   3.396   6.766  0.5838 -2.4784  0.8297
 5578TIP3    H238150   5.294   3.376   6.620 -1.3692  1.4169  0.7141
 5579TIP3   OH238151   3.401   3.196  16.414  0.3644 -0.5343  0.3837
 5579TIP3    H138152   3.422   3.259  16.483 -0.0310 -0.5743  0.5395
 5579TIP3    H238153   3.306   3.191  16.414  0.4219 -1.9102  1.0686
 5580TIP3   OH238154   1.500   2.201  14.776  0.0215 -0.2560  0.2568
 5580TIP3    H138155   1.444   2.126  14.798 -0.7251  0.3653  0.5163
 5580TIP3    H238156   1.544   2.175  14.695 -0.6848 -0.7347  0.0198
 5581TIP3   OH238157   4.664   6.300   1.997  0.4170 -0.3530 -0.1849
 5581TIP3    H138158   4.570   6.316   2.007  0.9183  1.4200  2.3249
 5581TIP3    H238159   4.670   6.228   1.935 -2.6865 -1.6230  0.8877
 5582TIP3   OH238160   5.282   4.850  10.788  0.5008 -0.7263  0.0680
 5582TIP3    H138161   5.353   4.898  10.829 -0.6486  0.2206  0.9942
 5582TIP3    H238162   5.248   4.793  10.858 -0.3603 -0.3639 -0.0509
 5583TIP3   OH238163   5.177   6.472  13.232  0.1843 -0.3953 -0.1927
 5583TIP3    H138164   5.125   6.431  13.301  1.7791 -0.9204  0.7405
 5583TIP3    H238165   5.131   6.452  13.151 -0.8688 -1.1304  0.5829
 5584TIP3   OH238166   1.899   0.108   0.872  0.3422  0.1706  0.1836
 5584TIP3    H138167   1.897   0.131   0.965 -0.2741  2.1266 -0.2863
 5584TIP3    H238168   1.932   0.018   0.870  1.5382  0.5365  2.2053
 5585TIP3   OH238169   3.590   5.956   5.442  0.1688 -0.1019  0.2380
 5585TIP3    H138170   3.658   5.964   5.509  1.4860  3.8715 -1.3756
 5585TIP3    H238171   3.639   5.943   5.360 -1.1037  0.4314 -0.6236
 5586TIP3   OH238172   5.817   4.102  13.070  0.6342 -0.2918 -0.3428
 5586TIP3    H138173   5.885   4.155  13.113  1.1935 -0.3294 -1.1647
 5586TIP3    H238174   5.789   4.156  12.996  0.4374 -0.6879 -0.5534
 5587TIP3   OH238175   2.391   3.144  15.730 -0.1899 -0.2709 -0.2738
 5587TIP3    H138176   2.437   3.101  15.658  2.0268  0.4395  0.6615
 5587TIP3    H238177   2.374   3.233  15.699  1.2796  0.2118  0.2651
 5588TIP3   OH238178   1.337   3.147  14.965  0.0855  0.0011 -0.2173
 5588TIP3    H138179   1.303   3.213  14.904  2.6495  1.5998  0.0303
 5588TIP3    H238180   1.282   3.070  14.949 -3.0018  2.1506 -0.4893
 5589TIP3   OH238181   1.204   4.326  15.367  0.6213  0.1732  0.6003
 5589TIP3    H138182   1.160   4.388  15.426 -0.8156  1.4931 -1.8112
 5589TIP3    H238183   1.148   4.322  15.290  2.5096 -1.5010 -0.7182
 5590TIP3   OH238184   0.704   2.435   3.701  0.1093  0.1969  0.4366
 5590TIP3    H138185   0.634   2.374   3.724  0.4985 -1.2215 -2.0348
 5590TIP3    H238186   0.664   2.497   3.640  0.8589 -0.3380 -0.6199
 5591TIP3   OH238187   0.928   5.950   4.151 -0.3427 -0.1572  0.6039
 5591TIP3    H138188   1.002   6.008   4.138  0.1371 -0.8754  0.0464
 5591TIP3    H238189   0.944   5.877   4.091 -1.5448 -0.2762  0.4003
 5592TIP3   OH238190   1.470   5.001   2.719  0.1904 -0.4103  0.1314
 5592TIP3    H138191   1.425   4.923   2.687  1.4673 -1.1551  0.1164
 5592TIP3    H238192   1.400   5.057   2.753 -0.9316 -0.6509 -1.7246
 5593TIP3   OH238193   5.898   6.106   3.634 -0.1441 -0.3149 -0.1598
 5593TIP3    H138194   5.822   6.122   3.578  0.1332 -2.8948 -1.3663
 5593TIP3    H238195   5.961   6.064   3.576  1.8892  0.9942  1.0412
 5594TIP3   OH238196   5.950   1.711  12.993 -0.5609  0.1819 -0.4102
 5594TIP3    H138197   5.985   1.697  12.905 -1.3604  0.2980 -0.7548
 5594TIP3    H238198   6.014   1.669  13.051 -0.7539 -1.1738 -1.1446
 5595TIP3   OH238199   3.262   3.689   5.994  0.0164  0.6813  0.3335
 5595TIP3    H138200   3.211   3.638   6.058  0.7127  0.3086  0.6000
 5595TIP3    H238201   3.238   3.780   6.011 -0.1846  0.5459  0.7974
 5596TIP3   OH238202   6.590   1.089  11.518 -0.1617 -0.1453 -0.0913
 5596TIP3    H138203   6.677   1.059  11.493 -0.5813 -0.6276 -1.0341
 5596TIP3    H238204   6.562   1.027  11.585 -0.2177 -0.6779 -0.5942
 5597TIP3   OH238205   4.370   1.894   0.919  0.2998 -0.8989  0.0345
 5597TIP3    H138206   4.325   1.973   0.948  0.4353 -0.8613  0.1442
 5597TIP3    H238207   4.453   1.894   0.968  0.9463 -0.3501 -1.0324
 5598TIP3   OH238208   2.781   1.740   2.766 -0.5595  0.0109  0.4283
 5598TIP3    H138209   2.861   1.703   2.802  0.0762  1.0961  0.1606
 5598TIP3    H238210   2.744   1.792   2.837 -2.0240 -1.9823  1.1578
 5599TIP3   OH238211   4.293   6.133   0.909  0.0976  0.1775 -0.2220
 5599TIP3    H138212   4.252   6.073   0.848  0.2563  1.3904 -1.5502
 5599TIP3    H238213   4.219   6.171   0.958 -0.3746  1.7560 -2.0541
 5600TIP3   OH238214   5.723   6.723   5.243  0.2794 -0.2577  0.3626
 5600TIP3    H138215   5.631   6.697   5.238  0.2227 -0.2536  1.2618
 5600TIP3    H238216   5.722   6.805   5.293  0.4790  1.3714 -2.1604
 5601TIP3   OH238217   2.049   3.792   4.606 -0.2877 -0.3190 -0.1216
 5601TIP3    H138218   2.022   3.781   4.697 -0.5798 -1.6714 -0.3480
 5601TIP3    H238219   2.026   3.882   4.584  1.4900  0.6168  1.6874
 5602TIP3   OH238220   0.532   6.565  14.321  0.6888  0.2808  0.1296
 5602TIP3    H138221   0.445   6.590  14.354  0.6924  1.1756 -0.5238
 5602TIP3    H238222   0.536   6.470  14.335 -0.6043  0.1529 -0.3166
 5603TIP3   OH238223   3.067   2.704   3.132  0.2136  0.0849 -0.2760
 5603TIP3    H138224   3.051   2.642   3.061  4.8584  0.4908 -1.8570
 5603TIP3    H238225   3.085   2.650   3.209 -1.0277 -0.3947 -0.3068
 5604TIP3   OH238226   3.980   4.369   0.681 -0.2083 -0.3686  0.1567
 5604TIP3    H138227   4.034   4.446   0.665  1.0448 -1.7303 -2.4178
 5604TIP3    H238228   4.016   4.330   0.761 -0.5509  1.4043  1.2029
 5605TIP3   OH238229   5.529   5.669   0.487  0.1794  0.3119 -0.0746
 5605TIP3    H138230   5.555   5.700   0.401  0.3549 -2.2419 -0.9994
 5605TIP3    H238231   5.610   5.670   0.539  0.9722 -1.9512 -1.1787
 5606TIP3   OH238232   2.964   0.010  14.114  0.5502 -0.2631 -0.1465
 5606TIP3    H138233   2.901  -0.005  14.044 -0.1707  0.1497  0.3966
 5606TIP3    H238234   2.947   0.101  14.142  1.3267 -0.1802  0.0553
 5607TIP3   OH238235   2.875   3.869   5.498  0.2925  0.0384  0.3718
 5607TIP3    H138236   2.908   3.851   5.586  0.3091 -1.0809  0.1333
 5607TIP3    H238237   2.915   3.954   5.476  0.0452  0.4827  1.5507
 5608TIP3   OH238238   5.306   3.633   3.970  0.4562  0.0150  0.3311
 5608TIP3    H138239   5.375   3.699   3.959 -0.6389  1.2942  1.0540
 5608TIP3    H238240   5.256   3.663   4.046 -1.1046 -0.7326 -0.3842
 5609TIP3   OH238241   6.014   4.370   4.939 -0.1233 -0.7162 -0.2726
 5609TIP3    H138242   6.001   4.310   4.866 -0.7722 -0.6827 -0.1911
 5609TIP3    H238243   5.925   4.396   4.965  0.1406  0.0270 -0.1019
 5610TIP3   OH238244   0.285   2.431  12.655 -0.1356 -0.9295  0.3052
 5610TIP3    H138245   0.201   2.439  12.609  0.6459  0.4591 -0.9434
 5610TIP3    H238246   0.330   2.359  12.610  0.2564 -0.1608 -0.5783
 5611TIP3   OH238247   2.454   0.887   4.988  0.0623 -0.4214 -0.0586
 5611TIP3    H138248   2.438   0.913   4.898 -0.7686  0.5070  0.3412
 5611TIP3    H238249   2.378   0.834   5.012  0.6339 -1.2844 -0.1310
 5612TIP3   OH238250   1.311   2.297  15.947  0.1664 -0.4253 -0.4677
 5612TIP3    H138251   1.336   2.341  15.866  0.4356 -1.6137 -1.0277
 5612TIP3    H238252   1.376   2.326  16.011  0.6230 -0.3802 -0.9498
 5613TIP3   OH238253   4.847   6.741   4.154  0.0845 -0.1435  0.2051
 5613TIP3    H138254   4.849   6.837   4.153 -2.8031 -0.0266  0.7895
 5613TIP3    H238255   4.851   6.717   4.246 -1.9696 -0.4272  0.2614
 5614TIP3   OH238256   0.179   4.604  13.975  0.3198  0.6889 -0.5634
 5614TIP3    H138257   0.237   4.632  13.904 -1.6042 -1.2572 -2.9681
 5614TIP3    H238258   0.093   4.595  13.935 -1.0145  0.4051  2.2267
 5615TIP3   OH238259   4.056   4.346  10.962 -0.0147  0.0344 -1.0656
 5615TIP3    H138260   3.983   4.307  11.009  0.0167 -0.9403 -1.8038
 5615TIP3    H238261   4.088   4.275  10.906  1.8072  0.2998 -0.3812
 5616TIP3   OH238262   2.787   3.501   4.806  0.6526  0.2547 -1.3157
 5616TIP3    H138263   2.769   3.412   4.836  0.4180  1.2201  1.5247
 5616TIP3    H238264   2.717   3.519   4.743 -1.8362 -0.0925  1.2251
 5617TIP3   OH238265   2.260   4.933  14.247  0.4495 -0.2089 -0.1405
 5617TIP3    H138266   2.309   5.007  14.285 -2.9036  0.4892  3.1894
 5617TIP3    H238267   2.318   4.858  14.258  1.4891  0.8717  2.1999
 5618TIP3   OH238268   6.347   5.520  16.642  0.2552  0.1095  0.3227
 5618TIP3    H138269   6.384   5.435  16.617  0.7112  0.6490 -0.8329
 5618TIP3    H238270   6.294   5.500  16.719  1.9688 -0.8946  1.2820
 5619TIP3   OH238271   3.415   1.366   0.930 -0.1675  0.0279 -0.6896
 5619TIP3    H138272   3.418   1.428   1.003  1.2458 -1.2941  0.4197
 5619TIP3    H238273   3.322   1.347   0.918 -0.4672  0.8504  0.2715
 5620TIP3   OH238274   4.473   5.787  14.602 -0.0650  0.4790 -0.4687
 5620TIP3    H138275   4.442   5.830  14.522 -0.0643  0.6243 -0.3916
 5620TIP3    H238276   4.550   5.839  14.628 -0.3288  0.7026 -0.1281
 5621TIP3   OH238277   6.237   6.168   0.912  0.4801 -0.8654  0.4000
 5621TIP3    H138278   6.166   6.225   0.942  1.1676  0.5473 -0.5965
 5621TIP3    H238279   6.293   6.157   0.989  0.3823 -0.1255  0.5809
 5622TIP3   OH238280   1.469   2.854   4.389  0.2943  0.3787  0.3050
 5622TIP3    H138281   1.448   2.931   4.443 -0.8132 -0.4725  1.1175
 5622TIP3    H238282   1.384   2.815   4.370  0.7492  0.2009 -1.3892
 5623TIP3   OH238283   4.828   5.656   2.038  0.2055 -0.9670 -0.0797
 5623TIP3    H138284   4.761   5.715   2.073 -0.3933 -1.4657 -0.3826
 5623TIP3    H238285   4.844   5.688   1.949  1.8321  0.3888  0.6500
 5624TIP3   OH238286   3.311   2.909  11.455 -0.3179  0.0412 -0.1404
 5624TIP3    H138287   3.228   2.908  11.501  0.0821  3.0419  0.8135
 5624TIP3    H238288   3.362   2.839  11.494 -2.3261 -1.7227 -0.6385
 5625TIP3   OH238289   4.274   1.148  16.241  0.4199  0.4830  0.1601
 5625TIP3    H138290   4.202   1.129  16.180 -0.9556  1.5260  1.4126
 5625TIP3    H238291   4.271   1.075  16.303 -1.7500  2.1839  2.1502
 5626TIP3   OH238292   0.271   4.211   1.884 -0.0639 -0.4429  0.0613
 5626TIP3    H138293   0.342   4.277   1.885 -0.1204 -0.3672 -0.7933
 5626TIP3    H238294   0.275   4.174   1.796  0.1986 -1.8451  0.6593
 5627TIP3   OH238295   5.013   6.497  15.085 -0.8477 -0.5289  0.1378
 5627TIP3    H138296   5.047   6.466  15.001 -2.3884 -1.0798 -0.3024
 5627TIP3    H238297   4.970   6.420  15.122 -0.4497 -0.1998  1.3011
 5628TIP3   OH238298   0.427   3.694  15.690 -0.2136  0.3648 -0.7654
 5628TIP3    H138299   0.453   3.710  15.780 -2.3313 -1.5259  0.2345
 5628TIP3    H238300   0.503   3.651  15.650  0.2194 -0.1132  0.5459
 5629TIP3   OH238301   5.833   1.695   5.472  0.2895  0.0600 -0.0355
 5629TIP3    H138302   5.879   1.779   5.470 -1.1310  0.9148  2.0774
 5629TIP3    H238303   5.741   1.717   5.464  0.0485 -1.5055 -2.0082
 5630TIP3   OH238304   2.999   2.096  13.661 -0.2219 -0.5800  0.3340
 5630TIP3    H138305   3.053   2.111  13.584  1.5370 -1.2355  1.4203
 5630TIP3    H238306   2.981   2.184  13.695  3.2904 -0.4549  2.0643
 5631TIP3   OH238307   6.605   3.265  14.999 -0.3522  0.3659  0.0987
 5631TIP3    H138308   6.627   3.321  14.926 -0.2512  0.4746  0.2125
 5631TIP3    H238309   6.687   3.224  15.025 -0.2731  0.8036  0.5492
 5632TIP3   OH238310   3.561   1.095   2.848  0.0255  0.2398 -0.0105
 5632TIP3    H138311   3.581   1.003   2.831  0.8344  0.0348  1.8388
 5632TIP3    H238312   3.618   1.144   2.788 -0.8141 -0.4592 -1.3917
 5633TIP3   OH238313   1.341   5.979  13.705 -0.2153  0.5568  0.1094
 5633TIP3    H138314   1.250   5.958  13.728 -1.3313  2.6360 -2.1118
 5633TIP3    H238315   1.359   6.061  13.750 -0.3208  1.4517 -1.4553
 5634TIP3   OH238316   5.794   5.882   3.342 -0.0433 -0.0567  0.4344
 5634TIP3    H138317   5.807   5.838   3.258  0.8145  1.1345 -0.0616
 5634TIP3    H238318   5.701   5.871   3.361 -0.3925  0.3033 -1.0317
 5635TIP3   OH238319   2.472   6.521  11.589 -0.0629  0.1205  0.1514
 5635TIP3    H138320   2.474   6.612  11.561  1.1336  0.5152  1.4448
 5635TIP3    H238321   2.484   6.470  11.508  2.2523  1.1991 -0.2314
 5636TIP3   OH238322   6.171   1.844   1.022  0.0345 -0.5648 -0.2013
 5636TIP3    H138323   6.225   1.846   0.943  1.1848  0.2222  0.5920
 5636TIP3    H238324   6.083   1.866   0.992  0.7106  0.9804 -1.0685
 5637TIP3   OH238325   3.787   2.263  16.171  0.3249  0.5071 -0.3261
 5637TIP3    H138326   3.752   2.264  16.082  1.3779  0.4331 -0.7418
 5637TIP3    H238327   3.786   2.355  16.197  0.2186  0.5515 -0.4819
 5638TIP3   OH238328   0.931   0.752   5.632  0.5623 -0.3608  0.1328
 5638TIP3    H138329   0.883   0.824   5.591 -1.1245 -1.4810  0.0669
 5638TIP3    H238330   0.877   0.727   5.707  1.7679 -0.7351  0.8986
 5639TIP3   OH238331   3.456   5.558  15.242  0.0135 -0.5099  0.3656
 5639TIP3    H138332   3.435   5.465  15.230  1.0706 -0.9901  2.0171
 5639TIP3    H238333   3.440   5.597  15.156 -0.9079 -2.1239 -0.2341
 5640TIP3   OH238334   6.431   6.764   3.697  0.2558 -0.0357  0.1158
 5640TIP3    H138335   6.401   6.685   3.653 -0.7127  0.0712  0.5902
 5640TIP3    H238336   6.498   6.800   3.637  2.0578 -2.1854  0.7588
 5641TIP3   OH238337   2.996   3.596  15.879 -0.2499 -0.1042  0.3430
 5641TIP3    H138338   3.023   3.505  15.894 -0.0316 -0.2270 -0.7570
 5641TIP3    H238339   2.925   3.590  15.815 -1.0178  0.4200  1.1448
 5642TIP3   OH238340   4.641   3.055   3.851  0.5616  0.1471  0.1067
 5642TIP3    H138341   4.735   3.041   3.862  0.9763  2.3383 -0.3001
 5642TIP3    H238342   4.616   3.109   3.926 -0.0416  0.8815 -0.6078
 5643TIP3   OH238343   0.385   6.158  16.626  0.0894  0.3203  0.0489
 5643TIP3    H138344   0.426   6.245  16.626  1.2986 -0.2077  2.2122
 5643TIP3    H238345   0.308   6.168  16.570 -1.0973  3.4364  2.0883
 5644TIP3   OH238346   4.867   1.106  13.092 -0.2930  0.3618  0.8667
 5644TIP3    H138347   4.819   1.146  13.020  0.8455 -0.0332 -0.1249
 5644TIP3    H238348   4.860   1.012  13.077  0.8436  0.3006  0.6728
 5645TIP3   OH238349   0.372   5.624   4.980 -0.1726 -0.7029 -0.3784
 5645TIP3    H138350   0.368   5.618   4.884  0.7997  0.5858 -0.5153
 5645TIP3    H238351   0.466   5.621   5.000 -0.3537 -0.5209  0.5056
 5646TIP3   OH238352   1.809   3.685  15.224  0.1654 -0.1149  0.1780
 5646TIP3    H138353   1.716   3.705  15.214 -0.0850 -0.2215  2.1301
 5646TIP3    H238354   1.853   3.768  15.205 -0.2866 -0.1486 -1.0963
 5647TIP3   OH238355   4.773   6.065   3.150  0.4111  0.1720  0.0171
 5647TIP3    H138356   4.733   6.089   3.067  0.4389  0.4181  0.0752
 5647TIP3    H238357   4.756   6.139   3.208 -0.3782 -0.3763  0.4970
 5648TIP3   OH238358   2.137   2.614  14.614  0.3923  0.4429 -0.6824
 5648TIP3    H138359   2.168   2.662  14.537  1.6724  1.0089  0.1615
 5648TIP3    H238360   2.217   2.583  14.656 -0.4013 -1.8087 -0.7971
 5649TIP3   OH238361   0.774   5.653   3.676  0.3038 -0.0935  0.1596
 5649TIP3    H138362   0.733   5.739   3.668 -0.1714 -0.0423  2.6588
 5649TIP3    H238363   0.867   5.671   3.689  0.4231 -0.0144 -0.8193
 5650TIP3   OH238364   1.641   3.572   5.870 -0.2084  0.7912 -0.6195
 5650TIP3    H138365   1.595   3.651   5.898  0.4376  0.9161  0.1037
 5650TIP3    H238366   1.680   3.594   5.786  1.9885  2.0324  0.6933
 5651TIP3   OH238367   6.598   3.620   3.516  0.4653  0.3667  0.0237
 5651TIP3    H138368   6.523   3.680   3.509 -1.7825 -2.1486  1.3466
 5651TIP3    H238369   6.652   3.657   3.585 -2.1789 -0.3345  2.5902
 5652TIP3   OH238370   1.007   1.996   5.196  0.0736  0.1328 -0.5622
 5652TIP3    H138371   0.994   2.036   5.282 -0.2998 -1.0082 -0.0707
 5652TIP3    H238372   1.102   1.992   5.185  0.1810 -1.5934  0.7203
 5653TIP3   OH238373   5.020   2.615  13.972 -0.0804 -0.0846  0.6473
 5653TIP3    H138374   5.048   2.572  13.891  0.5482 -0.7006  1.1789
 5653TIP3    H238375   4.939   2.569  13.996 -0.3331  0.1822  0.2990
 5654TIP3   OH238376   5.330   2.056   1.791  0.2986  0.2128 -0.4250
 5654TIP3    H138377   5.316   2.037   1.698 -0.4614 -1.9159  0.0787
 5654TIP3    H238378   5.322   1.970   1.833  3.8039  0.6355  1.2518
 5655TIP3   OH238379   2.872   0.867   3.123 -0.0169  0.5055  0.8473
 5655TIP3    H138380   2.848   0.821   3.043 -0.5061  1.1758  0.6108
 5655TIP3    H238381   2.872   0.959   3.099  2.9884  0.5253  0.7792
 5656TIP3   OH238382   5.925   1.790   6.336 -0.2419 -0.8666  0.0912
 5656TIP3    H138383   5.831   1.783   6.350 -0.5719  3.4891  0.7805
 5656TIP3    H238384   5.962   1.801   6.424  1.0542 -3.3387 -0.0912
 5657TIP3   OH238385   0.519   2.197   1.591  0.2808  0.0269 -0.2706
 5657TIP3    H138386   0.474   2.262   1.537  0.0354  0.5125  0.5133
 5657TIP3    H238387   0.611   2.221   1.585  0.4130 -0.7637 -1.6025
 5658TIP3   OH238388   1.340   2.775  16.324  0.1515 -0.6064 -0.3881
 5658TIP3    H138389   1.249   2.761  16.350  0.3338 -1.9435 -0.4504
 5658TIP3    H238390   1.377   2.828  16.395 -0.0467 -2.0677  0.8395
 5659TIP3   OH238391   0.208   4.337   3.346 -1.0801 -0.1075 -0.2916
 5659TIP3    H138392   0.203   4.431   3.331  1.0475  0.1387  0.3513
 5659TIP3    H238393   0.117   4.309   3.355 -1.6974  2.0283  0.3814
 5660TIP3   OH238394   1.888   4.048  13.837  0.6255  0.1826  0.3515
 5660TIP3    H138395   1.856   4.062  13.748 -0.5815 -2.9106  0.2031
 5660TIP3    H238396   1.811   4.063  13.892  0.3037 -1.7863  0.4811
 5661TIP3   OH238397   3.285   1.179   4.245  0.6078 -0.4374 -0.2941
 5661TIP3    H138398   3.349   1.115   4.277  2.0653 -0.1616 -2.5325
 5661TIP3    H238399   3.200   1.137   4.259  1.3316 -1.2716  1.7185
 5662TIP3   OH238400   6.410   5.717  12.975  0.3888 -0.2647  0.8258
 5662TIP3    H138401   6.362   5.641  12.942  0.6852 -0.7265  1.4573
 5662TIP3    H238402   6.344   5.786  12.982  0.5636  0.2508 -2.0349
 5663TIP3   OH238403   2.871   5.772   1.250 -0.1222  0.0150  0.5445
 5663TIP3    H138404   2.828   5.693   1.218 -0.2253 -0.1564  1.1079
 5663TIP3    H238405   2.826   5.844   1.204 -0.3279 -0.2219  0.3747
 5664TIP3   OH238406   5.838   2.611   1.136 -0.5298 -0.3210 -0.2291
 5664TIP3    H138407   5.911   2.604   1.076 -1.5443 -0.2661 -1.4877
 5664TIP3    H238408   5.777   2.542   1.109 -1.1216 -0.1198  0.5529
 5665TIP3   OH238409   0.565   6.476  16.972 -0.1212  0.3379  0.5422
 5665TIP3    H138410   0.506   6.474  17.047 -1.6471 -1.3881 -0.6351
 5665TIP3    H238411   0.558   6.388  16.934  0.0747  1.3737 -2.0088
 5666TIP3   OH238412   3.486   5.091   3.216  0.2596 -0.0744 -0.2046
 5666TIP3    H138413   3.398   5.054   3.207  0.0520  0.4188 -0.2540
 5666TIP3    H238414   3.544   5.024   3.182  0.1213 -1.4877  2.2137
 5667TIP3   OH238415   3.024   1.484  14.752 -0.1223  0.5180  0.2869
 5667TIP3    H138416   3.022   1.544  14.827  2.3624 -1.4676  2.0307
 5667TIP3    H238417   2.996   1.400  14.788  3.8658 -1.1464 -0.2639
 5668TIP3   OH238418   6.297   0.179   3.795  0.3802 -0.6705  0.1329
 5668TIP3    H138419   6.319   0.268   3.768 -0.4833 -0.0348  1.5075
 5668TIP3    H238420   6.349   0.123   3.737  2.0768  0.7352  0.2629
 5669TIP3   OH238421   3.499   1.258   0.319  0.5771 -0.5712  0.3296
 5669TIP3    H138422   3.531   1.183   0.269  3.7853 -0.1712  1.6791
 5669TIP3    H238423   3.470   1.221   0.403  0.2243 -0.5601  0.2133
 5670TIP3   OH238424   1.807   5.993  15.935  0.0431 -0.5151  0.4675
 5670TIP3    H138425   1.795   6.034  15.850  2.5743  1.4644  1.0395
 5670TIP3    H238426   1.718   5.968  15.961 -1.6737  4.6584  0.1281
 5671TIP3   OH238427   0.085   4.208  17.021  0.4156 -0.2305 -0.4040
 5671TIP3    H138428   0.141   4.281  17.045 -0.8403  0.5009  0.3125
 5671TIP3    H238429   0.109   4.138  17.081 -0.2115  0.4447  0.6548
 5672TIP3   OH238430   6.504   5.301  14.955 -0.4939  0.1811 -0.0316
 5672TIP3    H138431   6.433   5.249  14.918 -1.5834  0.9394  0.9799
 5672TIP3    H238432   6.506   5.278  15.047  1.6586 -1.0536 -0.3483
 5673TIP3   OH238433   2.168   4.993   4.447  0.2001 -0.4684 -0.6662
 5673TIP3    H138434   2.129   5.036   4.371 -2.3346 -2.4345 -0.5723
 5673TIP3    H238435   2.162   5.058   4.517 -0.8158  0.1037 -1.2597
 5674TIP3   OH238436   3.106   5.146   3.167  0.1001 -0.1466  0.6058
 5674TIP3    H138437   3.191   5.181   3.139 -0.4376  1.2653  0.7317
 5674TIP3    H238438   3.128   5.065   3.214  1.3638  0.0935  0.4439
 5675TIP3   OH238439   2.998   6.141  11.414  0.2768  0.4902  0.2133
 5675TIP3    H138440   3.059   6.157  11.342  1.0961 -0.7875  0.6025
 5675TIP3    H238441   3.054   6.117  11.488 -0.7203 -1.3491  0.3974
 5676TIP3   OH238442   4.395   3.285   5.616 -0.0165  0.2826  0.2845
 5676TIP3    H138443   4.358   3.296   5.703  0.1765 -1.3300  0.5771
 5676TIP3    H238444   4.480   3.243   5.631 -0.7177 -1.5897 -0.7794
 5677TIP3   OH238445   0.191   5.031  12.658 -0.5926 -0.8214  0.7563
 5677TIP3    H138446   0.184   5.012  12.751 -3.6648 -0.8163  0.5636
 5677TIP3    H238447   0.231   4.953  12.621  1.0244 -0.6652  2.1100
 5678TIP3   OH238448   4.436   1.746   5.198  0.0505 -0.0487 -0.1574
 5678TIP3    H138449   4.504   1.792   5.246 -0.5971  0.9297 -0.1770
 5678TIP3    H238450   4.354   1.786   5.227 -0.4139 -0.1564 -1.2826
 5679TIP3   OH238451   4.230   4.458   6.004  0.2376  0.6931 -0.6370
 5679TIP3    H138452   4.200   4.472   5.914 -1.6653  0.0793 -0.1340
 5679TIP3    H238453   4.169   4.510   6.058  0.1966 -0.4053  0.4032
 5680TIP3   OH238454   0.875   0.710   2.187 -0.1771  0.4815 -0.1589
 5680TIP3    H138455   0.872   0.634   2.127  3.2748  0.2924 -0.1784
 5680TIP3    H238456   0.833   0.679   2.267  1.0313 -1.4597 -0.2320
 5681TIP3   OH238457   3.112   6.556  15.104  0.4020  0.2438  0.3734
 5681TIP3    H138458   3.128   6.519  15.017  0.4750 -1.1667  0.9694
 5681TIP3    H238459   3.129   6.649  15.094  2.6937 -0.2480 -0.5687
 5682TIP3   OH238460   0.214   2.697  11.287  0.0534 -0.0058 -0.1320
 5682TIP3    H138461   0.169   2.760  11.231  1.6097  1.5317  0.3188
 5682TIP3    H238462   0.287   2.666  11.233 -0.5898 -1.2902 -0.2819
 5683TIP3   OH238463   5.099   1.260  13.080  0.2085  0.3929 -0.0542
 5683TIP3    H138464   5.155   1.248  13.157 -1.2281  3.5160  1.5750
 5683TIP3    H238465   5.021   1.208  13.099  1.1186 -1.2919 -0.8256
 5684TIP3   OH238466   6.472   2.504  14.988  0.0580 -0.1108 -0.0031
 5684TIP3    H138467   6.381   2.521  14.965 -0.3268 -0.7637  1.0214
 5684TIP3    H238468   6.472   2.493  15.083  1.2494  0.1620  0.0467
 5685TIP3   OH238469   4.816   1.212  11.055 -0.2699 -0.2639  0.2191
 5685TIP3    H138470   4.887   1.276  11.065  0.2757 -0.6543 -1.0010
 5685TIP3    H238471   4.796   1.184  11.144 -0.6709  1.7718  0.8080
 5686TIP3   OH238472   6.075   5.327  12.366 -0.0796  0.0407 -0.6375
 5686TIP3    H138473   6.037   5.356  12.283 -2.0508 -0.3276  0.0932
 5686TIP3    H238474   6.019   5.254  12.393  2.4643 -1.9522 -0.5493
 5687TIP3   OH238475   0.016   2.292   4.322  0.3206 -0.2742 -0.3868
 5687TIP3    H138476  -0.006   2.262   4.234 -0.3345 -0.7884 -0.0578
 5687TIP3    H238477  -0.014   2.382   4.326  0.4190 -0.2267 -0.7103
 5688TIP3   OH238478   6.537   5.925  14.491  0.4761 -0.2022 -0.1354
 5688TIP3    H138479   6.538   5.991  14.560 -0.8496 -0.0128 -0.2814
 5688TIP3    H238480   6.605   5.951  14.430  0.1972  0.8331 -0.0030
 5689TIP3   OH238481   2.850   1.367   3.460 -0.3459 -0.1243  0.0018
 5689TIP3    H138482   2.878   1.296   3.518 -0.1249  0.4310  0.5790
 5689TIP3    H238483   2.790   1.325   3.399 -1.5483 -0.4767  1.3910
 5690TIP3   OH238484   3.176   4.971  12.537 -0.3128  0.1778  0.2119
 5690TIP3    H138485   3.144   4.884  12.556 -2.2011  1.0676  1.2297
 5690TIP3    H238486   3.249   4.984  12.598  1.0186 -1.2353 -1.0143
 5691TIP3   OH238487   3.869   4.151   1.891  0.3184  0.3872  0.0684
 5691TIP3    H138488   3.943   4.139   1.831 -0.3355  1.6097 -1.0064
 5691TIP3    H238489   3.801   4.094   1.857 -0.2136  1.4287 -0.6526
 5692TIP3   OH238490   4.639   1.613   3.728 -0.0914  0.0558 -0.6555
 5692TIP3    H138491   4.582   1.686   3.704 -0.2570 -0.2446 -1.1934
 5692TIP3    H238492   4.581   1.537   3.729  0.0770 -0.0640 -0.0804
 5693TIP3   OH238493   3.835   1.611   1.363 -0.3860  0.9582  0.5543
 5693TIP3    H138494   3.860   1.643   1.276  0.8449  0.5354  0.7358
 5693TIP3    H238495   3.754   1.563   1.349  0.3557  0.0060 -0.5537
 5694TIP3   OH238496   0.064   3.480  12.066  0.0550  0.2573 -0.5666
 5694TIP3    H138497   0.040   3.572  12.075 -0.6738  0.0590 -0.4824
 5694TIP3    H238498   0.154   3.483  12.032 -0.1482  0.9973 -1.0614
 5695TIP3   OH238499   4.210   3.582   6.386 -0.3108  0.0895 -0.2746
 5695TIP3    H138500   4.178   3.615   6.470  2.7922  0.8903  0.6316
 5695TIP3    H238501   4.166   3.636   6.321  1.0892  2.9255  1.0295
 5696TIP3   OH238502   4.188   1.098   5.756 -0.0406  0.2254 -0.3388
 5696TIP3    H138503   4.168   1.025   5.698  0.7116 -0.7592  0.6180
 5696TIP3    H238504   4.142   1.077   5.838 -0.9103  1.4807 -0.4980
 5697TIP3   OH238505   2.052   6.275   4.163  0.4312  0.3550 -0.0541
 5697TIP3    H138506   2.142   6.306   4.174  1.0018 -1.5456  0.7132
 5697TIP3    H238507   2.031   6.230   4.244 -0.7715 -0.3163 -0.7193
 5698TIP3   OH238508   2.860   6.186  15.788  0.0753  0.4255  0.1172
 5698TIP3    H138509   2.855   6.212  15.880 -0.6747  0.7905 -0.0233
 5698TIP3    H238510   2.952   6.167  15.773  0.1552  0.0945  1.0193
 5699TIP3   OH238511   2.837   0.352   2.392  0.1818  0.8683  0.0916
 5699TIP3    H138512   2.813   0.264   2.419 -1.3495  0.9794 -0.8512
 5699TIP3    H238513   2.887   0.340   2.312  1.1679  0.7891  0.7073
 5700TIP3   OH238514   5.881   1.112   4.306  0.0015  0.2867 -0.2113
 5700TIP3    H138515   5.790   1.109   4.335 -0.1997  1.2759 -0.7342
 5700TIP3    H238516   5.883   1.054   4.229 -0.1445  0.1369 -0.1042
 5701TIP3   OH238517   5.428   1.026  12.732  0.7955  0.1008 -0.0564
 5701TIP3    H138518   5.493   0.978  12.784 -1.2829 -2.3937  0.3688
 5701TIP3    H238519   5.430   0.984  12.646 -0.6764 -0.4266  0.1512
 5702TIP3   OH238520   2.794   3.830  12.124  0.3202  0.0671  0.1751
 5702TIP3    H138521   2.863   3.875  12.075 -0.8891  0.2683 -1.3823
 5702TIP3    H238522   2.716   3.840  12.070 -0.6197 -1.3851  1.2303
 5703TIP3   OH238523   1.544   3.738  15.153 -0.7569 -0.2928  0.1826
 5703TIP3    H138524   1.464   3.790  15.164 -0.6906 -0.0121 -0.6800
 5703TIP3    H238525   1.538   3.702  15.065  0.5160  0.4840 -0.2273
 5704TIP3   OH238526   1.030   0.377  14.552  0.2582 -0.1877 -0.0027
 5704TIP3    H138527   0.952   0.389  14.607 -0.4334  0.3860 -1.0951
 5704TIP3    H238528   1.103   0.404  14.609 -0.4231  0.2111  0.7022
 5705TIP3   OH238529   3.882   0.788   3.263 -0.1439 -0.3914 -0.3637
 5705TIP3    H138530   3.843   0.840   3.192 -0.1889  1.5748  1.0357
 5705TIP3    H238531   3.976   0.802   3.255 -0.3065  3.2055  2.3047
 5706TIP3   OH238532   2.676   0.037   1.656 -0.2523 -0.0462 -0.1364
 5706TIP3    H138533   2.616   0.042   1.730  0.6016 -1.7033  0.7068
 5706TIP3    H238534   2.646   0.104   1.596 -1.3969  0.8595  1.4026
 5707TIP3   OH238535   3.121   4.069   1.502 -0.7686 -0.4370 -0.6840
 5707TIP3    H138536   3.188   4.018   1.456  0.6351  0.4726  0.2845
 5707TIP3    H238537   3.074   4.115   1.433  1.6066  1.2608 -1.2578
 5708TIP3   OH238538   0.109   3.780  12.066 -0.2142 -0.6872 -0.0438
 5708TIP3    H138539   0.045   3.791  12.136  0.0399 -0.0257  0.0891
 5708TIP3    H238540   0.190   3.814  12.102  0.0366 -0.8081 -0.4865
 5709TIP3   OH238541   1.263   3.753  15.175  0.4353  0.0722  0.0317
 5709TIP3    H138542   1.186   3.758  15.119  0.0195  1.6230  0.7275
 5709TIP3    H238543   1.230   3.727  15.261  0.7344  0.4334  0.2573
 5710TIP3   OH238544   1.166   6.180   1.059 -0.3817  0.4148  0.3870
 5710TIP3    H138545   1.229   6.247   1.087 -0.9270  0.3954  1.7134
 5710TIP3    H238546   1.086   6.228   1.039 -0.9446  0.1219  1.8745
 5711TIP3   OH238547   2.570   4.503  16.581 -0.2551  0.2610 -0.3007
 5711TIP3    H138548   2.618   4.421  16.581  2.1971  1.6375 -0.6078
 5711TIP3    H238549   2.574   4.533  16.672  1.5557  1.5164 -0.7631
 5712TIP3   OH238550   1.172   0.691   2.048 -0.1018  0.5864  0.3307
 5712TIP3    H138551   1.090   0.687   2.097 -0.7914 -0.9638 -0.9322
 5712TIP3    H238552   1.235   0.642   2.102 -1.1092 -1.9934 -0.7723
 5713TIP3   OH238553   0.643   2.734   5.273 -0.6384  0.0872  0.0890
 5713TIP3    H138554   0.683   2.810   5.230 -1.4451  0.6701  0.3532
 5713TIP3    H238555   0.717   2.679   5.298 -0.0889  0.3615 -0.8923
 5714TIP3   OH238556   2.078   1.105  13.418 -0.3338 -0.5752  0.3497
 5714TIP3    H138557   2.064   1.188  13.371  1.3248 -1.1307 -1.1973
 5714TIP3    H238558   2.016   1.044  13.379 -1.2054 -0.2060  1.1418
 5715TIP3   OH238559   1.449   5.830   1.112  0.0681 -0.0057 -0.0567
 5715TIP3    H138560   1.392   5.770   1.064  0.0387 -0.3740  0.4348
 5715TIP3    H238561   1.390   5.882   1.167 -0.0433  1.4176 -1.4724
 5716TIP3   OH238562   3.263   3.196   1.508 -0.3700 -0.0941 -0.4856
 5716TIP3    H138563   3.280   3.270   1.450 -1.7784  1.4684  1.0249
 5716TIP3    H238564   3.344   3.184   1.556 -0.1083  0.4246 -0.7931
 5717TIP3   OH238565   4.469   0.598  14.957  0.0143  0.5486  0.2455
 5717TIP3    H138566   4.557   0.621  14.987  0.0685  1.6156 -0.7159
 5717TIP3    H238567   4.484   0.543  14.880 -0.1611  1.4764 -0.4565
 5718TIP3   OH238568   3.505   6.616   5.531 -0.0796 -0.0432 -0.2072
 5718TIP3    H138569   3.509   6.520   5.532  1.1197  0.0027  1.4631
 5718TIP3    H238570   3.495   6.640   5.623 -1.1535  1.4194 -0.6986
 5719TIP3   OH238571   1.161   5.288   5.602 -0.2156 -0.2932 -0.2215
 5719TIP3    H138572   1.100   5.353   5.566 -1.2183 -0.2218  1.5530
 5719TIP3    H238573   1.121   5.204   5.581 -0.1852 -0.2729 -0.3558
 5720TIP3   OH238574   6.079   3.024   5.397  0.3452 -0.0154 -0.3275
 5720TIP3    H138575   6.108   3.115   5.396 -0.9138  0.3943 -0.3196
 5720TIP3    H238576   6.136   2.981   5.461 -1.5856  1.6317  2.6415
 5721TIP3   OH238577   1.877   1.426  11.911 -0.1006  0.4821  0.0798
 5721TIP3    H138578   1.841   1.386  11.990 -0.4533  1.0127  0.1853
 5721TIP3    H238579   1.805   1.477  11.875  0.7677  2.1864  0.7185
 5722TIP3   OH238580   0.715   2.992  11.758  0.1054 -0.2278  0.3589
 5722TIP3    H138581   0.719   3.001  11.854 -0.7604 -1.0109  0.4725
 5722TIP3    H238582   0.667   2.910  11.744  1.0189 -0.5736 -0.7400
 5723TIP3   OH238583   6.718   5.354   1.282  0.7416 -0.0075 -0.6582
 5723TIP3    H138584   6.757   5.272   1.252 -2.9994 -1.7283 -1.1459
 5723TIP3    H238585   6.707   5.407   1.203 -1.5250 -1.1884 -1.1858
 5724TIP3   OH238586   0.495   2.261  11.779  0.3322  0.0881  0.4296
 5724TIP3    H138587   0.423   2.203  11.755 -0.8526  1.0611  1.5468
 5724TIP3    H238588   0.497   2.258  11.875  1.1638  0.7931  0.4413
 5725TIP3   OH238589   2.297   1.316  13.510  0.4682  0.4316 -0.0356
 5725TIP3    H138590   2.275   1.261  13.435 -1.5863  1.0004  0.1031
 5725TIP3    H238591   2.212   1.338  13.549  1.1182  4.4341 -0.6458
 5726TIP3   OH238592   3.919   1.351   1.097  0.5801  0.2044 -0.7799
 5726TIP3    H138593   3.981   1.337   1.025  0.9110 -0.2546 -0.3981
 5726TIP3    H238594   3.846   1.397   1.055  0.7159 -0.1668 -1.4422
 5727TIP3   OH238595   0.794   2.496   5.287 -0.5330 -0.0462  0.0676
 5727TIP3    H138596   0.836   2.472   5.205 -1.0185 -0.7908  0.0336
 5727TIP3    H238597   0.826   2.431   5.350 -0.9547 -0.0860  0.2402
 5728TIP3   OH238598   5.851   4.108   1.471  0.3350  0.3995  0.2520
 5728TIP3    H138599   5.894   4.078   1.390  1.4278 -1.3876  1.4467
 5728TIP3    H238600   5.779   4.047   1.484  0.1346  0.7114  0.6167
 5729TIP3   OH238601   0.722   5.287   4.390 -0.6424  0.1246  0.6508
 5729TIP3    H138602   0.746   5.285   4.483 -0.3373  2.3626  0.6603
 5729TIP3    H238603   0.784   5.349   4.351 -0.7206 -0.8611 -1.0690
 5730TIP3   OH238604   2.079   5.214  14.942  0.0148 -0.0469 -0.2200
 5730TIP3    H138605   2.032   5.210  14.859  1.1977  0.8708 -0.9600
 5730TIP3    H238606   2.141   5.286  14.930  0.2339  0.0527  1.4430
 5731TIP3   OH238607   2.402   4.266  11.725  0.3686 -0.7101 -0.3657
 5731TIP3    H138608   2.336   4.199  11.710  0.1951 -1.0059  1.6156
 5731TIP3    H238609   2.383   4.334  11.661 -0.1932 -1.9973 -1.5923
 5732TIP3   OH238610   3.700   2.858   1.043  0.2264 -0.4142 -0.4706
 5732TIP3    H138611   3.681   2.808   1.122 -2.3063 -1.4086 -1.6746
 5732TIP3    H238612   3.668   2.946   1.062 -0.6798 -0.7343 -0.4905
 5733TIP3   OH238613   5.222   5.959   3.622 -0.4783 -0.0414  0.2643
 5733TIP3    H138614   5.187   6.024   3.561 -3.7621 -0.0679  1.9751
 5733TIP3    H238615   5.238   5.881   3.568  0.8124  1.2831 -1.3003
 5734TIP3   OH238616   6.288   3.350   0.950 -0.4308 -0.0602  0.2417
 5734TIP3    H138617   6.241   3.433   0.963  2.0065  1.7997 -2.1873
 5734TIP3    H238618   6.380   3.375   0.952  0.3283 -2.7266 -0.5647
 5735TIP3   OH238619   2.239   2.283   5.084 -0.0635 -0.0970 -0.0789
 5735TIP3    H138620   2.217   2.195   5.053 -0.2818 -0.4876  1.1557
 5735TIP3    H238621   2.313   2.310   5.030  1.0767 -1.7052  0.6378
 5736TIP3   OH238622   0.723   5.421  12.366 -0.1788  0.1037  0.4365
 5736TIP3    H138623   0.699   5.407  12.458  0.1581 -1.7869  0.2627
 5736TIP3    H238624   0.665   5.362  12.318  1.1100 -0.4888 -0.4048
 5737TIP3   OH238625   1.377   1.876   3.732  0.1157 -0.6153  0.0580
 5737TIP3    H138626   1.337   1.946   3.783 -1.2724 -0.4043 -1.2736
 5737TIP3    H238627   1.468   1.904   3.719 -0.3603  0.8284 -0.2470
 5738TIP3   OH238628   2.613   4.995   0.121  0.6134  0.0174 -0.0082
 5738TIP3    H138629   2.662   5.053   0.063 -1.3683  0.6485 -1.0966
 5738TIP3    H238630   2.626   4.908   0.084 -1.4854  0.5310 -2.0876
 5739TIP3   OH238631   5.992   0.721  13.382  0.0113 -0.0635 -0.0801
 5739TIP3    H138632   6.064   0.751  13.325 -0.5060  1.3510 -0.0169
 5739TIP3    H238633   6.032   0.712  13.468 -0.0306  1.4405  0.1132
 5740TIP3   OH238634   1.896   1.174  14.549 -0.0890 -0.2979  0.0043
 5740TIP3    H138635   1.914   1.183  14.643 -0.3464 -1.1993  0.1410
 5740TIP3    H238636   1.802   1.184  14.541 -0.3728 -2.7087  0.1485
 5741TIP3   OH238637   6.697   3.695  13.236  0.3581  0.4051 -0.1987
 5741TIP3    H138638   6.733   3.629  13.296  0.8934  1.7922  1.0467
 5741TIP3    H238639   6.641   3.646  13.177  1.9405 -1.3943 -0.2597
 5742TIP3   OH238640   4.652   5.769   1.370  0.2474 -0.4048  0.1578
 5742TIP3    H138641   4.695   5.698   1.322  0.2915 -0.6775  0.6007
 5742TIP3    H238642   4.639   5.735   1.458 -0.7266 -0.2619  0.0738
 5743TIP3   OH238643   6.646   6.637   6.404 -0.5175 -0.9874  0.3675
 5743TIP3    H138644   6.680   6.547   6.404  0.3268 -0.6631  1.2396
 5743TIP3    H238645   6.718   6.690   6.437 -1.3460 -0.1070  0.7564
 5744TIP3   OH238646   0.694   1.498  16.378  0.2558 -0.8099 -0.2799
 5744TIP3    H138647   0.697   1.511  16.283  0.6813 -0.2030 -0.1849
 5744TIP3    H238648   0.623   1.555  16.408  1.9429  1.0982  0.1092
 5745TIP3   OH238649   1.071   2.867  12.146 -0.1488 -0.5717 -0.3185
 5745TIP3    H138650   1.058   2.958  12.173 -1.7427 -0.9002  0.1124
 5745TIP3    H238651   1.003   2.819  12.194  0.9956 -2.0563 -0.1639
 5746TIP3   OH238652   2.014   3.108  16.799  0.3579  0.2280  0.5586
 5746TIP3    H138653   2.010   3.181  16.737 -0.0041 -0.9725 -0.8769
 5746TIP3    H238654   1.933   3.116  16.850 -0.3356  0.0867 -0.4848
 5747TIP3   OH238655   1.443   1.213   4.812  0.8930 -0.4214  0.1350
 5747TIP3    H138656   1.404   1.249   4.732 -0.9347  0.4769  1.3923
 5747TIP3    H238657   1.464   1.123   4.789 -0.5365 -0.4848 -1.0707
 5748TIP3   OH238658   2.092   0.602   1.996 -0.0423 -0.0679  0.3100
 5748TIP3    H138659   2.020   0.557   1.951 -0.6778 -0.5140  1.7678
 5748TIP3    H238660   2.061   0.692   2.006  0.3856  0.2105 -0.7423
 5749TIP3   OH238661   1.398   5.805   3.773 -0.2990  0.3672  0.2046
 5749TIP3    H138662   1.489   5.777   3.784 -0.7028 -0.0297  2.8544
 5749TIP3    H238663   1.384   5.805   3.678  1.7431 -1.8505 -0.1395
 5750TIP3   OH238664   2.885   2.918  12.511  0.3706 -0.2555 -0.0109
 5750TIP3    H138665   2.898   2.837  12.462 -0.0620 -0.2022 -0.2146
 5750TIP3    H238666   2.812   2.899  12.570 -0.9788  0.5550 -1.3547
 5751TIP3   OH238667   0.806   6.194  12.349  0.1469  1.2285  0.0411
 5751TIP3    H138668   0.747   6.217  12.420  0.1310  0.6835  0.2056
 5751TIP3    H238669   0.759   6.220  12.270 -1.4184 -1.4874  0.0048
 5752TIP3   OH238670   6.520   2.380   1.823  0.0531 -0.2143 -0.1912
 5752TIP3    H138671   6.492   2.308   1.879 -0.2017  2.3843  3.2026
 5752TIP3    H238672   6.616   2.380   1.830  0.0155  0.1973  0.4465
 5753TIP3   OH238673   4.990   4.741   0.873 -0.8408  0.1472  0.3312
 5753TIP3    H138674   4.923   4.692   0.825 -1.3630  2.6893 -1.6548
 5753TIP3    H238675   4.968   4.833   0.857  2.3288  1.0283  0.7893
 5754TIP3   OH238676   4.897   0.889  11.148 -0.4791 -0.8988  0.0877
 5754TIP3    H138677   4.946   0.971  11.141 -0.1486 -1.0984  0.0205
 5754TIP3    H238678   4.958   0.822  11.118 -0.3727 -1.2955  1.1426
 5755TIP3   OH238679   6.695   1.506  12.723 -0.0006 -0.2881  0.0060
 5755TIP3    H138680   6.692   1.594  12.761  1.5837 -0.0594 -0.3821
 5755TIP3    H238681   6.787   1.492  12.703 -0.3294 -1.8298 -0.4414
 5756TIP3   OH238682   3.565   3.140   5.576 -0.0668 -0.1261 -0.1757
 5756TIP3    H138683   3.480   3.184   5.570 -0.8031 -0.9995  2.8618
 5756TIP3    H238684   3.626   3.208   5.603 -0.8857 -0.5171  2.8794
 5757TIP3   OH238685   1.908   0.866   2.537  0.1228  0.3722 -0.3939
 5757TIP3    H138686   1.894   0.835   2.626 -0.0261  0.3998 -0.4079
 5757TIP3    H238687   1.895   0.788   2.482  0.6557  0.2559 -0.3565
 5758TIP3   OH238688   0.198   3.224  13.164  0.6281  0.5438 -0.0883
 5758TIP3    H138689   0.116   3.174  13.166  1.3859 -0.8806 -2.8185
 5758TIP3    H238690   0.243   3.200  13.244 -1.3259  0.8532  1.1421
 5759TIP3   OH238691   6.077   2.412   4.864  0.2621 -0.0047  0.5515
 5759TIP3    H138692   6.160   2.451   4.891 -0.7143  0.4528  3.0338
 5759TIP3    H238693   6.015   2.484   4.866 -0.0126 -0.1265 -2.3025
 5760TIP3   OH238694   1.280   2.023  16.053  0.1989  0.2505 -0.0755
 5760TIP3    H138695   1.335   1.983  16.120  0.2455  1.0463  0.3652
 5760TIP3    H238696   1.308   2.114  16.050  0.8320  0.0245 -1.8110
 5761TIP3   OH238697   5.536   6.238  13.492 -0.5046 -0.9013 -0.0081
 5761TIP3    H138698   5.511   6.216  13.582 -2.6254  0.4399 -0.2368
 5761TIP3    H238699   5.520   6.157  13.443 -0.1573 -1.3808  0.6597
 5762TIP3   OH238700   4.443   1.957  15.106  0.3296  0.0809  0.5838
 5762TIP3    H138701   4.486   2.041  15.094  1.0173 -0.2567  0.6803
 5762TIP3    H238702   4.514   1.896  15.123 -0.2427 -0.3497  1.4344
 5763TIP3   OH238703   4.930   1.267  16.530  1.1484 -0.0367  0.1652
 5763TIP3    H138704   4.842   1.305  16.521  0.6747 -0.5648  2.3270
 5763TIP3    H238705   4.980   1.333  16.577  1.9389  0.2852 -1.1173
 5764TIP3   OH238706   0.716   5.217  13.318 -0.1390  0.2394 -0.4277
 5764TIP3    H138707   0.761   5.292  13.356 -0.2292 -1.0301  2.3123
 5764TIP3    H238708   0.638   5.205  13.373  0.6142 -2.6865  0.0745
 5765TIP3   OH238709   4.962   6.388   1.470  0.2152 -0.6254 -0.1953
 5765TIP3    H138710   4.998   6.311   1.425 -1.3312 -0.6441 -1.4681
 5765TIP3    H238711   4.926   6.353   1.552  0.6489 -1.0498 -0.1847
 5766TIP3   OH238712   2.829   6.111  14.427  0.4606  0.6460 -0.4936
 5766TIP3    H138713   2.757   6.146  14.374  0.7807 -0.0236 -1.3742
 5766TIP3    H238714   2.891   6.076  14.363  1.2534  0.6105  0.2906
 5767TIP3   OH238715   6.542   0.110  12.591 -0.0068  0.4449  0.4410
 5767TIP3    H138716   6.453   0.135  12.616  0.3223 -1.5532  3.8550
 5767TIP3    H238717   6.591   0.192  12.591 -1.8451  1.5828 -1.6057
 5768TIP3   OH238718   6.078   1.572   0.486  0.8475  0.0046 -0.1012
 5768TIP3    H138719   6.002   1.629   0.472 -0.3745 -1.2501  1.3183
 5768TIP3    H238720   6.153   1.628   0.466 -0.4437  1.0927 -2.1067
 5769TIP3   OH238721   4.026   0.958   0.139 -0.5771 -0.2146 -0.1367
 5769TIP3    H138722   4.050   0.973   0.231  0.2936 -0.7087 -0.2786
 5769TIP3    H238723   4.058   1.035   0.093 -2.1000  0.6129  0.1449
 5770TIP3   OH238724   6.248   1.172   4.138  0.0906  0.1396  0.2310
 5770TIP3    H138725   6.208   1.133   4.215  0.8149  1.4799  1.3075
 5770TIP3    H238726   6.337   1.136   4.135 -1.0656 -2.6979 -2.0556
 5771TIP3   OH238727   5.754   6.217   5.402 -0.0969 -0.7879 -0.4485
 5771TIP3    H138728   5.772   6.279   5.331  0.6749 -1.3510 -0.7503
 5771TIP3    H238729   5.829   6.225   5.460 -0.3059 -0.9806 -0.1504
 5772TIP3   OH238730   3.128   6.479  12.921  0.6199  0.1393  0.2022
 5772TIP3    H138731   3.218   6.512  12.927  1.2152 -1.1699 -1.1871
 5772TIP3    H238732   3.117   6.426  13.000  0.6500  1.2770  0.9795
 5773TIP3   OH238733   1.835   1.732  11.651  0.3149  0.4572 -0.8376
 5773TIP3    H138734   1.773   1.671  11.690  2.1674  0.1293  1.6644
 5773TIP3    H238735   1.780   1.804  11.619 -1.5442 -0.8540 -0.6530
 5774TIP3   OH238736   5.803   2.676   1.401 -0.0191 -0.3819 -0.0056
 5774TIP3    H138737   5.815   2.662   1.307  2.5313  1.7196 -0.0428
 5774TIP3    H238738   5.734   2.742   1.407 -0.3234 -0.6603 -0.3954
 5775TIP3   OH238739   2.802   5.965  11.315 -0.1313  0.4043  0.7506
 5775TIP3    H138740   2.808   5.970  11.220 -0.7770 -0.5193  0.6609
 5775TIP3    H238741   2.879   6.013  11.346  1.8669 -2.0148 -0.2801
 5776TIP3   OH238742   2.724   6.703  14.906 -0.0055 -0.0435 -0.2920
 5776TIP3    H138743   2.774   6.690  14.987  0.5218  0.2387 -0.5778
 5776TIP3    H238744   2.789   6.724  14.840 -0.5644  1.0617 -0.5057
 5777TIP3   OH238745   1.032   2.119   6.523  0.2156 -0.0913 -0.0027
 5777TIP3    H138746   1.009   2.062   6.596 -0.1233 -0.8042 -0.6516
 5777TIP3    H238747   1.042   2.059   6.449  1.4952  0.5096 -0.3317
 5778TIP3   OH238748   0.398   1.376  14.307  0.3677  0.6217 -0.2472
 5778TIP3    H138749   0.330   1.384  14.374 -0.1162  1.5956 -0.8377
 5778TIP3    H238750   0.365   1.429  14.234  0.5799 -0.9445 -1.4900
 5779TIP3   OH238751   2.509   4.035   3.813 -0.2125 -0.2863 -0.3251
 5779TIP3    H138752   2.582   3.985   3.778  0.1806 -0.2817  0.4792
 5779TIP3    H238753   2.547   4.088   3.883 -0.9824 -0.2824  0.0968
 5780TIP3   OH238754   5.839   1.053   0.032 -0.3423 -0.0180 -0.1246
 5780TIP3    H138755   5.814   0.975   0.082 -0.4614  0.5950  0.7828
 5780TIP3    H238756   5.932   1.039   0.011 -0.4477 -0.5514 -0.2472
 5781TIP3   OH238757   3.539   3.313  11.756  0.2201  0.6653  0.8383
 5781TIP3    H138758   3.489   3.250  11.807 -1.4792  2.1035  0.9925
 5781TIP3    H238759   3.546   3.274  11.669 -1.2867  0.4888  0.7831
 5782TIP3   OH238760   4.786   3.205   4.350 -0.0252  0.3197 -0.2717
 5782TIP3    H138761   4.801   3.165   4.265 -1.2563  0.7600 -0.7108
 5782TIP3    H238762   4.850   3.164   4.408  1.6651  0.9373 -1.6815
 5783TIP3   OH238763   1.467   2.480  17.052 -0.3832 -0.5902 -0.0990
 5783TIP3    H138764   1.524   2.538  17.002 -0.8672  1.4602  1.6311
 5783TIP3    H238765   1.477   2.394  17.012  2.7702  0.0435 -0.7447
 5784TIP3   OH238766   1.521   2.258  15.571  0.4478  0.0719  0.1380
 5784TIP3    H138767   1.550   2.214  15.652  0.3387  0.5091  0.4180
 5784TIP3    H238768   1.479   2.189  15.520 -1.6733  0.2903  1.5195
 5785TIP3   OH238769   1.454   4.924  12.060  0.3680 -0.3569 -0.5587
 5785TIP3    H138770   1.437   4.977  12.138 -2.2027 -1.6788 -0.1445
 5785TIP3    H238771   1.505   4.981  12.002 -0.0737  1.6273  0.9408
 5786TIP3   OH238772   3.312   1.768   6.192 -0.1502  0.0027 -0.0191
 5786TIP3    H138773   3.395   1.771   6.239 -0.4876  0.6314  0.5495
 5786TIP3    H238774   3.269   1.851   6.214 -2.2446 -1.5821  2.1012
 5787TIP3   OH238775   0.686   3.928  12.902  0.0463 -0.5730  0.1802
 5787TIP3    H138776   0.657   3.920  12.993  0.3803 -1.3912  0.2188
 5787TIP3    H238777   0.702   3.838  12.874  2.0290 -0.1788 -0.0052
 5788TIP3   OH238778   0.258   2.740   0.818  0.2834  0.4181 -0.2256
 5788TIP3    H138779   0.184   2.723   0.877  0.8666 -0.0394  0.3784
 5788TIP3    H238780   0.238   2.825   0.779  0.0389  0.8566  0.8467
 5789TIP3   OH238781   0.426   6.080  14.490  0.1992 -0.2166  0.6148
 5789TIP3    H138782   0.386   6.142  14.551  0.4648 -0.8806  1.4687
 5789TIP3    H238783   0.360   6.068  14.422  0.7003  2.0770 -0.3031
 5790TIP3   OH238784   2.133   3.395   4.857  0.0106 -0.4942 -0.0465
 5790TIP3    H138785   2.043   3.425   4.849  0.3925  0.8953  0.7909
 5790TIP3    H238786   2.180   3.439   4.786  0.0397 -1.2611 -0.5202
 5791TIP3   OH238787   4.634   1.430   2.315 -0.0376  0.3766 -0.3205
 5791TIP3    H138788   4.604   1.491   2.247 -2.2582  0.8160  0.9820
 5791TIP3    H238789   4.611   1.343   2.281  0.5397  0.4684 -0.9409
 5792TIP3   OH238790   1.283   2.416   1.896  0.2690 -0.6779  0.2042
 5792TIP3    H138791   1.331   2.337   1.875  1.0870 -0.0639 -0.2791
 5792TIP3    H238792   1.197   2.386   1.926  0.6287 -1.7389  0.1693
 5793TIP3   OH238793   2.025   1.203  15.089 -0.4905 -0.1279  0.5263
 5793TIP3    H138794   1.945   1.224  15.137  0.0192  0.6792  1.0306
 5793TIP3    H238795   2.087   1.271  15.115 -0.3407  0.5650 -1.5969
 5794TIP3   OH238796   5.411   2.384   5.664  0.1858  0.3860  0.0898
 5794TIP3    H138797   5.483   2.367   5.724 -0.4494  0.0112  0.7518
 5794TIP3    H238798   5.439   2.460   5.614  0.2943  1.3617  1.5909
 5795TIP3   OH238799   1.449   0.058   0.799 -0.6747 -0.8230  0.1762
 5795TIP3    H138800   1.511  -0.013   0.782 -0.1679 -0.1435 -0.9002
 5795TIP3    H238801   1.465   0.121   0.728 -1.6449  0.0028  0.6773
 5796TIP3   OH238802   1.579   6.360   1.118 -0.4467  0.0701 -0.1053
 5796TIP3    H138803   1.535   6.334   1.037  0.8969  0.5548 -1.0050
 5796TIP3    H238804   1.671   6.343   1.102 -0.4641 -2.9215  2.5215
 5797TIP3   OH238805   3.713   3.732   4.140  0.1385 -0.2022  0.3424
 5797TIP3    H138806   3.714   3.773   4.227 -0.4082 -0.7258  0.6000
 5797TIP3    H238807   3.670   3.797   4.084 -1.5259 -0.7672  0.9309
 5798TIP3   OH238808   5.961   6.289   5.555 -0.1511  0.1482 -0.2514
 5798TIP3    H138809   6.040   6.236   5.555 -1.1012 -1.3062 -0.0946
 5798TIP3    H238810   5.960   6.330   5.641 -0.5615 -1.3847  0.4954
 5799TIP3   OH238811   6.428   4.118  13.972  0.2826 -0.8272  0.4805
 5799TIP3    H138812   6.377   4.052  13.925  0.1845 -1.3127  1.2742
 5799TIP3    H238813   6.486   4.068  14.029  0.1954 -0.2300  1.0977
 5800TIP3   OH238814   6.071   1.141  14.020  0.0437  0.1476 -0.4106
 5800TIP3    H138815   6.119   1.109  14.097  0.7875  3.1541  0.4247
 5800TIP3    H238816   6.134   1.194  13.972 -1.2533  0.6458 -1.6060
 5801TIP3   OH238817   1.527   4.735   3.249 -0.1226  0.1783 -0.0785
 5801TIP3    H138818   1.552   4.764   3.336  1.5531 -0.9503 -0.1711
 5801TIP3    H238819   1.433   4.718   3.255 -0.0994  0.5572  1.3719
 5802TIP3   OH238820   2.337   1.783   1.519 -0.2933  0.2586  0.1789
 5802TIP3    H138821   2.253   1.776   1.564 -1.9150  0.6563 -2.6900
 5802TIP3    H238822   2.402   1.759   1.586 -2.7214 -1.0219  2.1653
 5803TIP3   OH238823   3.538   6.780  12.996  0.0003  0.0456 -0.2015
 5803TIP3    H138824   3.553   6.829  12.916  1.8840  0.8111  0.5917
 5803TIP3    H238825   3.470   6.828  13.042 -1.0365 -0.3588 -1.2810
 5804TIP3   OH238826   6.593   0.231   2.032 -0.2440  0.6806  0.1898
 5804TIP3    H138827   6.508   0.188   2.019  0.6805 -0.9542 -0.6926
 5804TIP3    H238828   6.595   0.253   2.125 -0.1018 -2.7548  1.0773
 5805TIP3   OH238829   6.744   2.804  14.465 -0.1564  0.1406  0.3684
 5805TIP3    H138830   6.715   2.787  14.555 -0.2528  1.7782  0.6690
 5805TIP3    H238831   6.673   2.855  14.426  0.5383  0.7354 -0.1491
 5806TIP3   OH238832   6.592   4.717   2.904  0.2333 -0.2538  0.6545
 5806TIP3    H138833   6.579   4.759   2.989 -0.1197  0.1495  0.4012
 5806TIP3    H238834   6.505   4.693   2.875  0.4876 -1.6747  1.0519
 5807TIP3   OH238835   1.932   0.170  16.958  0.1139 -0.0018  0.0103
 5807TIP3    H138836   1.911   0.159  16.865  0.0960 -2.3024  0.2527
 5807TIP3    H238837   1.998   0.239  16.960 -0.4994  0.6576 -1.6367
 5808TIP3   OH238838   1.152   3.856   1.483  0.2111  0.5102  0.2296
 5808TIP3    H138839   1.164   3.834   1.390 -0.4621  1.2091 -0.0294
 5808TIP3    H238840   1.230   3.905   1.507  0.2658  0.5536 -0.0369
 5809TIP3   OH238841   6.272   5.985  10.850 -0.3154 -0.2122 -0.9861
 5809TIP3    H138842   6.179   5.972  10.868 -0.0713 -0.0247  0.4557
 5809TIP3    H238843   6.278   6.077  10.824 -0.4884 -0.1466 -0.7932
 5810TIP3   OH238844   3.575   2.535   0.056 -0.3406  0.1072 -0.1447
 5810TIP3    H138845   3.604   2.583   0.134  1.0839 -2.4426  0.9336
 5810TIP3    H238846   3.631   2.568  -0.014  0.1912  0.4845  0.4505
 5811TIP3   OH238847   1.478   4.532   6.787 -0.7885  0.2145  0.0530
 5811TIP3    H138848   1.478   4.538   6.691  0.4107  1.7047  0.1226
 5811TIP3    H238849   1.569   4.513   6.809 -1.4854 -2.4860  0.8011
 5812TIP3   OH238850   4.806   2.910   4.878  0.0112  0.1581  0.1363
 5812TIP3    H138851   4.848   2.848   4.818  0.2019  0.4846 -0.0727
 5812TIP3    H238852   4.755   2.856   4.938  0.2117 -0.2004 -0.0194
 5813TIP3   OH238853   4.687   5.941  14.664  0.8313 -0.1844 -0.0246
 5813TIP3    H138854   4.697   5.979  14.751 -0.8896  0.2678  0.0008
 5813TIP3    H238855   4.711   6.011  14.604  0.0452  0.1721  0.0651
 5814TIP3   OH238856   3.015   1.087   4.880 -0.0773  0.0608 -0.3849
 5814TIP3    H138857   2.968   1.052   4.803  1.1520 -0.0829 -1.0881
 5814TIP3    H238858   2.949   1.089   4.949 -1.4247  0.9366 -1.6506
 5815TIP3   OH238859   5.078   4.535  11.693  0.8801 -0.0623 -0.4133
 5815TIP3    H138860   5.047   4.589  11.766  1.3292  1.1670 -1.1130
 5815TIP3    H238861   5.039   4.449  11.708 -0.9784  0.8232 -0.0162
 5816TIP3   OH238862   3.105   2.905  12.251  0.3362  0.0443  0.0213
 5816TIP3    H138863   3.122   2.953  12.332 -1.2426  0.7312 -0.0286
 5816TIP3    H238864   3.074   2.972  12.190 -0.8463 -0.8574 -0.3827
 5817TIP3   OH238865   6.480   0.523   6.049  0.6451  0.1225 -0.2513
 5817TIP3    H138866   6.430   0.453   6.007  1.1405  0.2672 -1.0984
 5817TIP3    H238867   6.522   0.569   5.977 -0.6978  2.1090  0.1807
 5818TIP3   OH238868   3.985   1.257  11.810 -0.0859  0.0561 -0.3404
 5818TIP3    H138869   3.926   1.267  11.735 -0.4112  0.5422 -0.0202
 5818TIP3    H238870   3.935   1.290  11.884  0.7691  0.9331 -0.1447
 5819TIP3   OH238871   1.414   1.495  11.005 -0.5416  0.1280  0.1924
 5819TIP3    H138872   1.378   1.414  10.969 -1.1505  0.7715 -0.6918
 5819TIP3    H238873   1.485   1.467  11.062 -1.8791 -1.1276  1.2688
 5820TIP3   OH238874   0.623   5.691   5.693  0.3556  0.4858 -0.0719
 5820TIP3    H138875   0.706   5.699   5.645  1.6668 -1.6004  1.7163
 5820TIP3    H238876   0.575   5.770   5.671  1.9475  0.7817 -2.8092
 5821TIP3   OH238877   3.748   1.218   2.571 -0.0441 -0.0111  0.4468
 5821TIP3    H138878   3.684   1.266   2.520 -0.5132 -0.4568  0.6141
 5821TIP3    H238879   3.833   1.244   2.534 -0.3087  0.6623  0.3032
 5822TIP3   OH238880   0.741   0.816   3.993 -0.0970  0.0760 -0.1640
 5822TIP3    H138881   0.831   0.787   4.008 -0.4991 -0.9084  0.4279
 5822TIP3    H238882   0.693   0.736   3.970 -1.1699  0.2715  1.2494
 5823TIP3   OH238883   2.247   0.258  16.294 -0.3285 -0.1693 -0.3045
 5823TIP3    H138884   2.161   0.269  16.253 -0.7501  2.2520  1.1372
 5823TIP3    H238885   2.292   0.341  16.277  0.8664 -0.5597  0.9114
 5824TIP3   OH238886   3.595   0.116  12.741  0.0145 -0.4094  0.2567
 5824TIP3    H138887   3.586   0.200  12.695  2.4368  1.1150  2.3512
 5824TIP3    H238888   3.689   0.109  12.758 -0.0895 -3.8885 -0.4005
 5825TIP3   OH238889   2.413   2.846  16.258 -0.4548  0.1995 -0.1320
 5825TIP3    H138890   2.353   2.898  16.311  0.4936  0.0079  1.1502
 5825TIP3    H238891   2.420   2.762  16.303 -0.2119 -0.2401 -0.9686
 5826TIP3   OH238892   6.487   5.141  12.459 -0.9829  0.0582 -1.4108
 5826TIP3    H138893   6.561   5.192  12.491  0.5751 -1.6727 -2.1533
 5826TIP3    H238894   6.466   5.177  12.373 -0.3735 -0.0694 -1.6117
 5827TIP3   OH238895   3.148   4.925  14.783 -0.2197  0.0311  0.2778
 5827TIP3    H138896   3.231   4.969  14.799 -0.1161 -0.2084  0.4043
 5827TIP3    H238897   3.127   4.945  14.692 -0.5731  1.0075  0.5643
 5828TIP3   OH238898   2.457   1.945  15.246 -0.0851 -0.3386  0.2147
 5828TIP3    H138899   2.402   2.023  15.235 -1.2588 -0.9652  1.4361
 5828TIP3    H238900   2.403   1.885  15.297  1.1708 -1.5892  0.1068
 5829TIP3   OH238901   1.451   1.195  16.089  0.3970  0.0318  0.0047
 5829TIP3    H138902   1.461   1.114  16.138  0.3176 -0.7927 -1.3117
 5829TIP3    H238903   1.378   1.241  16.132  1.8121  0.4123  2.0745
 5830TIP3   OH238904   2.342   1.981   2.297  0.2887 -0.1145  0.3235
 5830TIP3    H138905   2.417   1.947   2.248 -1.8335 -0.5493 -2.7719
 5830TIP3    H238906   2.354   2.076   2.296  0.8441 -0.1865 -0.0723
 5831TIP3   OH238907   0.484   1.785   3.034 -0.0635  0.1754  0.1296
 5831TIP3    H138908   0.528   1.870   3.032  1.3344 -0.5265  0.0900
 5831TIP3    H238909   0.543   1.727   2.986 -1.0502 -0.7970  0.0765
 5832TIP3   OH238910   3.691   4.173  12.268  0.0925  0.1368  0.0715
 5832TIP3    H138911   3.751   4.226  12.216  0.8396 -0.1851  0.5932
 5832TIP3    H238912   3.615   4.161  12.212  1.2436 -0.9429 -1.2877
 5833TIP3   OH238913   0.473   1.497  15.024 -0.2310  0.5481 -0.5768
 5833TIP3    H138914   0.525   1.427  15.063 -0.4692 -0.5153 -2.1062
 5833TIP3    H238915   0.500   1.499  14.932  0.5077  3.1808 -0.3398
 5834TIP3   OH238916   4.923   2.473  16.235 -0.4766 -0.3920 -0.9638
 5834TIP3    H138917   4.879   2.414  16.296  1.1977  0.2996  0.9754
 5834TIP3    H238918   4.985   2.417  16.188 -0.5992 -0.6242 -0.8501
 5835TIP3   OH238919   4.512   6.105  15.834 -0.3986  0.3670 -0.1009
 5835TIP3    H138920   4.601   6.120  15.801  0.8167 -1.4794  2.1732
 5835TIP3    H238921   4.458   6.101  15.755  0.9311  4.8862 -1.4005
 5836TIP3   OH238922   4.650   6.532   5.809 -0.7674 -0.3223 -0.6196
 5836TIP3    H138923   4.733   6.578   5.815 -0.8125 -0.1479 -1.2406
 5836TIP3    H238924   4.660   6.455   5.865 -0.3384 -0.0817 -0.3676
 5837TIP3   OH238925   2.440   6.189   5.065  0.8315 -0.3145  0.4893
 5837TIP3    H138926   2.368   6.190   5.002 -1.6013  0.2072  3.1498
 5837TIP3    H238927   2.430   6.105   5.110 -0.7293  1.4461  3.6321
 5838TIP3   OH238928   6.385   0.999  10.760  0.8076  0.1414  0.2406
 5838TIP3    H138929   6.335   0.931  10.714  1.5048  0.7348 -1.4067
 5838TIP3    H238930   6.339   1.080  10.740  2.4474  0.7075 -1.3529
 5839TIP3   OH238931   5.653   4.533  13.262  0.3109  0.3808 -0.3211
 5839TIP3    H138932   5.569   4.571  13.286  0.1666 -0.1366 -0.0131
 5839TIP3    H238933   5.687   4.592  13.193 -1.0500 -0.3260 -1.6131
 5840TIP3   OH238934   3.169   2.003  12.234 -0.2313  0.7060 -0.3824
 5840TIP3    H138935   3.090   1.986  12.182 -0.0922  2.5995 -1.2464
 5840TIP3    H238936   3.240   1.965  12.183 -0.5166 -0.7161  0.2411
 5841TIP3   OH238937   0.283   1.638  17.039 -0.1777  0.7075 -0.2033
 5841TIP3    H138938   0.330   1.717  17.014 -0.0042  0.6194 -0.1538
 5841TIP3    H238939   0.328   1.567  16.993  0.0951  0.5563  0.2975
 5842TIP3   OH238940   6.011   5.636   6.608 -0.3076 -0.5930 -0.2947
 5842TIP3    H138941   5.986   5.555   6.564 -0.1402 -0.7872 -0.0337
 5842TIP3    H238942   5.938   5.654   6.668 -2.1456  1.4464 -2.9761
 5843TIP3   OH238943   0.900   3.579  11.431 -0.1339  0.0202 -0.5829
 5843TIP3    H138944   0.951   3.628  11.496 -0.0896 -1.8663  0.8663
 5843TIP3    H238945   0.814   3.567  11.472  0.3176 -2.3643 -0.2287
 5844TIP3   OH238946   2.618   0.231   0.133 -0.0141  0.3743  0.0762
 5844TIP3    H138947   2.577   0.302   0.183 -3.2815 -0.5923 -1.1323
 5844TIP3    H238948   2.588   0.245   0.043  0.2964 -1.8332 -0.3912
 5845TIP3   OH238949   0.563   0.074  12.528 -0.0313 -0.0154 -0.0349
 5845TIP3    H138950   0.487   0.022  12.500 -0.3012  1.3152 -1.9118
 5845TIP3    H238951   0.564   0.066  12.623 -1.1847 -1.8887 -0.1474
 5846TIP3   OH238952   2.162   4.918   3.549 -0.4606  0.2129 -0.0035
 5846TIP3    H138953   2.110   4.998   3.543  0.3558  0.8049  0.5555
 5846TIP3    H238954   2.133   4.876   3.630  0.1093  0.6796  0.4476
 5847TIP3   OH238955   3.864   0.547   2.109  0.8177 -0.1092  0.2739
 5847TIP3    H138956   3.868   0.452   2.118  1.4790 -0.2317 -1.1890
 5847TIP3    H238957   3.854   0.562   2.015  2.1382  1.2832  0.3285
 5848TIP3   OH238958   2.877   6.337   0.519 -0.5154 -0.1416 -0.2600
 5848TIP3    H138959   2.797   6.365   0.475 -2.0576 -0.8919  1.9522
 5848TIP3    H238960   2.909   6.264   0.467 -2.8285 -1.6380  0.3270
 5849TIP3   OH238961   6.672   6.455   0.034 -0.1927  0.1247 -0.2816
 5849TIP3    H138962   6.585   6.479   0.003  0.5336 -0.9784 -3.2938
 5849TIP3    H238963   6.706   6.395  -0.032  2.6266  0.0526  1.1481
 5850TIP3   OH238964   5.564   5.608  12.116 -0.2669  0.4637 -0.1783
 5850TIP3    H138965   5.544   5.665  12.190  0.7760  2.0436 -1.0736
 5850TIP3    H238966   5.642   5.647  12.076 -0.5455 -0.6128 -1.8371
 5851TIP3   OH238967   3.933   1.930  15.971 -0.0360 -0.6957 -0.2853
 5851TIP3    H138968   4.009   1.923  15.913  0.1672 -0.8913  0.0071
 5851TIP3    H238969   3.957   1.997  16.035 -0.4908 -0.0573 -0.7768
 5852TIP3   OH238970   0.778   2.449  10.538 -0.1802 -0.0021  0.8641
 5852TIP3    H138971   0.761   2.355  10.535  1.6061 -0.2955 -1.5052
 5852TIP3    H238972   0.873   2.457  10.545 -0.1335  1.6198 -1.0729
 5853TIP3   OH238973   5.017   1.736  15.866  0.1999  0.1880 -0.1527
 5853TIP3    H138974   5.108   1.713  15.846 -0.1762  0.2989 -2.0357
 5853TIP3    H238975   5.000   1.814  15.814 -0.5172  1.0665  1.3711
 5854TIP3   OH238976   1.780   5.224  12.580 -0.1297 -0.5196  0.1664
 5854TIP3    H138977   1.768   5.318  12.591  1.3771 -0.5055  1.8996
 5854TIP3    H238978   1.773   5.210  12.485 -2.4650  0.9951  0.0708
 5855TIP3   OH238979   3.075   3.300  10.343 -0.1212  0.1809 -0.2601
 5855TIP3    H138980   3.039   3.387  10.325 -0.7500  0.0467  0.3291
 5855TIP3    H238981   3.142   3.314  10.410 -1.9241 -0.0946  1.6490
 5856TIP3   OH238982   4.970   3.183   4.571 -0.1823 -0.1870  0.3532
 5856TIP3    H138983   5.065   3.182   4.587 -0.0148 -2.9273 -0.6078
 5856TIP3    H238984   4.934   3.230   4.647  1.8261 -0.2425  1.3932
 5857TIP3   OH238985   4.545   2.877  13.304 -0.2307 -0.2140 -0.0924
 5857TIP3    H138986   4.624   2.910  13.346  1.6488 -1.9477 -2.1435
 5857TIP3    H238987   4.528   2.938  13.232 -1.5331  0.8748  1.1065
 5858TIP3   OH238988   1.140   4.848   4.625  0.4966 -0.1173  0.7484
 5858TIP3    H138989   1.133   4.943   4.626  2.6523  0.0629  1.6628
 5858TIP3    H238990   1.122   4.821   4.714  1.3030 -0.4248  0.8287
 5859TIP3   OH238991   3.024   4.105   5.480  0.1836  0.6149 -0.4519
 5859TIP3    H138992   3.067   4.186   5.505  1.9176 -0.3884 -0.1338
 5859TIP3    H238993   3.028   4.104   5.384  0.6497  0.6416 -0.4315
 5860TIP3   OH238994   6.348   4.770  13.367 -0.2445 -0.3045  0.4759
 5860TIP3    H138995   6.340   4.731  13.454  1.4903  0.3248  0.9407
 5860TIP3    H238996   6.408   4.844  13.379 -0.9571  0.5427 -1.0104
 5861TIP3   OH238997   0.827   5.063   3.235 -0.2876  0.3622 -0.2317
 5861TIP3    H138998   0.882   5.007   3.179  0.8011  0.7793  0.4042
 5861TIP3    H238999   0.760   5.097   3.176 -0.1717 -0.5694 -0.9118
 5862TIP3   OH239000   1.980   4.840  12.227 -0.1301 -0.2378  0.3923
 5862TIP3    H139001   2.002   4.860  12.135  0.9619  1.6132  1.0190
 5862TIP3    H239002   1.900   4.789  12.222 -1.2400  1.5976 -1.5449
 5863TIP3   OH239003   1.960   6.354   1.206 -0.5474 -0.3791 -0.1367
 5863TIP3    H139004   2.045   6.395   1.221 -0.2132 -1.1597  0.1344
 5863TIP3    H239005   1.897   6.413   1.248 -0.0698 -0.1758  0.2915
 5864TIP3   OH239006   5.077   3.562   0.130 -0.0559  0.1827  0.4451
 5864TIP3    H139007   5.011   3.494   0.144  1.6696 -1.3679  1.3256
 5864TIP3    H239008   5.076   3.613   0.211 -0.0898  0.0833  0.5068
 5865TIP3   OH239009   6.610   0.120  16.748 -0.6950  0.6766  0.5062
 5865TIP3    H139010   6.520   0.090  16.758 -0.6327  0.3226  0.0304
 5865TIP3    H239011   6.613   0.160  16.661 -0.2958  0.3321  0.3585
 5866TIP3   OH239012   0.698   6.014  13.420 -0.3907  0.6819  0.1346
 5866TIP3    H139013   0.631   5.955  13.386 -0.1115  1.4277 -1.7434
 5866TIP3    H239014   0.676   6.099  13.385  1.2433  1.0359 -0.0732
 5867TIP3   OH239015   4.755   0.825  13.664  0.0252  0.1708  0.7814
 5867TIP3    H139016   4.831   0.781  13.703 -0.9621 -1.8706  0.4855
 5867TIP3    H239017   4.765   0.810  13.570 -1.5324 -1.5043  0.8462
 5868TIP3   OH239018   1.434   2.853   2.005  0.3393 -0.2353 -0.5121
 5868TIP3    H139019   1.524   2.849   2.038  0.1859 -1.0852 -0.1552
 5868TIP3    H239020   1.410   2.761   1.995 -0.0863  0.0098 -1.7317
 5869TIP3   OH239021   1.028   2.140   1.484  0.3548 -0.2308 -0.0647
 5869TIP3    H139022   1.083   2.131   1.406 -0.9690  0.3836 -1.0787
 5869TIP3    H239023   0.981   2.056   1.490  2.0534 -1.1227  1.3393
 5870TIP3   OH239024   3.189   1.530  12.792 -0.2656  0.8628  0.0750
 5870TIP3    H139025   3.231   1.444  12.794 -0.6426  0.7036  1.3862
 5870TIP3    H239026   3.099   1.514  12.821 -1.1267  1.2768 -2.2513
 5871TIP3   OH239027   1.108   6.324   0.462  0.8203 -0.0740  0.0755
 5871TIP3    H139028   1.128   6.353   0.551  0.1596  1.4391 -0.2596
 5871TIP3    H239029   1.077   6.402   0.417  1.4140 -0.7552 -1.5748
 5872TIP3   OH239030   4.156   5.042   3.593 -0.0365 -0.0205 -0.1480
 5872TIP3    H139031   4.165   5.065   3.500  0.5464 -0.3326 -0.1693
 5872TIP3    H239032   4.094   5.106   3.627 -0.2689  0.0860 -0.7590
 5873TIP3   OH239033   3.685   5.572   3.668  0.7499  0.1586  0.1998
 5873TIP3    H139034   3.756   5.510   3.683  2.0028  1.3965 -0.4659
 5873TIP3    H239035   3.694   5.635   3.740  0.7284  0.6581 -0.2300
 5874TIP3   OH239036   2.728   6.369  12.961 -0.0886 -0.5845 -0.1524
 5874TIP3    H139037   2.634   6.383  12.952  0.2415  1.4739 -0.6249
 5874TIP3    H239038   2.746   6.381  13.054  0.0465  1.4357 -0.4108
 5875TIP3   OH239039   3.957   5.526   2.526 -0.5406 -0.2187  0.4715
 5875TIP3    H139040   3.928   5.587   2.458 -0.1710  0.7248  1.1326
 5875TIP3    H239041   4.006   5.459   2.480 -2.5433 -1.0501 -0.5047
 5876TIP3   OH239042   0.329   0.664   1.581 -0.4104 -0.2194 -0.4334
 5876TIP3    H139043   0.233   0.656   1.579 -0.5533  1.2529 -0.0261
 5876TIP3    H239044   0.349   0.726   1.512  0.0201  1.4049  1.1132
 5877TIP3   OH239045   2.516   3.504   4.692 -0.1093  0.0899 -0.3117
 5877TIP3    H139046   2.480   3.500   4.604  0.8301  3.4251 -0.9223
 5877TIP3    H239047   2.487   3.423   4.734 -1.1464 -1.2227 -3.4422
 5878TIP3   OH239048   1.837   2.826  14.323  0.2297 -0.4175 -0.0945
 5878TIP3    H139049   1.837   2.899  14.386  3.5904 -0.1331 -0.3575
 5878TIP3    H239050   1.863   2.866  14.241  0.6262 -1.6738 -0.5831
 5879TIP3   OH239051   4.747   4.696  12.742  0.3568  0.2440  0.1730
 5879TIP3    H139052   4.797   4.771  12.773 -0.2253  1.2702 -1.2653
 5879TIP3    H239053   4.789   4.672  12.659  0.0950 -0.5477  0.2684
 5880TIP3   OH239054   5.317   0.768   0.792  0.1072 -0.2689  0.4017
 5880TIP3    H139055   5.400   0.803   0.761  0.7081 -0.9560  1.2099
 5880TIP3    H239056   5.302   0.690   0.740  0.0506 -0.2462  0.3828
 5881TIP3   OH239057   3.425   2.470   1.248 -0.2565 -0.1920 -0.3605
 5881TIP3    H139058   3.475   2.392   1.226  0.0473  0.6772 -2.9524
 5881TIP3    H239059   3.364   2.481   1.175  0.0198  2.2272 -0.2885
 5882TIP3   OH239060   2.727   6.344  10.904 -0.0131  0.2607 -0.5309
 5882TIP3    H139061   2.658   6.365  10.967  0.1467 -3.0359  0.8316
 5882TIP3    H239062   2.806   6.382  10.942  0.0327 -1.4651  1.1907
 5883TIP3   OH239063   1.410   6.523  14.208  0.0654 -0.1455  0.0799
 5883TIP3    H139064   1.419   6.476  14.291  1.4867  0.2923  0.1890
 5883TIP3    H239065   1.432   6.614  14.229  1.1771 -0.1668 -0.9142
 5884TIP3   OH239066   3.641   1.832   5.795 -0.2523 -0.3512 -0.1024
 5884TIP3    H139067   3.610   1.898   5.733  1.2499  0.6665  0.1907
 5884TIP3    H239068   3.562   1.790   5.828 -1.2772  1.6261  0.0226
 5885TIP3   OH239069   6.522   1.243   1.432 -0.3560  0.3926  0.5816
 5885TIP3    H139070   6.616   1.246   1.417 -0.3487  0.4621  0.6403
 5885TIP3    H239071   6.483   1.274   1.350 -0.3695 -1.0884  0.0115
 5886TIP3   OH239072   3.286   5.033   5.986  0.2549 -0.3077  0.5858
 5886TIP3    H139073   3.335   5.116   5.987 -0.0656 -0.1120  2.6556
 5886TIP3    H239074   3.304   4.993   6.071  1.0520 -2.7890 -0.7116
 5887TIP3   OH239075   2.265   0.907  13.090 -0.2795 -0.3587  0.2986
 5887TIP3    H139076   2.296   0.873  13.006  0.2785  0.7864  0.0283
 5887TIP3    H239077   2.291   0.840  13.154  3.8714  1.0421  0.2418
 5888TIP3   OH239078   4.267   5.113   6.604 -0.4163 -0.9038 -0.0361
 5888TIP3    H139079   4.288   5.021   6.623 -1.9424 -1.3875 -0.6412
 5888TIP3    H239080   4.190   5.109   6.548 -1.4046  0.7938  1.1656
 5889TIP3   OH239081   0.889   3.372  13.025 -0.5480  0.4995 -0.4514
 5889TIP3    H139082   0.941   3.296  13.053  0.4999  0.9867 -1.0295
 5889TIP3    H239083   0.799   3.349  13.047 -0.1408 -0.5641  0.1458
 5890TIP3   OH239084   6.227   3.474   1.676  0.0529  0.3877 -0.4135
 5890TIP3    H139085   6.315   3.495   1.706  1.1224 -1.1886 -2.3633
 5890TIP3    H239086   6.178   3.457   1.757  2.4857 -2.2492  0.5848
 5891TIP3   OH239087   3.803   1.188  11.026 -0.2102 -0.0502  0.2456
 5891TIP3    H139088   3.875   1.251  11.027  0.2929 -0.6018 -0.4568
 5891TIP3    H239089   3.747   1.216  10.954 -0.0000 -0.3779 -0.0510
 5892TIP3   OH239090   4.497   5.954  10.870 -0.3781 -0.5902 -0.2011
 5892TIP3    H139091   4.477   5.886  10.935 -0.8937 -0.2834 -0.0401
 5892TIP3    H239092   4.414   5.998  10.855  0.5668  2.0668  2.0269
 5893TIP3   OH239093   0.533   0.659  13.515  0.2975 -0.4156  0.0304
 5893TIP3    H139094   0.498   0.653  13.426 -0.6332 -0.2616  0.3747
 5893TIP3    H239095   0.558   0.570  13.538  0.0629 -0.5405 -0.1993
 5894TIP3   OH239096   4.909   0.749  12.308  0.4041 -0.5376  0.3998
 5894TIP3    H139097   4.894   0.745  12.403  0.0285  1.8188  0.4680
 5894TIP3    H239098   4.846   0.814  12.277  1.5228 -0.2250 -1.2554
 5895TIP3   OH239099   2.290   0.383   3.056  0.0654 -0.0888 -0.3840
 5895TIP3    H139100   2.363   0.332   3.090 -2.1362 -2.4476  1.0180
 5895TIP3    H239101   2.261   0.335   2.978 -0.8561  0.0221 -0.1219
 5896TIP3   OH239102   6.623   1.610  14.523 -0.4025 -1.0109  0.2473
 5896TIP3    H139103   6.566   1.650  14.458  2.9779 -1.2368 -3.0509
 5896TIP3    H239104   6.611   1.516  14.512  0.5168 -1.0574 -0.3790
 5897TIP3   OH239105   0.115   5.123  13.945  0.3404 -0.5828 -0.0211
 5897TIP3    H139106   0.199   5.079  13.958  1.5122  1.4264 -0.4871
 5897TIP3    H239107   0.136   5.216  13.951 -2.0197 -0.0698  0.7322
 5898TIP3   OH239108   2.260   4.817   5.113  0.6355  0.6274  0.8453
 5898TIP3    H139109   2.247   4.723   5.124 -2.3443  0.7781 -0.9212
 5898TIP3    H239110   2.282   4.828   5.021 -0.4549  1.7592  0.7055
 5899TIP3   OH239111   2.923   4.356   0.582 -0.1882 -0.0197 -0.3434
 5899TIP3    H139112   2.982   4.394   0.517  0.7163 -0.9249 -0.0647
 5899TIP3    H239113   2.842   4.339   0.534  0.4636 -0.6432 -1.2353
 5900TIP3   OH239114   5.792   5.928   5.396  0.7178  0.0651 -0.2301
 5900TIP3    H139115   5.723   5.870   5.362  2.6650 -2.2835 -0.3653
 5900TIP3    H239116   5.747   6.010   5.416 -1.3663  0.0174 -4.1834
 5901TIP3   OH239117   0.032   3.401   0.935 -0.5218  0.4536  0.7426
 5901TIP3    H139118   0.059   3.364   0.850 -1.6344  4.1855 -1.3352
 5901TIP3    H239119   0.078   3.347   0.999  0.8788 -2.0921 -2.2194
 5902TIP3   OH239120   2.225   6.442  16.679 -0.3553  0.7558 -0.1100
 5902TIP3    H139121   2.272   6.518  16.714 -0.9172  1.0069  0.1029
 5902TIP3    H239122   2.161   6.480  16.619 -2.3661  0.6357  1.9212
 5903TIP3   OH239123   6.715   2.688   1.198  0.3490  0.0846 -0.1664
 5903TIP3    H139124   6.779   2.750   1.234  1.2308 -1.8901  1.8027
 5903TIP3    H239125   6.666   2.657   1.274 -0.0610 -1.6156 -1.0964
 5904TIP3   OH239126   1.715   0.170  11.754 -0.6206 -0.8523  0.1696
 5904TIP3    H139127   1.654   0.181  11.682 -0.7018 -0.1328  0.3363
 5904TIP3    H239128   1.667   0.200  11.832  0.0869  0.1915  0.2278
 5905TIP3   OH239129   5.286   6.393   3.453  0.3725 -0.2216 -0.3188
 5905TIP3    H139130   5.296   6.409   3.547  1.4238 -0.9401 -0.2915
 5905TIP3    H239131   5.289   6.480   3.414  0.2194  0.0626  0.2888
 5906TIP3   OH239132   2.168   1.655  14.309  0.3061 -0.1766 -0.0867
 5906TIP3    H139133   2.165   1.684  14.400  1.5848  3.5786 -1.1506
 5906TIP3    H239134   2.077   1.636  14.287 -0.1029 -0.4727  1.7454
 5907TIP3   OH239135   3.749   6.530   2.632  0.0227 -0.8937  0.0771
 5907TIP3    H139136   3.665   6.485   2.636 -0.7911  0.6341  0.6457
 5907TIP3    H239137   3.765   6.560   2.722 -0.2025  1.2184 -0.5397
 5908TIP3   OH239138   6.616   5.077  10.727 -0.4445  0.4269 -0.0443
 5908TIP3    H139139   6.564   4.998  10.712  0.3521 -0.2564  0.7077
 5908TIP3    H239140   6.695   5.063  10.674 -0.0820  0.4932  0.4752
 5909TIP3   OH239141   2.339   3.282  11.020 -0.0635  0.4322 -0.2331
 5909TIP3    H139142   2.362   3.341  10.948 -0.1206 -0.5130 -1.0270
 5909TIP3    H239143   2.366   3.196  10.991  0.7347  0.1643  1.2557
 5910TIP3   OH239144   4.206   1.940  10.568  0.3151 -0.6705  0.0664
 5910TIP3    H139145   4.283   1.931  10.513 -0.6638 -2.2731 -1.1013
 5910TIP3    H239146   4.150   2.002  10.521  0.3650 -0.4500  0.2962
 5911TIP3   OH239147   5.352   2.434  11.059 -0.6166  0.5487  0.1726
 5911TIP3    H139148   5.351   2.412  10.966  2.4078 -2.0315  0.6788
 5911TIP3    H239149   5.351   2.350  11.104 -0.4417  1.7319  2.4603
 5912TIP3   OH239150   4.333   6.439   0.591 -0.4035  0.2255  0.1446
 5912TIP3    H139151   4.380   6.484   0.520 -0.6089  1.5403  0.8157
 5912TIP3    H239152   4.287   6.367   0.547  1.6614 -0.6469 -0.6195
 5913TIP3   OH239153   0.960   2.614   5.836  0.4381  0.0443 -0.6573
 5913TIP3    H139154   0.914   2.597   5.754  1.6794  2.2286 -1.8375
 5913TIP3    H239155   1.033   2.671   5.812  2.1980 -1.1540  1.5937
 5914TIP3   OH239156   6.122   6.447   6.361  0.0471 -0.2181  0.2570
 5914TIP3    H139157   6.127   6.522   6.420 -0.7301 -1.0721  1.4395
 5914TIP3    H239158   6.044   6.463   6.308  0.7540  0.5591 -0.5485
 5915TIP3   OH239159   1.159   6.072  11.033 -0.3136 -0.0877  0.3378
 5915TIP3    H139160   1.249   6.039  11.032 -0.1078  0.4759 -0.4532
 5915TIP3    H239161   1.105   5.994  11.040  0.1943 -0.5526 -0.7300
 5916TIP3   OH239162   3.007   1.613   6.515  0.0736 -0.1383 -0.3420
 5916TIP3    H139163   2.967   1.700   6.512 -0.5259 -0.3327  1.4829
 5916TIP3    H239164   3.101   1.630   6.511 -0.0514  0.5721 -0.3515
 5917TIP3   OH239165   1.135   3.843  11.148  0.3614  0.3415  0.5199
 5917TIP3    H139166   1.119   3.863  11.240  1.1266 -2.8756  1.4118
 5917TIP3    H239167   1.230   3.829  11.143  0.5453  1.9928 -1.0968
 5918TIP3   OH239168   0.426   3.255  16.471  0.7780  0.5417 -0.2040
 5918TIP3    H139169   0.443   3.238  16.379  0.1837 -0.5457 -0.1298
 5918TIP3    H239170   0.513   3.250  16.513  0.8416 -0.6606 -0.4581
 5919TIP3   OH239171   1.921   6.253  17.227  0.3951 -0.2371  0.0135
 5919TIP3    H139172   1.986   6.257  17.157  2.4794  0.8596  1.9687
 5919TIP3    H239173   1.910   6.343  17.255 -0.5667 -0.6454  0.9985
 5920TIP3   OH239174   1.591   1.166   0.431  0.4846  0.2667 -0.1086
 5920TIP3    H139175   1.566   1.215   0.353  1.6287 -0.2708 -0.8325
 5920TIP3    H239176   1.556   1.218   0.504  0.1305  1.2154 -0.9388
 5921TIP3   OH239177   5.774   5.495  11.186 -0.5255 -0.0829  0.0146
 5921TIP3    H139178   5.681   5.483  11.208 -0.0298  0.1602  2.2547
 5921TIP3    H239179   5.776   5.487  11.090 -2.8477 -0.1501 -0.0653
 5922TIP3   OH239180   1.724   2.357  14.424 -0.4854  0.0421 -0.6298
 5922TIP3    H139181   1.736   2.448  14.451  0.6275 -0.9070  2.2897
 5922TIP3    H239182   1.810   2.330  14.392 -0.1009 -0.6989  0.9498
 5923TIP3   OH239183   1.375   5.229  14.026  0.6093 -0.8647  0.0647
 5923TIP3    H139184   1.448   5.274  14.067 -0.7141  0.1062  1.4426
 5923TIP3    H239185   1.410   5.194  13.945  2.2149  0.8615 -0.0183
 5924TIP3   OH239186   4.786   0.992   2.273  0.6252 -0.0403  0.0174
 5924TIP3    H139187   4.805   0.902   2.301  0.6785 -0.3351 -0.9405
 5924TIP3    H239188   4.840   1.004   2.195 -1.0869  0.0556 -1.1570
 5925TIP3   OH239189   1.230   3.543  12.437  0.2021 -0.2545  0.0377
 5925TIP3    H139190   1.289   3.600  12.388  0.5929  0.8435  1.7749
 5925TIP3    H239191   1.179   3.602  12.493 -0.8730 -1.4086  0.3043
 5926TIP3   OH239192   2.235   5.436   0.868  0.4205 -0.0800 -0.2969
 5926TIP3    H139193   2.232   5.492   0.789 -0.0308  0.1432 -0.1221
 5926TIP3    H239194   2.323   5.397   0.865  1.1487  1.4699  0.1493
 5927TIP3   OH239195   0.853   1.978  13.108 -0.4105 -0.2499  0.0273
 5927TIP3    H139196   0.828   2.025  13.187 -1.7752 -2.5319  0.9970
 5927TIP3    H239197   0.906   1.905  13.139  1.4094  0.4203 -1.4280
 5928TIP3   OH239198   3.147   3.259   1.814 -0.2645 -0.0710  0.8945
 5928TIP3    H139199   3.223   3.220   1.858  1.0496  0.3062 -0.9657
 5928TIP3    H239200   3.182   3.337   1.771 -1.7477  0.1860  0.1374
 5929TIP3   OH239201   3.838   4.189  14.271  0.1398 -0.7182 -0.8112
 5929TIP3    H139202   3.825   4.134  14.193 -2.8289 -1.8444  0.3941
 5929TIP3    H239203   3.762   4.247  14.271 -0.0496 -0.9355  1.3974
 5930TIP3   OH239204   1.272   1.219   1.342  0.0164  0.6959 -0.0994
 5930TIP3    H139205   1.245   1.277   1.270 -2.2426 -0.2058 -0.0354
 5930TIP3    H239206   1.254   1.269   1.421  0.0512  0.7130 -0.1025
 5931TIP3   OH239207   4.306   5.372  14.787  0.2258 -0.1542  0.6222
 5931TIP3    H139208   4.212   5.359  14.788  0.1673 -0.0599 -1.5188
 5931TIP3    H239209   4.317   5.467  14.796 -0.0297  0.1659 -1.9385
 5932TIP3   OH239210   0.092   3.711   3.909 -0.3564  0.5426  0.2558
 5932TIP3    H139211   0.172   3.758   3.930 -0.5404  0.7601  0.4743
 5932TIP3    H239212   0.084   3.645   3.978 -0.2381  0.3662  0.0994
 5933TIP3   OH239213   5.765   1.121  12.071  0.6150  0.5100  0.7258
 5933TIP3    H139214   5.791   1.201  12.024  1.1962 -1.0106 -1.6012
 5933TIP3    H239215   5.673   1.108  12.046  0.5447  0.4158  1.0383
 5934TIP3   OH239216   2.552   4.878  14.822  0.1620 -0.1197  0.3706
 5934TIP3    H139217   2.548   4.955  14.765  0.1605 -0.3863  0.0112
 5934TIP3    H239218   2.487   4.818  14.786  0.5494 -0.5116  0.3308
 5935TIP3   OH239219   3.550   5.325  16.081 -0.1800  1.2488 -0.3351
 5935TIP3    H139220   3.552   5.321  16.177 -1.1283 -1.1221 -0.3847
 5935TIP3    H239221   3.638   5.353  16.057  0.5350  0.3467  1.1724
 5936TIP3   OH239222   1.811   5.847   0.714 -0.1862  0.1103  0.2904
 5936TIP3    H139223   1.775   5.884   0.633 -2.5152  0.1220  1.2963
 5936TIP3    H239224   1.759   5.887   0.784  0.2955 -1.5961  1.6608
 5937TIP3   OH239225   1.593   0.252   4.412  0.2587  0.2976  0.1958
 5937TIP3    H139226   1.564   0.161   4.412  0.2112  0.3125  0.5477
 5937TIP3    H239227   1.513   0.303   4.398  0.0508  0.3573  1.5621
 5938TIP3   OH239228   0.022   3.692   1.492 -0.3512  0.0166 -0.5730
 5938TIP3    H139229   0.073   3.694   1.410 -1.4612 -0.2846 -1.2745
 5938TIP3    H239230  -0.065   3.722   1.467  0.6162  5.0008  1.4890
 5939TIP3   OH239231   2.423   6.188   2.802 -0.8306 -0.3949 -0.0144
 5939TIP3    H139232   2.393   6.155   2.886 -0.6681 -0.1156  0.1517
 5939TIP3    H239233   2.356   6.250   2.775 -1.3607 -1.1900 -0.5357
 5940TIP3   OH239234   1.404   5.169  16.997  0.2582 -0.4039 -0.0822
 5940TIP3    H139235   1.383   5.103  17.063  2.2304  0.0324  1.0418
 5940TIP3    H239236   1.495   5.150  16.973  0.0880  0.4514 -1.4984
 5941TIP3   OH239237   3.578   5.175   5.450  0.1061  0.0637 -0.1735
 5941TIP3    H139238   3.483   5.161   5.447 -0.1441  1.6536  0.2769
 5941TIP3    H239239   3.614   5.087   5.458 -1.3262 -0.5590 -0.3515
 5942TIP3   OH239240   6.571   1.690  11.799 -0.3743 -0.1074  0.5327
 5942TIP3    H139241   6.608   1.778  11.810 -0.7122  0.0181  0.6636
 5942TIP3    H239242   6.636   1.632  11.838  0.2765  0.0036 -0.3644
 5943TIP3   OH239243   3.074   2.212   4.212 -0.3516  0.6702  0.1465
 5943TIP3    H139244   3.047   2.211   4.304 -0.6749 -1.0542  0.0376
 5943TIP3    H239245   3.033   2.291   4.176 -3.4199 -0.6581  0.5607
 5944TIP3   OH239246   3.961   2.071  16.248 -0.4684  0.0696  0.2020
 5944TIP3    H139247   3.882   2.123  16.235 -0.4177  0.2577  0.6367
 5944TIP3    H239248   4.024   2.107  16.186 -0.7115 -0.0572 -0.1195
 5945TIP3   OH239249   5.189   1.734  10.926 -0.4813 -0.4125  0.0825
 5945TIP3    H139250   5.124   1.785  10.878 -0.5293 -0.1620  0.4144
 5945TIP3    H239251   5.255   1.712  10.861 -1.8850 -2.3684 -0.7359
 5946TIP3   OH239252   3.173   4.164  14.170  0.1243  0.8013 -0.7340
 5946TIP3    H139253   3.237   4.228  14.139  0.5153  1.4880  1.4170
 5946TIP3    H239254   3.102   4.217  14.206  0.3776  0.0506  0.9131
 5947TIP3   OH239255   0.895   1.574  11.254  0.3561 -0.1734 -0.5232
 5947TIP3    H139256   0.886   1.511  11.183  0.0347 -0.2258 -0.4359
 5947TIP3    H239257   0.823   1.554  11.313  2.4322 -2.2191  1.4501
 5948TIP3   OH239258   2.051   3.293   0.761 -0.2029 -0.5126  0.3715
 5948TIP3    H139259   2.122   3.240   0.724  2.2080  1.4772  1.9800
 5948TIP3    H239260   2.085   3.324   0.845 -2.5442  1.4623  0.6633
 5949TIP3   OH239261   2.973   4.410  11.040 -0.1767  0.2476 -0.0840
 5949TIP3    H139262   2.930   4.440  11.121 -0.4276 -3.8229  1.3886
 5949TIP3    H239263   2.912   4.435  10.971 -0.4773  2.8316  1.0212
 5950TIP3   OH239264   6.786   3.140   0.208 -0.0273 -0.2017 -0.4792
 5950TIP3    H139265   6.770   3.141   0.113 -0.7332  0.4156 -0.3584
 5950TIP3    H239266   6.861   3.081   0.219 -0.0679 -0.4346 -1.4010
 5951TIP3   OH239267   5.160   6.278  16.903 -0.1610  0.4882  0.2337
 5951TIP3    H139268   5.204   6.357  16.874  0.3218 -0.1186 -0.7373
 5951TIP3    H239269   5.155   6.223  16.824 -2.5752  0.5056  0.3444
 5952TIP3   OH239270   5.849   0.105   0.836  0.0861  0.2139  0.2028
 5952TIP3    H139271   5.808   0.143   0.758  0.5165  1.7019  0.6786
 5952TIP3    H239272   5.919   0.050   0.801  0.0973  0.6510 -0.4834
 5953TIP3   OH239273   3.343   1.809   1.725  0.0345  0.5460  0.2209
 5953TIP3    H139274   3.319   1.868   1.653  1.5482 -0.4485 -1.1468
 5953TIP3    H239275   3.369   1.868   1.796 -1.9817  1.5515  0.1714
 5954TIP3   OH239276   3.172   6.048  16.147 -0.3530  0.4522  0.9953
 5954TIP3    H139277   3.161   5.971  16.203 -1.2666 -0.3803 -0.3048
 5954TIP3    H239278   3.261   6.040  16.113 -0.1917  0.3555  1.4380
 5955TIP3   OH239279   1.161   4.097   1.672  0.0017  0.1633 -0.1529
 5955TIP3    H139280   1.075   4.076   1.707 -0.9081  0.3004 -2.2207
 5955TIP3    H239281   1.214   4.019   1.690 -0.8230 -0.3119  0.2416
 5956TIP3   OH239282   2.783   0.446  11.339 -0.2019 -0.3059 -0.0808
 5956TIP3    H139283   2.853   0.511  11.339  0.2182 -0.7554 -0.3282
 5956TIP3    H239284   2.812   0.380  11.403 -1.0728  0.2282  0.8788
 5957TIP3   OH239285   3.444   1.275   0.651  0.3382  1.1196  0.3653
 5957TIP3    H139286   3.390   1.197   0.662  0.6044  1.0442  1.1595
 5957TIP3    H239287   3.468   1.300   0.740 -0.4589  2.6231  0.1714
 5958TIP3   OH239288   3.993   5.635  10.917  0.3912  0.3410  0.0842
 5958TIP3    H139289   3.956   5.648  10.830  2.6617 -1.3512 -1.1702
 5958TIP3    H239290   4.087   5.644  10.905  0.8584 -1.5049  2.0735
 5959TIP3   OH239291   6.658   0.145  15.118  0.3117 -0.0893  0.5016
 5959TIP3    H139292   6.644   0.053  15.096 -0.7865  0.3834 -0.7986
 5959TIP3    H239293   6.642   0.149  15.213 -0.5767 -1.0455  0.4031
 5960TIP3   OH239294   3.140   1.881  14.807 -0.4175  0.0245 -0.1546
 5960TIP3    H139295   3.207   1.834  14.758  0.2379 -0.9277  1.5982
 5960TIP3    H239296   3.064   1.882  14.749  0.4330 -0.7810 -1.3094
 5961TIP3   OH239297   0.782   1.563   0.363 -0.2388  0.0872 -0.0575
 5961TIP3    H139298   0.812   1.486   0.315 -0.2122 -0.1517  0.3404
 5961TIP3    H239299   0.853   1.583   0.424 -0.6921 -0.2141  0.5786
 5962TIP3   OH239300   0.104   4.610  12.687 -0.3734 -0.0156  0.3060
 5962TIP3    H139301   0.064   4.687  12.728  1.1522  0.3601  1.1094
 5962TIP3    H239302   0.030   4.551  12.670 -1.2418  0.5515  1.9943
 5963TIP3   OH239303   6.193   4.830  17.007 -0.2997  0.2329 -0.4183
 5963TIP3    H139304   6.199   4.851  17.100 -0.6339  2.3988 -0.8541
 5963TIP3    H239305   6.279   4.796  16.985  0.3390  1.3252  0.3243
 5964TIP3   OH239306   2.971   5.210   6.185 -0.1971 -0.3620 -0.2147
 5964TIP3    H139307   2.917   5.135   6.209 -0.5857  0.0169  0.1009
 5964TIP3    H239308   2.915   5.263   6.128 -0.1553  0.0259  0.1040
 5965TIP3   OH239309   0.620   5.375   0.836 -0.5299 -0.0245  0.2967
 5965TIP3    H139310   0.555   5.445   0.851 -0.0924  0.6630 -0.9134
 5965TIP3    H239311   0.670   5.405   0.760  1.8508 -0.0804  1.7771
 5966TIP3   OH239312   0.666   5.968   3.155 -0.3534  0.0032  0.6373
 5966TIP3    H139313   0.708   5.975   3.069  0.2952 -1.7914  0.7898
 5966TIP3    H239314   0.737   5.985   3.218 -0.7312  0.8843  0.8314
 5967TIP3   OH239315   2.625   1.501  14.304  0.1743  0.1801  0.1247
 5967TIP3    H139316   2.623   1.595  14.286 -1.8399  0.2110  0.4581
 5967TIP3    H239317   2.637   1.495  14.399 -1.7334  0.1315  0.3739
 5968TIP3   OH239318   0.179   1.958  15.100 -0.9634  0.2210  0.2808
 5968TIP3    H139319   0.201   2.021  15.032  0.3704  0.5946  1.0364
 5968TIP3    H239320   0.130   2.009  15.164 -0.9617  0.2091  0.2917
 5969TIP3   OH239321   3.400   4.175  12.931 -0.0130 -0.4249 -0.0643
 5969TIP3    H139322   3.328   4.163  12.992  0.7334 -1.3685  0.6591
 5969TIP3    H239323   3.363   4.154  12.845 -0.6907 -0.5606  0.2612
 5970TIP3   OH239324   3.512   4.040  10.794  0.4398 -0.1207 -0.1088
 5970TIP3    H139325   3.507   4.135  10.789  2.6061  0.0033 -0.0452
 5970TIP3    H239326   3.502   4.020  10.887  1.0854  0.1171  0.0130
 5971TIP3   OH239327   5.998   4.284  15.079  0.8545  0.1026 -0.0987
 5971TIP3    H139328   5.986   4.378  15.066 -2.0291  0.0315  1.7073
 5971TIP3    H239329   6.021   4.276  15.172 -0.1387 -1.0631  0.0554
 5972TIP3   OH239330   0.861   5.957   5.765 -0.1866  0.1127 -0.8301
 5972TIP3    H139331   0.904   5.907   5.696 -1.3606 -2.1664  0.0229
 5972TIP3    H239332   0.867   5.901   5.843 -1.2504  1.4476  0.2460
 5973TIP3   OH239333   0.892   2.028  10.791  0.0097  0.3578  0.5827
 5973TIP3    H139334   0.832   2.030  10.716  0.9385  0.9827 -0.1435
 5973TIP3    H239335   0.843   2.070  10.862 -0.0632  1.7212 -0.2687
 5974TIP3   OH239336   2.945   1.372  13.802  0.4179 -0.3029 -0.0189
 5974TIP3    H139337   2.872   1.318  13.772 -1.4647  2.2764 -0.3153
 5974TIP3    H239338   2.982   1.324  13.876  0.3877 -3.1443 -1.7920
 5975TIP3   OH239339   3.847   6.376   1.710 -0.0079 -0.3497 -0.6598
 5975TIP3    H139340   3.872   6.414   1.794 -0.8913  1.2549 -1.1175
 5975TIP3    H239341   3.868   6.283   1.719  1.1713  0.0481  0.8436
 5976TIP3   OH239342   1.119   0.030  13.189 -0.0216  0.2302  0.1045
 5976TIP3    H139343   1.086  -0.002  13.105  1.0604 -1.2045  0.2157
 5976TIP3    H239344   1.086   0.120  13.194 -3.8858 -1.0726  0.2003
 5977TIP3   OH239345   1.642   0.664  16.938 -0.0868 -0.0620 -0.3740
 5977TIP3    H139346   1.698   0.593  16.970 -0.9709 -1.1552 -1.2044
 5977TIP3    H239347   1.584   0.684  17.012  1.7632  1.4957  0.7011
 5978TIP3   OH239348   5.445   3.803   0.180 -0.1162  0.2672 -0.1630
 5978TIP3    H139349   5.450   3.893   0.210 -0.2684  0.2796 -0.1778
 5978TIP3    H239350   5.536   3.777   0.166 -0.0738  0.4176 -0.1591
 5979TIP3   OH239351   0.486   3.296   5.110  0.7298  0.1483  0.1997
 5979TIP3    H139352   0.535   3.213   5.116  0.6785  0.1914  1.2643
 5979TIP3    H239353   0.450   3.309   5.198 -2.4713 -0.6485 -0.9303
 5980TIP3   OH239354   3.158   3.407   3.068  0.7458 -0.5200 -0.2701
 5980TIP3    H139355   3.096   3.336   3.083 -0.2757  0.3975 -0.0962
 5980TIP3    H239356   3.138   3.439   2.981  0.6301  0.1264 -0.0055
 5981TIP3   OH239357   2.368   1.222   2.912 -0.1298 -0.5146 -0.1684
 5981TIP3    H139358   2.277   1.204   2.935 -0.7873  0.8946 -1.5917
 5981TIP3    H239359   2.417   1.147   2.946 -1.7372 -1.0000  1.1290
 5982TIP3   OH239360   4.043   2.431   6.345  0.3187  0.1196 -0.2838
 5982TIP3    H139361   4.001   2.359   6.393  2.3706 -0.4462  0.7218
 5982TIP3    H239362   4.099   2.387   6.281  0.3018  0.8495 -0.8029
 5983TIP3   OH239363   1.836   5.118   2.762  0.0007  0.1812 -0.5091
 5983TIP3    H139364   1.783   5.042   2.787 -0.4462  0.4175 -0.7414
 5983TIP3    H239365   1.897   5.084   2.696 -0.6101  0.1621 -1.0638
 5984TIP3   OH239366   0.898   3.856   6.626 -0.1140 -0.5470  0.4377
 5984TIP3    H139367   0.947   3.914   6.684 -0.1144  0.2520 -0.3504
 5984TIP3    H239368   0.856   3.914   6.564 -0.7323 -1.3469  0.0951
 5985TIP3   OH239369   6.020   1.087   1.862  0.3041  0.2283  0.3346
 5985TIP3    H139370   6.043   1.098   1.770  1.2581 -2.9322  0.1160
 5985TIP3    H239371   5.925   1.073   1.861  0.4062 -0.4458 -0.2520
 5986TIP3   OH239372   5.705   4.953   1.943  0.3967  0.7650  0.6107
 5986TIP3    H139373   5.789   4.968   1.986  1.1223 -0.4903 -0.3120
 5986TIP3    H239374   5.701   5.019   1.874  2.5723 -1.7325 -2.0386
 5987TIP3   OH239375   3.147   1.968   2.607 -0.3193  0.4262  0.1988
 5987TIP3    H139376   3.141   1.971   2.702  0.9993  0.9595  0.2859
 5987TIP3    H239377   3.082   2.031   2.576 -1.6563 -0.7015  0.6986
 5988TIP3   OH239378   2.240   0.383  11.850  0.4162 -0.5584  0.3471
 5988TIP3    H139379   2.323   0.427  11.837  0.4424 -1.2303 -1.9544
 5988TIP3    H239380   2.237   0.316  11.781 -2.8875  0.7631 -0.8862
 5989TIP3   OH239381   6.352   1.816  15.002 -0.1868 -0.4815  0.4101
 5989TIP3    H139382   6.259   1.830  15.019  0.4151  0.9851  2.6854
 5989TIP3    H239383   6.385   1.773  15.081  0.9211 -1.7062 -0.7013
 5990TIP3   OH239384   4.795   1.887  16.533 -0.0599 -0.0447 -1.5407
 5990TIP3    H139385   4.854   1.958  16.555  1.8608 -1.8005 -0.8442
 5990TIP3    H239386   4.708   1.919  16.558  1.0437  1.1968  0.8668
 5991TIP3   OH239387   2.572   0.683   3.601  0.1636  0.6519 -0.0745
 5991TIP3    H139388   2.624   0.711   3.525  0.4738  0.6676  0.1429
 5991TIP3    H239389   2.494   0.738   3.597  0.6566  1.3841  0.2057
 5992TIP3   OH239390   5.396   6.774  14.229  0.3675  0.1888 -0.3815
 5992TIP3    H139391   5.427   6.683  14.227 -0.1293  0.0366 -1.3439
 5992TIP3    H239392   5.301   6.767  14.237  0.4578  0.6458  1.1400
 5993TIP3   OH239393   1.682   2.328  12.722 -0.0085  0.3710  0.1588
 5993TIP3    H139394   1.737   2.326  12.800 -0.2115 -0.0376  0.2968
 5993TIP3    H239395   1.646   2.417  12.719  0.4028  0.5392  0.2488
 5994TIP3   OH239396   3.090   4.034   3.328 -0.0127 -0.1100 -0.1804
 5994TIP3    H139397   3.153   4.008   3.395  1.1852 -1.9953 -1.9685
 5994TIP3    H239398   3.048   3.952   3.302 -2.0969  0.9167 -0.1314
 5995TIP3   OH239399   1.427   4.098  12.164 -0.5559 -0.1347  0.3233
 5995TIP3    H139400   1.485   4.169  12.137 -1.9458  1.0196  0.3019
 5995TIP3    H239401   1.479   4.046  12.225  0.8406  0.2630 -0.5273
 5996TIP3   OH239402   3.838   5.411  12.745 -0.3069 -0.4426  0.0723
 5996TIP3    H139403   3.857   5.445  12.657  1.0928 -0.2247  0.4382
 5996TIP3    H239404   3.752   5.446  12.767 -0.1506  0.4760 -0.7295
 5997TIP3   OH239405   5.652   2.198  13.926  0.1369  0.3571 -0.3629
 5997TIP3    H139406   5.610   2.138  13.865 -0.0112 -0.9524  0.9995
 5997TIP3    H239407   5.594   2.198  14.003  2.6140 -1.5627  1.5984
 5998TIP3   OH239408   2.885   1.031   5.612  0.1085 -0.4913  0.4800
 5998TIP3    H139409   2.870   0.943   5.578 -1.7806 -0.4705  1.2157
 5998TIP3    H239410   2.947   1.019   5.684  2.0321 -0.8542 -1.1822
 5999TIP3   OH239411   2.981   0.679   5.277  0.0194  0.0158 -0.4529
 5999TIP3    H139412   2.911   0.627   5.237  0.2672 -1.4030  0.8894
 5999TIP3    H239413   3.037   0.705   5.204 -0.9280 -0.3462 -1.3188
 6000TIP3   OH239414   1.570   4.372  17.136 -0.2477  0.0707 -0.0589
 6000TIP3    H139415   1.505   4.349  17.069 -0.0844 -0.1639 -0.1376
 6000TIP3    H239416   1.524   4.363  17.219 -0.0581 -0.9822 -0.0660
 6001TIP3   OH239417   0.818   1.795   3.838  0.2799  0.5697 -0.3053
 6001TIP3    H139418   0.805   1.708   3.799  0.5610  0.6324 -0.5458
 6001TIP3    H239419   0.914   1.805   3.842  0.2495  0.4165  0.7458
 6002TIP3   OH239420   3.547   1.643   1.632  0.6165  0.8682 -0.4777
 6002TIP3    H139421   3.617   1.692   1.674  0.8304  0.0812  0.0944
 6002TIP3    H239422   3.468   1.693   1.651  0.5869  0.0628  1.6241
 6003TIP3   OH239423   4.876   5.861  12.767 -0.0951  0.2763  0.6328
 6003TIP3    H139424   4.969   5.843  12.779 -0.8366 -2.8233  2.3917
 6003TIP3    H239425   4.853   5.919  12.840 -0.1578 -1.4717  2.0330
 6004TIP3   OH239426   0.277   5.694   6.219  0.0460  0.6660  0.2954
 6004TIP3    H139427   0.224   5.637   6.273 -0.0315 -0.3070 -0.7982
 6004TIP3    H239428   0.367   5.667   6.235 -0.0082  0.0192 -0.4492
 6005TIP3   OH239429   4.668   4.349   2.028 -0.1962  0.3772 -0.5613
 6005TIP3    H139430   4.680   4.295   1.950  0.3911 -0.8942  0.3880
 6005TIP3    H239431   4.750   4.395   2.038  0.6014 -1.2513  0.6281
 6006TIP3   OH239432   5.016   4.461  13.905 -0.0690 -0.8743  0.8916
 6006TIP3    H139433   5.060   4.420  13.830  0.5562 -0.0698  0.8190
 6006TIP3    H239434   5.044   4.552  13.903  0.2999 -0.9452  2.3641
 6007TIP3   OH239435   3.710   3.322   1.955  0.1005 -0.5777  0.5920
 6007TIP3    H139436   3.730   3.381   1.881  0.2128 -0.5887  0.6124
 6007TIP3    H239437   3.677   3.380   2.023 -2.5999 -0.9013 -0.4066
 6008TIP3   OH239438   2.252   3.900   0.145  0.1489  0.5495 -0.1420
 6008TIP3    H139439   2.237   3.995   0.147 -1.3790  0.3416 -0.7837
 6008TIP3    H239440   2.316   3.884   0.214  0.9201  2.1350 -0.4655
 6009TIP3   OH239441   0.729   0.914  10.904  0.0193 -0.4373 -0.2239
 6009TIP3    H139442   0.797   0.902  10.970  0.5342  2.7642 -0.1079
 6009TIP3    H239443   0.761   0.866  10.827  0.8428 -1.6475  0.8679
 6010TIP3   OH239444   4.983   2.539  16.863 -0.1410 -0.2544 -0.3779
 6010TIP3    H139445   5.018   2.627  16.851  1.3374 -0.8176 -0.3249
 6010TIP3    H239446   4.930   2.545  16.943  0.1190  0.5261 -0.2626
 6011TIP3   OH239447   2.056   5.966  11.040  0.2076  0.1218  0.7875
 6011TIP3    H139448   2.123   5.908  11.004 -0.5812  0.9454 -2.1262
 6011TIP3    H239449   1.989   5.906  11.074  0.1938 -0.7406 -0.6863
 6012TIP3   OH239450   2.610   2.761   0.487  0.4345 -0.1854  0.2014
 6012TIP3    H139451   2.626   2.824   0.418 -1.0499  1.3689  1.2300
 6012TIP3    H239452   2.518   2.736   0.477  0.3244 -0.2857  1.2971
 6013TIP3   OH239453   4.353   0.197   1.173 -0.0940 -0.4640  0.3073
 6013TIP3    H139454   4.385   0.197   1.263 -0.4496 -1.3927  0.4334
 6013TIP3    H239455   4.430   0.178   1.120 -0.2616 -1.9079  0.5578
 6014TIP3   OH239456   5.662   5.443  12.340  0.4712 -0.7636  0.0093
 6014TIP3    H139457   5.663   5.435  12.244 -0.2821  1.7185 -0.2409
 6014TIP3    H239458   5.722   5.515  12.359 -2.7979  1.8415  1.0155
 6015TIP3   OH239459   3.372   3.986   1.242  0.2087 -0.0311  0.1052
 6015TIP3    H139460   3.444   4.048   1.229 -0.7228  1.4438  1.7252
 6015TIP3    H239461   3.410   3.916   1.294  1.0904 -0.4725 -1.1160
 6016TIP3   OH239462   3.010   1.212  14.802  0.2253  0.0115 -0.1522
 6016TIP3    H139463   2.948   1.139  14.795  0.2691 -0.0689  0.3246
 6016TIP3    H239464   3.053   1.199  14.886  0.7227  0.2001 -0.3753
 6017TIP3   OH239465   4.362   4.520   5.004  0.2023  0.4273  0.6929
 6017TIP3    H139466   4.288   4.581   4.998 -2.0147 -2.3245 -1.2580
 6017TIP3    H239467   4.403   4.526   4.918  1.5888  1.0734  1.3858
 6018TIP3   OH239468   4.774   6.660   3.807  0.0656 -0.0061 -0.1210
 6018TIP3    H139469   4.720   6.736   3.825  0.4233  0.3630 -0.5721
 6018TIP3    H239470   4.728   6.586   3.848 -0.2217  0.4683  0.4096
 6019TIP3   OH239471   1.619   0.135   5.489 -0.3291 -0.1636 -0.2864
 6019TIP3    H139472   1.624   0.150   5.583  0.3293 -0.8686 -0.2032
 6019TIP3    H239473   1.674   0.203   5.451 -1.1865  0.5761 -0.2110
 6020TIP3   OH239474   5.919   4.798  17.078 -0.1188  0.0186  0.2474
 6020TIP3    H139475   6.011   4.798  17.051  0.6224 -1.3663  2.6440
 6020TIP3    H239476   5.897   4.891  17.086  1.3118  0.3520  0.4517
 6021TIP3   OH239477   2.701   1.100  12.644 -0.2513  0.2635  0.1059
 6021TIP3    H139478   2.632   1.104  12.710 -1.7684  0.5447 -1.4567
 6021TIP3    H239479   2.767   1.162  12.675 -0.1618 -0.8078  2.1804
 6022TIP3   OH239480   4.056   4.885   1.807  0.1134 -1.2359  0.2174
 6022TIP3    H139481   4.015   4.971   1.794 -1.6793 -1.9910  0.7143
 6022TIP3    H239482   4.004   4.826   1.753  0.9517 -2.1316  0.3758
 6023TIP3   OH239483   1.597   0.665  12.298 -0.0036 -0.2313  0.4929
 6023TIP3    H139484   1.547   0.738  12.334  1.6686  0.5387  1.3668
 6023TIP3    H239485   1.655   0.639  12.370  0.3469 -1.5432 -0.2568
 6024TIP3   OH239486   1.953   3.694  12.414  0.0072 -0.5049 -0.4134
 6024TIP3    H139487   2.044   3.664  12.419  0.2158  0.3094  0.7752
 6024TIP3    H239488   1.909   3.652  12.488  0.1194  1.4263  0.8064
 6025TIP3   OH239489   0.654   2.900  13.263 -0.3708  0.3070 -0.1898
 6025TIP3    H139490   0.560   2.918  13.256 -0.7018 -1.4579 -0.4527
 6025TIP3    H239491   0.660   2.805  13.265  1.5671  0.3374 -2.4136
 6026TIP3   OH239492   5.855   0.738   2.950  0.8741  0.9336 -0.2609
 6026TIP3    H139493   5.936   0.688   2.942  1.9472  2.4837  0.7202
 6026TIP3    H239494   5.860   0.780   3.036 -0.6676  1.5627 -0.4575
 6027TIP3   OH239495   1.171   1.692   5.700 -0.4246 -0.1591  0.1218
 6027TIP3    H139496   1.247   1.636   5.687 -0.2930 -0.6129  2.5587
 6027TIP3    H239497   1.141   1.671   5.789 -1.3154  2.5088  0.4907
 6028TIP3   OH239498   2.573   4.227   5.963  0.6938 -0.4071 -0.0571
 6028TIP3    H139499   2.644   4.291   5.973 -0.3791  0.7242  0.4146
 6028TIP3    H239500   2.515   4.243   6.038  0.1977 -1.6645 -0.1549
 6029TIP3   OH239501   3.566   5.058   6.101 -0.2012 -0.1886 -0.3586
 6029TIP3    H139502   3.563   4.965   6.125 -1.0452  0.6338  3.0749
 6029TIP3    H239503   3.647   5.090   6.141 -0.4506  0.7496 -0.6103
 6030TIP3   OH239504   4.086   4.685  15.534 -0.5217  0.3016 -0.8131
 6030TIP3    H139505   4.079   4.674  15.628 -0.5742 -1.3105 -0.9870
 6030TIP3    H239506   4.180   4.689  15.517 -0.4969  0.0570 -0.7401
 6031TIP3   OH239507   3.672   4.154  16.366 -0.0894 -0.1136 -0.1198
 6031TIP3    H139508   3.659   4.099  16.443  0.5385  0.7766  0.6428
 6031TIP3    H239509   3.675   4.243  16.401 -1.0180  0.4007 -1.3207
 6032TIP3   OH239510   5.432   3.164  14.067  0.0340  0.6318 -0.0992
 6032TIP3    H139511   5.362   3.103  14.043  1.9009 -1.4500 -0.4306
 6032TIP3    H239512   5.418   3.182  14.160 -0.4056 -0.5214  0.0618
 6033TIP3   OH239513   6.386   6.715   1.575  0.0147 -0.1468  0.0429
 6033TIP3    H139514   6.315   6.725   1.512  0.7103  0.6614 -0.6251
 6033TIP3    H239515   6.433   6.798   1.571  1.7939 -1.1633 -0.5171
 6034TIP3   OH239516   1.092   0.550  15.847 -0.1146  0.1016 -0.0429
 6034TIP3    H139517   1.005   0.575  15.876 -0.1281  0.7672 -0.6568
 6034TIP3    H239518   1.120   0.622  15.790  0.4800 -0.5153 -0.5347
 6035TIP3   OH239519   3.358   6.474   0.894  0.1036 -0.1609  0.2367
 6035TIP3    H139520   3.279   6.505   0.851  0.4282  0.4601  0.0782
 6035TIP3    H239521   3.373   6.387   0.858  0.6369  0.5400 -1.2536
 6036TIP3   OH239522   3.164   3.041  12.911  0.1447 -0.2738  0.1113
 6036TIP3    H139523   3.167   2.974  12.843  1.6324 -0.2581  0.1432
 6036TIP3    H239524   3.191   3.122  12.867  0.9057 -0.2240  0.6494
 6037TIP3   OH239525   2.799   6.268   6.288 -0.5691  0.2975  0.4017
 6037TIP3    H139526   2.812   6.244   6.380 -1.7993  1.3330  0.8483
 6037TIP3    H239527   2.729   6.210   6.258  0.4632 -0.6874 -0.1623
 6038TIP3   OH239528   1.607   0.575   3.241  0.4843  0.3461  0.7199
 6038TIP3    H139529   1.538   0.622   3.288  0.6753  0.4183  0.9274
 6038TIP3    H239530   1.673   0.556   3.307  2.3319  3.4079 -0.1137
 6039TIP3   OH239531   0.042   1.360  10.761 -0.4897 -0.0293 -0.0235
 6039TIP3    H139532   0.016   1.447  10.791  0.4765 -0.2864  1.6492
 6039TIP3    H239533   0.133   1.351  10.791 -0.1866 -1.1332 -1.2483
 6040TIP3   OH239534   3.183   0.861  10.901 -0.2183 -0.5280 -0.2026
 6040TIP3    H139535   3.127   0.908  10.840 -1.7285 -2.1053 -0.0527
 6040TIP3    H239536   3.247   0.926  10.930 -0.0538  0.4878 -2.7246
 6041TIP3   OH239537   6.498   0.702   0.182 -0.2069 -0.3607  0.0626
 6041TIP3    H139538   6.447   0.622   0.197 -1.3640 -0.0228 -1.9278
 6041TIP3    H239539   6.480   0.756   0.259  0.5629 -1.9910  1.4119
 6042TIP3   OH239540   1.238   0.814  11.647 -0.5456 -0.4385 -0.2362
 6042TIP3    H139541   1.176   0.759  11.600 -0.9598  0.4879 -0.7938
 6042TIP3    H239542   1.306   0.834  11.583 -0.0868 -0.7850  0.1391
 6043TIP3   OH239543   1.117   5.446  12.792  0.0420 -0.0472 -0.6014
 6043TIP3    H139544   1.150   5.448  12.702  0.2313 -0.5900 -0.5453
 6043TIP3    H239545   1.167   5.514  12.837  1.2156 -0.9753 -0.4758
 6044TIP3   OH239546   4.857   3.734  11.894 -0.4725  0.2446  0.5407
 6044TIP3    H139547   4.862   3.639  11.904  0.8952  0.4781  2.5016
 6044TIP3    H239548   4.946   3.760  11.868 -0.4145  1.1198  1.5684
 6045TIP3   OH239549   4.533   2.994   0.064  0.4231  0.3098  0.0952
 6045TIP3    H139550   4.475   3.026   0.133 -0.8750 -1.8729  0.0769
 6045TIP3    H239551   4.490   3.022  -0.017 -0.7793 -1.5008  0.0757
 6046TIP3   OH239552   3.648   3.177  12.135  0.5467 -0.6269 -0.5106
 6046TIP3    H139553   3.687   3.258  12.103  0.5399 -1.0098 -1.4957
 6046TIP3    H239554   3.675   3.172  12.227  1.6162 -0.1561 -0.7942
 6047TIP3   OH239555   5.855   5.751   6.047 -0.1438  0.2168  0.0790
 6047TIP3    H139556   5.873   5.659   6.068  1.4626  0.7998  1.3577
 6047TIP3    H239557   5.914   5.800   6.104 -1.3657  2.0643 -0.2289
 6048TIP3   OH239558   1.037   3.648  14.474  0.6815 -0.2404 -0.2774
 6048TIP3    H139559   0.958   3.598  14.452 -0.2612  1.4502 -0.7577
 6048TIP3    H239560   1.096   3.631  14.400 -0.4887  1.1351 -1.5749
 6049TIP3   OH239561   1.318   5.556  14.097  0.5412 -0.0612  0.9064
 6049TIP3    H139562   1.259   5.597  14.161  1.3258  1.0639  0.9347
 6049TIP3    H239563   1.279   5.471  14.079 -1.7557  1.1353  0.0185
 6050TIP3   OH239564   0.404   6.320  15.774  0.7634 -0.0586 -0.1829
 6050TIP3    H139565   0.349   6.398  15.781 -0.5600 -1.0267  0.3496
 6050TIP3    H239566   0.451   6.316  15.858  0.0050 -0.4360  0.2297
 6051TIP3   OH239567   6.370   2.816  15.412 -0.8584  0.0814 -0.1152
 6051TIP3    H139568   6.350   2.904  15.443 -1.0498  0.6006 -1.6602
 6051TIP3    H239569   6.435   2.782  15.473  0.1839  1.7887 -0.2690
 6052TIP3   OH239570   2.299   2.887  12.124 -0.1969 -0.4058  0.3840
 6052TIP3    H139571   2.354   2.829  12.071  0.1514  0.9277 -0.7735
 6052TIP3    H239572   2.261   2.948  12.060 -0.6527  0.5318  1.5364
 6053TIP3   OH239573   0.905   3.234  17.171 -0.2286 -0.0080 -0.0011
 6053TIP3    H139574   0.878   3.144  17.190  1.2225 -0.2721  0.8822
 6053TIP3    H239575   0.921   3.273  17.258 -1.1191  1.1930 -0.3533
 6054TIP3   OH239576   4.749   1.789   2.481  0.0334  0.0099  0.0197
 6054TIP3    H139577   4.683   1.797   2.413 -0.5147  0.2563  0.5726
 6054TIP3    H239578   4.794   1.707   2.462 -0.0233  0.1471 -0.7138
 6055TIP3   OH239579   0.193   0.679   3.770  0.6297  0.0942  0.5272
 6055TIP3    H139580   0.186   0.712   3.680  0.7503 -0.4443  0.3231
 6055TIP3    H239581   0.136   0.737   3.820 -0.1308 -0.1515 -0.0390
 6056TIP3   OH239582   2.698   0.795   5.082 -0.4094  0.6064  1.0086
 6056TIP3    H139583   2.612   0.826   5.053  0.2505  0.6910 -0.8775
 6056TIP3    H239584   2.696   0.700   5.067  0.2330  0.7645 -0.1371
 6057TIP3   OH239585   1.711   6.739   3.472 -0.5056 -0.4324 -0.0414
 6057TIP3    H139586   1.625   6.770   3.498 -0.1470  0.6036 -0.0974
 6057TIP3    H239587   1.762   6.736   3.553 -0.5244 -0.8324 -0.0423
 6058TIP3   OH239588   6.742   0.942  13.444 -0.2973 -0.4099 -0.0635
 6058TIP3    H139589   6.647   0.945  13.434 -0.4128  1.0472  1.4135
 6058TIP3    H239590   6.776   0.977  13.362 -1.0337 -0.7789 -0.5286
 6059TIP3   OH239591   2.237   1.797   4.546  0.0486 -0.3639 -0.6740
 6059TIP3    H139592   2.307   1.797   4.610 -1.7055 -1.7536  1.3185
 6059TIP3    H239593   2.267   1.737   4.477  0.9310 -0.7426  0.0302
 6060TIP3   OH239594   5.348   2.845   4.128  0.4456  0.6882 -1.1345
 6060TIP3    H139595   5.285   2.773   4.136  0.6900  0.4434 -1.4140
 6060TIP3    H239596   5.340   2.892   4.211  0.6343  0.0515 -0.7528
 6061TIP3   OH239597   0.029   3.654   3.647  0.2389  0.3325 -0.1871
 6061TIP3    H139598   0.064   3.691   3.728 -1.0564  1.1189  0.0191
 6061TIP3    H239599   0.072   3.705   3.578 -0.0539  0.9150  0.0534
 6062TIP3   OH239600   0.168   5.899  12.374  0.5087  0.5296  0.3300
 6062TIP3    H139601   0.133   5.963  12.312  0.3799  0.1697  0.0251
 6062TIP3    H239602   0.091   5.864  12.418  0.5470  0.3237  0.2356
 6063TIP3   OH239603   3.263   6.437   2.258 -0.1591 -0.2563 -1.0678
 6063TIP3    H139604   3.278   6.382   2.182 -0.2367 -0.8798 -0.6308
 6063TIP3    H239605   3.345   6.486   2.269  0.0996 -0.6700 -1.1392
 6064TIP3   OH239606   2.638   2.625   5.423  0.1221  0.1668  0.6394
 6064TIP3    H139607   2.727   2.590   5.420 -0.1074 -0.3792  0.0226
 6064TIP3    H239608   2.645   2.714   5.388  0.3180 -0.1011 -0.0035
 6065TIP3   OH239609   5.241   0.803  13.471 -0.3133  0.0201  0.5136
 6065TIP3    H139610   5.153   0.767  13.470 -0.1352 -0.4111  0.2582
 6065TIP3    H239611   5.281   0.771  13.390  0.0691  0.2322  0.6178
 6066TIP3   OH239612   1.133   0.276   6.133  0.2738  0.4805  0.0256
 6066TIP3    H139613   1.082   0.356   6.122  1.7621  1.3290 -0.8234
 6066TIP3    H239614   1.090   0.230   6.204 -0.2264  2.3427  0.9578
 6067TIP3   OH239615   3.161   3.889   5.563  0.5354  0.4304  0.0628
 6067TIP3    H139616   3.103   3.963   5.542 -0.9456 -0.4148  1.0875
 6067TIP3    H239617   3.176   3.897   5.658  0.3071 -0.6154  0.1907
 6068TIP3   OH239618   3.040   5.347  14.924 -0.5185 -0.0771 -0.0800
 6068TIP3    H139619   3.033   5.256  14.895  0.2318 -0.6227  1.4001
 6068TIP3    H239620   3.133   5.359  14.943 -0.2684  1.6362 -2.2483
 6069TIP3   OH239621   4.007   1.916  12.113 -0.0454  0.1318 -0.1269
 6069TIP3    H139622   3.950   1.972  12.060 -0.8247 -1.2899 -0.8157
 6069TIP3    H239623   3.947   1.871  12.172  0.5358 -0.2929  0.1400
 6070TIP3   OH239624   6.156   6.682   4.651 -0.4171  0.3486  0.2864
 6070TIP3    H139625   6.213   6.693   4.727 -1.6823  1.6119  1.1043
 6070TIP3    H239626   6.087   6.622   4.680 -0.2608 -0.0885 -0.2400
 6071TIP3   OH239627   6.116   5.725  15.647 -0.5859 -0.2987  0.2795
 6071TIP3    H139628   6.059   5.649  15.664 -1.6360 -0.1146 -2.2005
 6071TIP3    H239629   6.142   5.715  15.556 -0.5947  2.2226 -0.0340
 6072TIP3   OH239630   5.547   2.423  12.028  0.6042 -0.2547 -0.0265
 6072TIP3    H139631   5.586   2.430  11.941  2.9386  0.1126  1.0104
 6072TIP3    H239632   5.541   2.328  12.044  1.6812 -0.3222  0.0384
 6073TIP3   OH239633   3.938   3.747  15.136  0.5421 -0.0190 -0.7527
 6073TIP3    H139634   3.930   3.675  15.074  0.3221  0.8230 -1.7057
 6073TIP3    H239635   3.999   3.808  15.095  0.5070  0.4764 -0.0775
 6074TIP3   OH239636   6.617   6.074  13.200  0.6717 -0.2868 -0.2992
 6074TIP3    H139637   6.593   6.116  13.117  0.1165 -0.2739 -0.1301
 6074TIP3    H239638   6.635   6.147  13.259 -4.8224 -0.0842  1.4035
 6075TIP3   OH239639   4.072   1.770   3.296  0.2215 -0.3181 -0.0208
 6075TIP3    H139640   3.978   1.757   3.285  0.6487 -2.2709 -1.5364
 6075TIP3    H239641   4.110   1.741   3.214  2.1281  0.9515  0.3872
 6076TIP3   OH239642   0.267   1.096  14.047 -0.0001  0.3151 -0.0520
 6076TIP3    H139643   0.356   1.131  14.046  0.7624 -1.5012  0.9054
 6076TIP3    H239644   0.277   1.007  14.080 -1.9994 -0.4548 -1.4145
 6077TIP3   OH239645   5.143   5.740   4.442 -0.6565 -0.5794 -0.2196
 6077TIP3    H139646   5.094   5.667   4.481 -1.9201 -0.2511 -1.1545
 6077TIP3    H239647   5.075   5.802   4.416  0.3118  0.1502 -1.0047
 6078TIP3   OH239648   1.278   1.432   0.781  0.8188 -0.2560 -0.2072
 6078TIP3    H139649   1.322   1.416   0.864  1.2106 -0.8482 -0.5267
 6078TIP3    H239650   1.344   1.410   0.714  0.6216  0.5234 -0.6739
 6079TIP3   OH239651   5.625   3.890  13.458 -0.4699  0.5250  0.8546
 6079TIP3    H139652   5.670   3.971  13.481 -0.2856  0.8066 -0.4882
 6079TIP3    H239653   5.585   3.908  13.373 -0.9061 -0.6035  0.8151
 6080TIP3   OH239654   4.776   0.489   4.647  0.1953 -0.0392 -0.2058
 6080TIP3    H139655   4.810   0.553   4.709  0.3449 -0.2873 -0.0297
 6080TIP3    H239656   4.692   0.462   4.684 -0.2623  0.6787 -0.7144
 6081TIP3   OH239657   6.295   6.615   0.622 -0.6348 -0.2264 -0.3137
 6081TIP3    H139658   6.348   6.644   0.548 -1.7158  0.9578 -0.6351
 6081TIP3    H239659   6.284   6.521   0.608  0.6737 -0.3295 -0.6846
 6082TIP3   OH239660   0.272   5.295  16.813  0.6207  0.6453 -0.1293
 6082TIP3    H139661   0.319   5.271  16.733  2.6758  0.9617  0.9447
 6082TIP3    H239662   0.301   5.384  16.833 -1.0481  1.1524  0.1507
 6083TIP3   OH239663   4.575   3.617  16.221  0.2695  0.1109 -0.1652
 6083TIP3    H139664   4.570   3.644  16.129  1.4058  0.0236 -0.2538
 6083TIP3    H239665   4.497   3.563  16.234 -0.3147  0.7637 -0.8608
 6084TIP3   OH239666   1.982   5.910   6.766 -0.6714 -0.1956  0.4142
 6084TIP3    H139667   2.060   5.926   6.819 -0.4127  1.8931 -0.5466
 6084TIP3    H239668   2.015   5.870   6.686 -0.8208 -1.2347  0.8649
 6085TIP3   OH239669   6.737   5.597   4.878  0.0913  0.0207  0.5638
 6085TIP3    H139670   6.801   5.555   4.820  0.5714  1.1823  0.2215
 6085TIP3    H239671   6.708   5.528   4.937  0.7133 -0.8250 -0.1110
 6086TIP3   OH239672   1.351   1.243  15.846 -0.3284  0.5853 -0.5695
 6086TIP3    H139673   1.377   1.255  15.937 -0.9290 -0.3682 -0.2695
 6086TIP3    H239674   1.257   1.261  15.845 -0.8634 -2.0216 -0.4796
 6087TIP3   OH239675   3.143   5.357  14.497 -0.2452  0.5813 -0.0744
 6087TIP3    H139676   3.076   5.377  14.562 -2.0520  0.7629 -1.9348
 6087TIP3    H239677   3.142   5.431  14.437  1.7007  0.6240 -0.1036
 6088TIP3   OH239678   6.631   6.725   4.072 -0.0972 -0.2712  0.1092
 6088TIP3    H139679   6.623   6.812   4.111 -1.9788 -0.4845  0.2520
 6088TIP3    H239680   6.676   6.740   3.989 -3.0351  1.3223 -1.3030
 6089TIP3   OH239681   1.006   4.292  15.183 -0.2257 -0.3488  0.0829
 6089TIP3    H139682   1.006   4.330  15.094 -4.1253  1.1675  0.6513
 6089TIP3    H239683   0.921   4.315  15.219  1.2892 -0.9295  4.2878
 6090TIP3   OH239684   6.472   1.007  13.408 -0.3589  0.1704 -0.4945
 6090TIP3    H139685   6.453   0.957  13.329 -1.6863 -1.3833  0.7678
 6090TIP3    H239686   6.449   1.098  13.386 -0.3249 -0.1805 -2.0061
 6091TIP3   OH239687   1.772   6.249   4.261  0.9472  1.0279 -0.0889
 6091TIP3    H139688   1.837   6.203   4.207  1.7791  0.5635  1.2590
 6091TIP3    H239689   1.822   6.278   4.337 -0.1633  1.8322  0.3353
 6092TIP3   OH239690   4.598   0.950  16.030  0.2157 -0.1279 -0.5118
 6092TIP3    H139691   4.563   0.899  15.957  0.0763 -0.1383 -0.4391
 6092TIP3    H239692   4.585   1.042  16.003 -0.1105 -0.1297 -0.3748
 6093TIP3   OH239693   0.599   3.994  13.167 -0.1016  0.0950  0.3388
 6093TIP3    H139694   0.513   4.000  13.125 -0.7547  1.8832  1.8417
 6093TIP3    H239695   0.593   3.916  13.221 -1.0070  0.5071  0.8624
 6094TIP3   OH239696   6.464   0.252  14.919  0.0229  0.7062 -0.0123
 6094TIP3    H139697   6.522   0.307  14.867 -1.1610  1.7627 -0.2254
 6094TIP3    H239698   6.510   0.241  15.002  1.9680 -1.0642 -1.2737
 6095TIP3   OH239699   3.289   5.222   5.429 -0.0376 -0.2097  0.3066
 6095TIP3    H139700   3.227   5.179   5.370  2.3940 -1.3594 -1.5350
 6095TIP3    H239701   3.248   5.218   5.515 -2.7251 -0.4226 -0.9511
 6096TIP3   OH239702   3.946   3.596  12.589  0.3874 -0.5114  0.4097
 6096TIP3    H139703   3.948   3.644  12.506 -0.2710 -0.6608  0.3107
 6096TIP3    H239704   4.034   3.609  12.625 -0.1750  1.8690  1.0033
 6097TIP3   OH239705   0.411   1.059  13.452 -0.1273  0.6883  0.1905
 6097TIP3    H139706   0.363   1.058  13.369  0.1235  0.5325  0.0432
 6097TIP3    H239707   0.499   1.089  13.428  0.1645 -0.0675  0.2719
 6098TIP3   OH239708   2.443   4.319   1.906 -0.9140 -0.0719  0.1491
 6098TIP3    H139709   2.432   4.234   1.865  1.6195 -0.4012  0.0795
 6098TIP3    H239710   2.407   4.308   1.994  0.2691 -1.5402  0.4768
 6099TIP3   OH239711   5.982   4.687  16.003 -0.2403 -0.1878  0.2604
 6099TIP3    H139712   5.925   4.763  15.993 -0.8583 -0.5185  1.1767
 6099TIP3    H239713   5.964   4.655  16.092 -0.4245 -1.7319 -0.3072
 6100TIP3   OH239714   5.800   1.149  14.138  0.9747 -0.3063 -0.4573
 6100TIP3    H139715   5.824   1.146  14.231 -0.2959  0.7154 -0.0779
 6100TIP3    H239716   5.884   1.161  14.092  1.6688 -1.3333  0.5108
 6101TIP3   OH239717   2.841   1.009   5.060 -0.1846  0.0465  0.0744
 6101TIP3    H139718   2.880   0.999   5.147  0.2029 -0.7088 -0.1883
 6101TIP3    H239719   2.784   0.933   5.050  0.0532 -0.0561 -0.4837
 6102TIP3   OH239720   2.992   1.783   3.844 -0.1765 -0.4276  0.0033
 6102TIP3    H139721   3.021   1.704   3.889 -1.7861  0.4118  2.5993
 6102TIP3    H239722   2.922   1.753   3.786  0.2885 -1.1366 -0.2002
 6103TIP3   OH239723   4.314   4.251   3.483  0.1355  0.2471  0.5478
 6103TIP3    H139724   4.276   4.234   3.397  0.4513  1.0696  0.2464
 6103TIP3    H239725   4.248   4.304   3.528  0.3663  0.5927  0.4813
 6104TIP3   OH239726   4.713   3.405   5.341  0.3468 -0.4978  0.6695
 6104TIP3    H139727   4.792   3.354   5.322  0.5782  0.1286 -0.0760
 6104TIP3    H239728   4.655   3.389   5.266  0.3797  0.2396  0.4768
 6105TIP3   OH239729   1.335   4.760   2.621 -0.3151  0.0464  0.2023
 6105TIP3    H139730   1.299   4.689   2.674  1.1793 -0.1685  0.9610
 6105TIP3    H239731   1.331   4.727   2.532  0.0922 -0.8829  0.5158
 6106TIP3   OH239732   6.443   3.089  15.536 -0.8344 -0.3579 -0.1557
 6106TIP3    H139733   6.386   3.164  15.553 -0.8333 -0.3740 -0.0851
 6106TIP3    H239734   6.505   3.121  15.470 -0.3897 -0.0784  0.3936
 6107TIP3   OH239735   0.853   4.527   2.959 -0.1233  0.3830 -0.2838
 6107TIP3    H139736   0.822   4.466   3.025  1.7324 -1.7042 -1.2876
 6107TIP3    H239737   0.806   4.608   2.977 -1.8286 -1.0227  1.7333
 6108TIP3   OH239738   0.174   6.333  14.951 -0.0958 -0.2052  0.3703
 6108TIP3    H139739   0.225   6.413  14.965  1.3302 -0.7512 -1.4237
 6108TIP3    H239740   0.212   6.270  15.011  1.0816 -0.4756 -0.6263
 6109TIP3   OH239741   0.633   2.245   5.427 -0.3128  0.1408 -0.0486
 6109TIP3    H139742   0.559   2.240   5.488 -0.8748 -0.6290 -0.7918
 6109TIP3    H239743   0.699   2.187   5.466 -1.0065 -1.0547 -0.6159
 6110TIP3   OH239744   3.764   6.039  11.964 -0.4883 -0.2334 -0.6063
 6110TIP3    H139745   3.850   6.005  11.939 -0.3510  0.3606 -0.9631
 6110TIP3    H239746   3.738   6.093  11.889 -1.0864 -0.2567 -0.4158
 6111TIP3   OH239747   6.055   3.556  16.481  0.4475  0.0837  0.9847
 6111TIP3    H139748   6.085   3.467  16.499  0.8134 -0.0210 -0.0792
 6111TIP3    H239749   6.062   3.564  16.385 -3.0475  0.0228  0.6734
 6112TIP3   OH239750   0.180   2.362   3.495  0.7331  0.0831 -0.3285
 6112TIP3    H139751   0.209   2.275   3.466  2.6841  0.8186 -0.6253
 6112TIP3    H239752   0.085   2.352   3.507  0.8023 -1.8698 -1.1290
 6113TIP3   OH239753   2.638   6.186   4.191  0.1001  0.4378 -0.2385
 6113TIP3    H139754   2.643   6.235   4.109  1.4601  0.5435 -0.1086
 6113TIP3    H239755   2.679   6.243   4.256  0.7686 -0.4301  0.1163
 6114TIP3   OH239756   1.745   5.547   1.349 -0.0400 -0.0559  0.3825
 6114TIP3    H139757   1.684   5.541   1.422  0.2383  0.4503  0.6571
 6114TIP3    H239758   1.692   5.524   1.272 -0.3161 -0.6451  0.7426
 6115TIP3   OH239759   5.590   5.714   6.486 -0.3495  0.3327 -0.1763
 6115TIP3    H139760   5.505   5.714   6.531 -0.1753 -3.5249  0.3289
 6115TIP3    H239761   5.652   5.746   6.551 -1.0989  1.1095  0.1629
 6116TIP3   OH239762   4.166   1.093  16.876  0.3776 -0.1641  0.3304
 6116TIP3    H139763   4.092   1.044  16.912  0.3169 -0.2183  0.1341
 6116TIP3    H239764   4.159   1.180  16.915 -0.4791  0.1948 -0.6093
 6117TIP3   OH239765   2.144   0.588  14.269 -0.4099  0.1707  0.2294
 6117TIP3    H139766   2.181   0.674  14.291 -0.1922  0.0196  0.4489
 6117TIP3    H239767   2.217   0.527  14.279 -0.5804 -0.0499  0.1323
 6118TIP3   OH239768   0.306   4.692  13.759  0.3204  0.3479  0.2176
 6118TIP3    H139769   0.322   4.642  13.679  1.1842  1.3128 -0.2241
 6118TIP3    H239770   0.388   4.739  13.774 -0.1762  0.9182  1.1304
 6119TIP3   OH239771   6.069   0.194   1.047 -0.1371  0.6453  0.0044
 6119TIP3    H139772   6.085   0.288   1.054  1.4242  0.2532  2.0961
 6119TIP3    H239773   6.040   0.182   0.957 -2.5786  3.4373  0.3367
 6120TIP3   OH239774   3.578   6.157   6.568 -0.2291 -0.0112  0.4684
 6120TIP3    H139775   3.662   6.118   6.541 -0.7226 -0.0224 -1.1173
 6120TIP3    H239776   3.516   6.130   6.500 -1.3212  0.7378  1.1489
 6121TIP3   OH239777   5.060   6.348  14.293 -0.2949  0.2050  0.0668
 6121TIP3    H139778   5.130   6.397  14.249 -1.6703  1.6540 -0.5502
 6121TIP3    H239779   5.010   6.308  14.222 -0.4453 -0.3599  0.4842
 6122TIP3   OH239780   3.235   1.124  14.970  0.2840 -0.3851  1.0892
 6122TIP3    H139781   3.237   1.201  15.026  1.4923 -0.8049  1.6341
 6122TIP3    H239782   3.327   1.108  14.947 -0.1744 -0.3142 -0.8687
 6123TIP3   OH239783   0.559   0.407  16.804 -0.0194  0.0440 -0.7386
 6123TIP3    H139784   0.598   0.476  16.858 -2.0107  0.1206  0.6491
 6123TIP3    H239785   0.595   0.326  16.839 -1.0888  0.1118  0.5884
 6124TIP3   OH239786   4.094   2.662  12.593 -0.4110  0.0244 -0.6238
 6124TIP3    H139787   4.022   2.663  12.529 -0.7514  0.7718 -0.2386
 6124TIP3    H239788   4.102   2.570  12.617  0.0128 -0.3288 -2.0607
 6125TIP3   OH239789   0.185   6.101  11.671  0.2255  0.9816 -0.0263
 6125TIP3    H139790   0.184   6.046  11.592  1.8271  1.9946 -0.7678
 6125TIP3    H239791   0.100   6.146  11.669 -1.6859 -2.3792  1.2906
 6126TIP3   OH239792   4.712   5.762  12.230 -0.1936 -0.0553 -0.1965
 6126TIP3    H139793   4.747   5.848  12.205 -1.5007  0.9941  1.4609
 6126TIP3    H239794   4.754   5.743  12.314  0.0020 -0.9971 -0.5064
 6127TIP3   OH239795   6.611   3.490   2.838 -0.3303 -0.0488  0.0691
 6127TIP3    H139796   6.700   3.459   2.856  0.7979  2.5486 -0.8480
 6127TIP3    H239797   6.554   3.421   2.873  2.0473 -2.9021 -1.3860
 6128TIP3   OH239798   0.471   1.996   1.783 -0.5524 -0.1263 -0.4168
 6128TIP3    H139799   0.376   1.990   1.772 -0.4755  1.3318 -1.9648
 6128TIP3    H239800   0.497   2.070   1.729  1.5456 -0.8164 -0.3919
 6129TIP3   OH239801   5.347   1.847  16.694 -0.1586 -0.3132 -0.1366
 6129TIP3    H139802   5.285   1.852  16.622  2.4090  0.3142 -2.4190
 6129TIP3    H239803   5.364   1.754  16.706  0.0349 -0.3766 -0.9167
 6130TIP3   OH239804   6.354   0.395  11.364  0.7371 -0.0119 -0.1662
 6130TIP3    H139805   6.433   0.347  11.342 -0.2290 -0.6244 -2.3569
 6130TIP3    H239806   6.324   0.355  11.446  0.8410 -2.0374 -1.1044
 6131TIP3   OH239807   3.692   4.515  15.875  0.1198 -0.0842 -0.0947
 6131TIP3    H139808   3.616   4.560  15.837  0.6317 -0.4960 -1.6475
 6131TIP3    H239809   3.677   4.423  15.857  0.7150 -0.2189  0.1001
 6132TIP3   OH239810   5.456   6.169  11.813  0.8727  0.2008 -0.3047
 6132TIP3    H139811   5.450   6.087  11.863  1.0248 -0.0493 -0.6929
 6132TIP3    H239812   5.365   6.192  11.795  0.5308  2.5516  3.6998
 6133TIP3   OH239813   1.219   3.647  12.995  0.1395  0.4195 -0.4413
 6133TIP3    H139814   1.257   3.604  13.071  1.3745  2.3719  0.0909
 6133TIP3    H239815   1.294   3.672  12.941 -0.4712  2.5934 -0.3332
 6134TIP3   OH239816   4.811   4.635  16.487  0.3298 -0.2403 -0.3681
 6134TIP3    H139817   4.883   4.685  16.526 -0.9452  0.3728  1.2584
 6134TIP3    H239818   4.810   4.662  16.395  0.8752  1.2925  0.0622
 6135TIP3   OH239819   0.753   6.225   5.026  0.1421  0.5264  0.0277
 6135TIP3    H139820   0.688   6.196   4.962  1.9643 -2.6236 -0.5465
 6135TIP3    H239821   0.707   6.227   5.109 -0.6416 -1.9951 -0.3105
 6136TIP3   OH239822   2.781   2.939  14.890  0.4734 -0.4520 -0.2737
 6136TIP3    H139823   2.840   2.999  14.845 -0.3083 -0.2297 -1.0202
 6136TIP3    H239824   2.715   2.917  14.825  0.1705 -1.3114  0.3111
 6137TIP3   OH239825   4.283   4.396  15.398 -0.6527 -0.0430 -0.3089
 6137TIP3    H139826   4.227   4.454  15.346 -0.0455  0.8572  0.0349
 6137TIP3    H239827   4.319   4.453  15.466  0.6699 -0.6160 -0.5202
 6138TIP3   OH239828   2.918   4.612  15.100  0.1113  0.2644  0.2842
 6138TIP3    H139829   2.881   4.533  15.060  1.1778  0.3704 -0.9302
 6138TIP3    H239830   2.845   4.675  15.099  0.6297  0.9042 -3.3254
 6139TIP3   OH239831   6.672   6.416  13.621  0.5112  0.1593  0.2757
 6139TIP3    H139832   6.662   6.497  13.672  1.2601  0.6221 -0.2910
 6139TIP3    H239833   6.644   6.347  13.680 -0.0323  0.8225  0.8103
 6140TIP3   OH239834   3.437   2.093   1.789 -0.0480  0.1998  1.0300
 6140TIP3    H139835   3.344   2.072   1.800 -0.2526  1.3613  1.5577
 6140TIP3    H239836   3.438   2.187   1.772  0.9730  0.0382  0.1356
 6141TIP3   OH239837   5.197   6.458   1.604 -0.3054  0.3353  0.1353
 6141TIP3    H139838   5.276   6.511   1.597 -0.4460  1.0086  3.1449
 6141TIP3    H239839   5.170   6.443   1.513  1.3356  2.9949 -0.8410
 6142TIP3   OH239840   4.353   6.503  13.506 -0.0019  0.3283 -0.5149
 6142TIP3    H139841   4.440   6.529  13.475  0.7677 -0.7206  0.6840
 6142TIP3    H239842   4.371   6.446  13.582 -1.7284 -0.0208 -0.3492
 6143TIP3   OH239843   5.117   3.392   4.861  0.0434 -0.9167 -0.3627
 6143TIP3    H139844   5.143   3.461   4.800  1.2711 -1.0337  0.0137
 6143TIP3    H239845   5.031   3.364   4.830 -1.8772  2.8511  1.2692
 6144TIP3   OH239846   0.482   4.726  11.832 -0.2081  0.3536 -0.1492
 6144TIP3    H139847   0.577   4.715  11.830 -0.3606 -0.8641 -0.8195
 6144TIP3    H239848   0.459   4.717  11.924  0.4211  1.5004  0.1296
 6145TIP3   OH239849   3.141   5.837   2.301  0.3192  0.1545  0.2686
 6145TIP3    H139850   3.053   5.864   2.329  0.5018  2.0018 -0.8979
 6145TIP3    H239851   3.126   5.758   2.249 -0.6569  0.4529  0.0838
 6146TIP3   OH239852   1.282   0.921   5.063 -0.1060 -0.2846 -0.2837
 6146TIP3    H139853   1.237   0.883   4.988 -1.0937 -0.4181  0.3572
 6146TIP3    H239854   1.353   0.859   5.082 -0.8230 -1.0809 -0.1343
 6147TIP3   OH239855   4.181   5.376   3.160 -0.2666  0.3474  0.3929
 6147TIP3    H139856   4.137   5.449   3.204 -1.1935  0.2331 -0.3263
 6147TIP3    H239857   4.113   5.336   3.106  0.2802 -0.9378  0.6343
 6148TIP3   OH239858   3.128   0.978  15.576 -0.1818  0.7270 -0.1751
 6148TIP3    H139859   3.167   1.008  15.659 -0.8650  0.4873  0.2381
 6148TIP3    H239860   3.203   0.962  15.519  0.2575  1.7365  0.1099
 6149TIP3   OH239861   1.752   0.458   2.367  0.6026 -0.7026  0.0771
 6149TIP3    H139862   1.809   0.382   2.377 -0.3734 -1.1063  2.7596
 6149TIP3    H239863   1.672   0.435   2.414 -0.1029  1.5792  0.0403
 6150TIP3   OH239864   6.159   2.963  14.381 -0.2870  0.4288  0.3063
 6150TIP3    H139865   6.176   3.058  14.378 -1.6586  0.6453 -1.0725
 6150TIP3    H239866   6.075   2.956  14.425 -0.6131 -0.0874 -0.3959
 6151TIP3   OH239867   1.003   2.588   2.053  0.2077 -0.3613  0.8872
 6151TIP3    H139868   1.013   2.496   2.030 -2.3624 -0.3794 -0.3866
 6151TIP3    H239869   1.019   2.635   1.971  1.0649  0.2856  1.4270
 6152TIP3   OH239870   6.504   0.496   1.554 -0.1108 -0.6312 -0.4717
 6152TIP3    H139871   6.554   0.487   1.473  0.6556 -2.2051  0.1561
 6152TIP3    H239872   6.571   0.511   1.621 -0.6141 -1.0311  0.1173
 6153TIP3   OH239873   2.345   2.377   3.813 -0.1312  0.2600  0.7705
 6153TIP3    H139874   2.351   2.397   3.720  0.1027  1.0006  0.9423
 6153TIP3    H239875   2.386   2.452   3.857  0.0110 -0.2105  1.4557
 6154TIP3   OH239876   5.337   0.628   3.222 -0.4004  0.1512  0.2963
 6154TIP3    H139877   5.325   0.643   3.128 -1.2228  0.3092  0.4262
 6154TIP3    H239878   5.431   0.613   3.232 -0.2448  0.5882 -0.4888
 6155TIP3   OH239879   6.436   0.018   6.092 -0.3913  0.2435  0.0814
 6155TIP3    H139880   6.471   0.034   6.179  0.8334  1.3486 -0.6010
 6155TIP3    H239881   6.362   0.078   6.084  0.0906  0.8209 -0.0053
 6156TIP3   OH239882   1.497   4.726   4.031  0.2730 -0.1731 -0.2353
 6156TIP3    H139883   1.462   4.638   4.043  0.4609 -0.5570 -2.2216
 6156TIP3    H239884   1.577   4.713   3.979  0.0634  1.1844 -0.9362
 6157TIP3   OH239885   5.918   4.579   3.962  0.1141  0.4150  0.2618
 6157TIP3    H139886   5.839   4.627   3.936 -0.6442 -0.2283  1.3080
 6157TIP3    H239887   5.884   4.501   4.007  1.3528  0.8956  2.0685
 6158TIP3   OH239888   3.110   4.861  16.695  0.1328  0.7603 -0.1188
 6158TIP3    H139889   3.098   4.778  16.648 -0.4514  0.3420  0.7460
 6158TIP3    H239890   3.170   4.911  16.641  0.2829 -0.1319 -0.7874
 6159TIP3   OH239891   4.436   3.137  11.609  0.0134 -0.2349 -0.3153
 6159TIP3    H139892   4.478   3.139  11.695 -1.6348  1.9643  0.4926
 6159TIP3    H239893   4.508   3.124  11.548  1.2240 -1.8055  1.3605
 6160TIP3   OH239894   1.564   1.508  16.580  0.2343  0.1541 -0.7542
 6160TIP3    H139895   1.605   1.524  16.665  0.9782 -1.2067 -0.8531
 6160TIP3    H239896   1.624   1.547  16.517  0.5533 -0.3693 -0.7780
 6161TIP3   OH239897   4.362   0.505   0.069 -0.7236  0.0716  0.0306
 6161TIP3    H139898   4.435   0.442   0.072 -1.0686 -0.3802 -0.9062
 6161TIP3    H239899   4.285   0.451   0.054 -1.0770  0.6911 -0.3612
 6162TIP3   OH239900   5.278   5.525  15.045  0.3735 -0.0763  0.8805
 6162TIP3    H139901   5.206   5.587  15.055  1.6788  1.3767  1.4430
 6162TIP3    H239902   5.296   5.525  14.951 -0.5484 -0.6822  0.6941
 6163TIP3   OH239903   6.208   1.566   1.287  0.2615 -0.2898  0.4451
 6163TIP3    H139904   6.152   1.642   1.273 -1.8743 -1.8449  0.2435
 6163TIP3    H239905   6.247   1.549   1.201 -0.2572 -0.1805  0.1854
 6164TIP3   OH239906   1.407   0.497   2.473  0.9484  0.6602  0.2967
 6164TIP3    H139907   1.355   0.435   2.523  0.0575 -0.6347 -2.1518
 6164TIP3    H239908   1.478   0.523   2.532  0.8608 -2.0512  1.6324
 6165TIP3   OH239909   3.762   2.656  11.699  0.3241  0.4436 -0.2037
 6165TIP3    H139910   3.722   2.617  11.777 -1.8500  0.7052 -1.1597
 6165TIP3    H239911   3.772   2.584  11.638 -2.1060  0.9827 -1.3187
 6166TIP3   OH239912   1.195   1.588   2.950 -0.7475  0.1553  0.3406
 6166TIP3    H139913   1.220   1.549   3.034 -0.8954 -0.5790  0.0473
 6166TIP3    H239914   1.205   1.683   2.963  0.4058 -0.0219  0.8004
 6167TIP3   OH239915   5.824   2.232  16.254  0.3218 -0.2861  0.0023
 6167TIP3    H139916   5.899   2.271  16.208 -0.1611  1.3377  0.5558
 6167TIP3    H239917   5.767   2.202  16.183 -0.0409  1.4840 -0.4949
 6168TIP3   OH239918   1.083   1.937   0.021  0.2698 -0.1360 -0.2731
 6168TIP3    H139919   1.006   1.992   0.031  1.3087  1.5284 -1.2125
 6168TIP3    H239920   1.132   1.976  -0.052  1.5324 -1.7039 -0.3052
 6169TIP3   OH239921   5.963   1.668   4.922  0.3725  0.4577  0.1212
 6169TIP3    H139922   5.947   1.641   4.831  1.5260  0.1835 -0.0026
 6169TIP3    H239923   6.025   1.603   4.956  0.4974  0.9714  0.8843
 6170TIP3   OH239924   6.723   6.529   5.428  0.3465 -0.3522 -0.2967
 6170TIP3    H139925   6.731   6.617   5.392  2.2422 -1.2870 -2.1846
 6170TIP3    H239926   6.768   6.534   5.513  0.9660  0.3162 -0.6638
 6171TIP3   OH239927   0.634   0.544   4.286  0.2392  0.2306  0.3933
 6171TIP3    H139928   0.590   0.512   4.207  2.1900  2.2958 -1.6049
 6171TIP3    H239929   0.717   0.497   4.288 -0.4012 -0.8533  2.0250
 6172TIP3   OH239930   1.551   1.344  11.908 -0.3508 -0.2954 -0.0931
 6172TIP3    H139931   1.626   1.285  11.913 -0.7103 -0.7845 -0.4400
 6172TIP3    H239932   1.480   1.297  11.953 -1.4835 -1.4344 -2.9805
 6173TIP3   OH239933   4.238   4.080  15.377 -0.5837 -0.3040 -0.2185
 6173TIP3    H139934   4.217   4.137  15.303  0.7008  0.0150 -0.3373
 6173TIP3    H239935   4.302   4.018  15.343  0.0218 -0.1543  0.6185
 6174TIP3   OH239936   4.308   1.276  12.895  0.0721 -0.3567 -0.0680
 6174TIP3    H139937   4.276   1.326  12.971 -0.1471 -0.5470 -0.0368
 6174TIP3    H239938   4.373   1.333  12.855 -0.5099  0.1499 -0.2970
 6175TIP3   OH239939   2.546   6.068  11.309 -0.4114 -0.3365  0.1424
 6175TIP3    H139940   2.535   6.073  11.214  0.0483 -0.6029  0.0759
 6175TIP3    H239941   2.633   6.032  11.321  0.1185  1.0854  0.6768
 6176TIP3   OH239942   2.930   5.060  16.875 -0.2976 -0.1367 -0.5418
 6176TIP3    H139943   2.970   5.143  16.850  1.1571 -0.0014  2.1279
 6176TIP3    H239944   2.999   4.995  16.862 -1.1927 -0.8540 -1.8788
 6177TIP3   OH239945   1.406   5.054   3.540  0.3435 -0.7461  0.5211
 6177TIP3    H139946   1.372   5.037   3.452  0.5246 -1.4496  0.5831
 6177TIP3    H239947   1.328   5.064   3.594  0.2167  1.3187 -0.0141
 6178TIP3   OH239948   5.270   1.155   5.241  0.0215 -0.0688 -0.0728
 6178TIP3    H139949   5.206   1.124   5.305 -0.7657  1.6320 -0.0167
 6178TIP3    H239950   5.257   1.098   5.165 -0.8916 -0.3545  0.2922
 6179TIP3   OH239951   4.928   0.799   3.372 -0.0268 -0.5257 -0.5897
 6179TIP3    H139952   4.911   0.850   3.451 -2.9257 -0.8376 -0.9786
 6179TIP3    H239953   5.020   0.816   3.353  0.2074  1.1098  1.7366
 6180TIP3   OH239954   3.076   2.918  11.630  0.0257 -0.0327 -0.1271
 6180TIP3    H139955   3.067   2.897  11.723  0.9057 -0.1033 -0.0533
 6180TIP3    H239956   3.074   3.013  11.626 -0.2938 -0.0363 -0.0686
 6181TIP3   OH239957   3.936   4.995  14.297 -0.0518 -0.1800 -0.1971
 6181TIP3    H139958   3.953   5.055  14.224 -0.6879  1.2759  0.8359
 6181TIP3    H239959   3.843   4.975  14.291  0.6631 -3.1610 -2.0891
 6182TIP3   OH239960   0.902   5.837   1.497 -0.1167 -0.1244  0.3790
 6182TIP3    H139961   0.849   5.784   1.557 -0.5910  1.6590  1.5800
 6182TIP3    H239962   0.854   5.836   1.415 -1.0947 -0.0137  0.9430
 6183TIP3   OH239963   3.341   6.240  14.200 -0.3762  0.0348 -0.0109
 6183TIP3    H139964   3.393   6.168  14.165  0.0564  0.7465 -0.8507
 6183TIP3    H239965   3.324   6.297  14.125 -1.5517  0.3082  0.4476
 6184TIP3   OH239966   6.237   1.934  12.711 -0.2398  0.2119  0.0625
 6184TIP3    H139967   6.267   2.025  12.714  0.2367  0.0904 -0.7846
 6184TIP3    H239968   6.249   1.902  12.800  1.2363  0.4666 -0.0282
 6185TIP3   OH239969   0.915   4.804   3.875  0.1393  0.1412 -0.2065
 6185TIP3    H139970   0.948   4.815   3.786  0.3617  0.8849 -0.0358
 6185TIP3    H239971   0.991   4.819   3.931  0.2435 -1.4108  0.0677
 6186TIP3   OH239972   6.758   2.081   1.590  0.2656  0.5042 -0.3142
 6186TIP3    H139973   6.699   2.056   1.662  2.6387  1.9693  2.2243
 6186TIP3    H239974   6.701   2.126   1.528 -1.3637  1.7011  1.9750
 6187TIP3   OH239975   5.816   1.485   1.454  0.5349 -0.9562  0.1713
 6187TIP3    H139976   5.768   1.479   1.536  1.7496  1.0593  1.0624
 6187TIP3    H239977   5.905   1.458   1.476  1.2384  1.0630 -0.1292
 6188TIP3   OH239978   0.499   4.727   5.984  0.4344  0.1125 -0.4265
 6188TIP3    H139979   0.593   4.743   5.988  0.1467  1.4029  2.0815
 6188TIP3    H239980   0.488   4.639   6.021  0.5843  0.1933 -0.1924
 6189TIP3   OH239981   3.791   0.178   5.748  0.0150  0.0749 -0.0807
 6189TIP3    H139982   3.837   0.205   5.828 -0.2059  0.1047  0.0373
 6189TIP3    H239983   3.809   0.247   5.685 -0.4282  0.4249  0.1759
 6190TIP3   OH239984   6.476   4.445  11.339 -0.1902 -0.3296  0.7491
 6190TIP3    H139985   6.482   4.352  11.317 -0.5630 -0.5519  1.5975
 6190TIP3    H239986   6.464   4.447  11.434  0.5490  0.6062  0.8363
 6191TIP3   OH239987   0.559   6.752   4.368  0.2568 -0.2784 -0.1940
 6191TIP3    H139988   0.498   6.682   4.390 -2.0168  1.6613 -0.1309
 6191TIP3    H239989   0.519   6.831   4.405  2.5427  1.1267 -0.6414
 6192TIP3   OH239990   5.909   0.049  11.106 -0.0122  0.0656  0.2669
 6192TIP3    H139991   5.935  -0.029  11.057  1.5237  0.8604 -0.2157
 6192TIP3    H239992   5.822   0.070  11.073 -0.1182 -0.9942 -0.1465
 6193TIP3   OH239993   6.532   0.197   4.518 -0.0023  0.4125 -0.5900
 6193TIP3    H139994   6.557   0.106   4.537  1.7190  1.1795  1.0114
 6193TIP3    H239995   6.446   0.190   4.477  1.1133 -2.0983 -2.6873
 6194TIP3   OH239996   3.654   5.345  13.173 -0.1925  0.0785 -0.3542
 6194TIP3    H139997   3.662   5.292  13.094 -1.0092 -0.0286 -0.3655
 6194TIP3    H239998   3.689   5.288  13.242 -1.3412 -0.5977 -0.3180
 6195TIP3   OH239999   3.828   6.240   2.009 -0.0900 -0.0189 -0.6210
 6195TIP3    H140000   3.764   6.310   2.025 -1.2674 -0.7687 -2.0261
 6195TIP3    H240001   3.910   6.287   1.992 -0.7882  1.0142 -1.2116
 6196TIP3   OH240002   4.738   6.520   4.630 -0.1899 -0.0120  0.1211
 6196TIP3    H140003   4.778   6.475   4.556 -0.8711 -0.4987  0.0423
 6196TIP3    H240004   4.808   6.575   4.666  0.5362 -0.8163 -0.0434
 6197TIP3   OH240005   4.767   5.992   3.588 -0.4493  0.1523  0.0385
 6197TIP3    H140006   4.717   6.008   3.509 -1.1357 -1.7640  0.0690
 6197TIP3    H240007   4.773   5.897   3.594 -0.1651  0.2805  2.1296
 6198TIP3   OH240008   5.915   0.006  15.263  0.1943  0.1468 -0.2899
 6198TIP3    H140009   5.909   0.048  15.349  1.0168  2.1873 -1.2195
 6198TIP3    H240010   5.856  -0.069  15.270  1.0079 -0.3037  2.3854
 6199TIP3   OH240011   4.651   2.843  11.475 -0.4136  0.8047 -0.2409
 6199TIP3    H140012   4.729   2.792  11.454 -0.4297  0.7430 -0.1527
 6199TIP3    H240013   4.681   2.933  11.479  0.0289  0.5786  1.6801
 6200TIP3   OH240014   6.674   1.154  15.160  0.0104 -0.4856 -0.0345
 6200TIP3    H140015   6.666   1.099  15.238 -1.6014 -1.9610 -1.1901
 6200TIP3    H240016   6.722   1.231  15.190  0.8776 -1.7703  2.0210
 6201TIP3   OH240017   0.080   1.615  11.863 -0.8983 -0.5166  0.3295
 6201TIP3    H140018   0.073   1.704  11.898 -1.7023  0.1257 -1.3868
 6201TIP3    H240019   0.123   1.565  11.932  2.4892  1.9290  0.0973
 6202TIP3   OH240020   6.345   2.719  11.163 -0.3528 -0.3440 -0.0440
 6202TIP3    H140021   6.376   2.743  11.075  0.4023 -1.3720 -0.0637
 6202TIP3    H240022   6.368   2.794  11.217  2.1892 -1.0521 -0.0639
 6203TIP3   OH240023   2.060   4.429   0.117  0.1287  0.2311  0.2408
 6203TIP3    H140024   2.092   4.339   0.123 -0.9305 -0.4084 -2.5700
 6203TIP3    H240025   1.969   4.419   0.087  1.0890  2.2660 -3.6420
 6204TIP3   OH240026   5.331   5.739   4.660 -0.4175 -0.3444 -0.1276
 6204TIP3    H140027   5.417   5.779   4.644 -1.5894  0.9578 -3.5846
 6204TIP3    H240028   5.287   5.743   4.576 -3.4488 -2.1352  1.3030
 6205TIP3   OH240029   5.975   0.792   3.193 -0.1077  0.1737 -0.1309
 6205TIP3    H140030   5.906   0.855   3.213 -0.2307  0.3324 -1.0444
 6205TIP3    H240031   6.046   0.814   3.253  0.5324  2.3186 -1.6155
 6206TIP3   OH240032   4.595   0.091   0.995 -0.1121 -0.0923 -0.0208
 6206TIP3    H140033   4.658   0.108   1.066 -1.1755 -1.1162  1.1936
 6206TIP3    H240034   4.607  -0.001   0.974  0.1446  0.1900 -1.1484
 6207TIP3   OH240035   0.767   1.669  12.741 -0.2892 -0.5919 -0.0135
 6207TIP3    H140036   0.843   1.645  12.794  1.0393  0.7844 -1.2524
 6207TIP3    H240037   0.738   1.752  12.778  0.9801  0.6516 -1.7712
 6208TIP3   OH240038   0.045   0.861   5.374 -0.5390 -0.1366 -0.6455
 6208TIP3    H140039  -0.048   0.855   5.350 -0.5490 -1.7489 -0.2973
 6208TIP3    H240040   0.045   0.849   5.469  0.0658 -0.6400 -0.7108
 6209TIP3   OH240041   5.741   5.698   1.291 -0.0357 -0.5544  0.7176
 6209TIP3    H140042   5.738   5.718   1.384 -0.0890  0.1252  0.5686
 6209TIP3    H240043   5.835   5.684   1.273  0.3525  2.3494  0.2429
 6210TIP3   OH240044   0.804   0.081  11.323  0.4664  0.5558 -0.7552
 6210TIP3    H140045   0.813  -0.002  11.276 -0.4412 -0.0663  0.1732
 6210TIP3    H240046   0.887   0.092  11.369  0.7522  0.3780 -1.2286
 6211TIP3   OH240047   2.771   0.377   5.422 -0.4997 -0.0298  1.0107
 6211TIP3    H140048   2.836   0.416   5.480 -0.1317  0.4093  0.3034
 6211TIP3    H240049   2.767   0.285   5.449 -0.8802  0.3403  2.2308
 6212TIP3   OH240050   5.699   5.853  11.504  0.4709  0.2434 -0.2774
 6212TIP3    H140051   5.734   5.852  11.415  2.0820  0.7260  0.3417
 6212TIP3    H240052   5.629   5.788  11.502 -0.8729  1.6813 -2.4388
 6213TIP3   OH240053   2.359   0.316   3.899  0.3707  0.0891 -0.3551
 6213TIP3    H140054   2.339   0.224   3.916  2.8671 -0.4792 -0.3372
 6213TIP3    H240055   2.389   0.317   3.808  0.1197  0.9246 -0.4271
 6214TIP3   OH240056   5.412   2.682  16.024  0.2145 -0.3449 -0.3121
 6214TIP3    H140057   5.328   2.655  15.988 -0.5782 -0.4848  1.5924
 6214TIP3    H240058   5.459   2.601  16.040 -0.8365 -0.4606  2.2628
 6215TIP3   OH240059   2.007   5.131   5.416  0.1458  0.1625 -0.3304
 6215TIP3    H140060   1.927   5.090   5.447  0.5097 -0.0433  0.3651
 6215TIP3    H240061   2.068   5.058   5.404  0.1476  0.2919 -1.0909
 6216TIP3   OH240062   1.929   3.599  12.865 -0.1146 -0.1264 -0.1029
 6216TIP3    H140063   2.022   3.598  12.886  0.5586 -1.2612 -2.9547
 6216TIP3    H240064   1.885   3.597  12.950  2.4432  1.9129  1.3141
 6217TIP3   OH240065   1.347   4.314  16.971 -0.5710 -0.3337  0.9393
 6217TIP3    H140066   1.388   4.375  16.910 -1.5897  0.9066  1.4582
 6217TIP3    H240067   1.369   4.228  16.938  2.7367  0.2656  1.4040
 6218TIP3   OH240068   4.694   5.914  11.496  0.1502  0.2739 -0.4499
 6218TIP3    H140069   4.626   5.872  11.444  0.9253  1.0347 -2.0935
 6218TIP3    H240070   4.770   5.917  11.439  0.6652  2.1903  0.2961
 6219TIP3   OH240071   2.706   5.174  12.798 -0.0778  0.2268 -0.4432
 6219TIP3    H140072   2.666   5.260  12.785 -0.0831  0.3930  0.5793
 6219TIP3    H240073   2.715   5.138  12.710 -0.5179  1.0738 -0.8457
 6220TIP3   OH240074   1.061   6.099   4.708  0.2461  0.1250 -0.0752
 6220TIP3    H140075   1.027   6.063   4.626  1.1386 -0.5447 -0.1547
 6220TIP3    H240076   1.100   6.183   4.683 -0.8451  0.6507 -0.0699
 6221TIP3   OH240077   3.030   2.558   2.904 -0.2502  0.5913 -0.1442
 6221TIP3    H140078   3.073   2.569   2.819  0.7318  0.2228  0.3020
 6221TIP3    H240079   2.985   2.642   2.919 -0.5024  0.6213 -1.0636
 6222TIP3   OH240080   3.566   2.733  14.296 -0.5651  0.5483 -0.1285
 6222TIP3    H140081   3.571   2.812  14.241 -0.1750  0.0311 -0.8349
 6222TIP3    H240082   3.656   2.699  14.297 -0.5489  0.6262  0.9301
 6223TIP3   OH240083   6.759   6.416  12.534  0.0503  0.1756 -0.2703
 6223TIP3    H140084   6.762   6.399  12.628 -1.2172  0.0736 -0.2384
 6223TIP3    H240085   6.693   6.485  12.524 -0.8784 -0.8244 -1.2158
 6224TIP3   OH240086   4.924   0.303  15.549 -0.2358 -0.6014 -0.6141
 6224TIP3    H140087   4.993   0.273  15.609 -1.1976 -0.9031  0.3404
 6224TIP3    H240088   4.972   0.329  15.470  1.3432  2.0692  1.1045
 6225TIP3   OH240089   5.232   5.124   4.907 -0.0401 -0.1294 -0.6801
 6225TIP3    H140090   5.172   5.190   4.871  1.1932  0.2276 -2.1634
 6225TIP3    H240091   5.306   5.175   4.941  0.5866 -0.6990 -1.1714
 6226TIP3   OH240092   4.345   4.334   1.442  0.3486 -0.2890  0.0072
 6226TIP3    H140093   4.359   4.424   1.409 -0.7010 -0.8305 -2.0305
 6226TIP3    H240094   4.274   4.300   1.387  0.6088 -2.3090  0.8995
 6227TIP3   OH240095   3.812   4.724  10.739 -0.2388 -0.6141  0.0754
 6227TIP3    H140096   3.756   4.790  10.700  0.1369 -0.3658 -0.0419
 6227TIP3    H240097   3.773   4.706  10.824 -0.9597 -1.0314 -0.3419
 6228TIP3   OH240098   6.732   4.943   5.747 -0.2782  0.2938 -0.0091
 6228TIP3    H140099   6.825   4.919   5.751 -0.6068 -1.2324 -1.3257
 6228TIP3    H240100   6.729   5.015   5.685 -0.1291 -0.4928 -0.9443
 6229TIP3   OH240101   2.499   1.013  15.884 -0.4508 -0.2215 -0.2255
 6229TIP3    H140102   2.588   0.980  15.897 -0.5041 -1.1240 -2.0148
 6229TIP3    H240103   2.444   0.935  15.882 -0.9372  0.1348 -1.6550
 6230TIP3   OH240104   3.510   6.606  11.189 -0.1721 -0.0053 -0.2228
 6230TIP3    H140105   3.419   6.594  11.161  0.2079  0.8744 -1.8653
 6230TIP3    H240106   3.559   6.541  11.139  0.0732 -0.7061  0.9106
 6231TIP3   OH240107   2.857   2.027   2.676  0.1921 -0.1421 -0.0145
 6231TIP3    H140108   2.879   1.964   2.744  1.6044 -0.5538 -0.8272
 6231TIP3    H240109   2.763   2.014   2.660 -0.1878  0.1005  1.9702
 6232TIP3   OH240110   0.484   5.102   2.496 -0.1377  1.4047  0.2462
 6232TIP3    H140111   0.439   5.185   2.511  0.1248  1.6977 -0.5273
 6232TIP3    H240112   0.544   5.121   2.423 -0.4208  0.4082 -0.2512
 6233TIP3   OH240113   0.594   2.853   4.031 -0.0761 -0.5048 -0.2255
 6233TIP3    H140114   0.666   2.911   4.057  0.9582 -1.3473 -1.1533
 6233TIP3    H240115   0.537   2.908   3.978  0.5000 -0.1236 -0.4621
 6234TIP3   OH240116   1.345   5.814   5.792 -0.1265 -0.1613  0.5084
 6234TIP3    H140117   1.352   5.767   5.875  0.5858 -0.2668  0.3881
 6234TIP3    H240118   1.336   5.906   5.817  1.4719 -0.0446  0.6691
 6235TIP3   OH240119   0.274   2.797  12.689  0.3131 -0.3145  0.0370
 6235TIP3    H140120   0.253   2.808  12.782 -0.4363  0.1136 -0.1816
 6235TIP3    H240121   0.190   2.777  12.648  0.5092  0.3560 -0.6831
 6236TIP3   OH240122   3.057   2.344   3.559 -0.1093 -0.2594  0.5966
 6236TIP3    H140123   3.014   2.345   3.644 -1.4774  2.4161 -0.0532
 6236TIP3    H240124   3.137   2.293   3.572  0.9121  2.0823  4.1038
 6237TIP3   OH240125   2.030   5.578   1.305  0.4089 -0.6185  0.3369
 6237TIP3    H140126   1.934   5.579   1.308  0.3857  2.6694 -0.2748
 6237TIP3    H240127   2.051   5.565   1.213  0.5603 -1.2329  0.4562
 6238TIP3   OH240128   1.927   1.474   4.946  0.0909 -0.0308 -0.6316
 6238TIP3    H140129   1.871   1.408   4.987 -0.0016 -0.1149 -0.8899
 6238TIP3    H240130   1.951   1.532   5.017  1.9040 -1.5457  0.0320
 6239TIP3   OH240131   2.570   0.099  14.442 -0.0814 -0.3898 -0.7382
 6239TIP3    H140132   2.597   0.015  14.478 -0.7335 -0.9823 -1.5962
 6239TIP3    H240133   2.579   0.088  14.347  0.5621  0.7673 -0.8209
 6240TIP3   OH240134   0.100   1.248  12.856 -0.1811  0.0684  0.1899
 6240TIP3    H140135   0.149   1.169  12.880  1.4292  1.5515  1.9199
 6240TIP3    H240136   0.159   1.295  12.797 -0.7379  0.4609 -0.0565
 6241TIP3   OH240137   0.489   0.915   5.263  0.2006  0.0135  0.0425
 6241TIP3    H140138   0.577   0.897   5.297  0.6228 -0.4203 -1.2298
 6241TIP3    H240139   0.504   0.972   5.188 -0.4998 -0.9686 -0.8631
 6242TIP3   OH240140   0.155   2.944  16.674  0.3362 -0.0208 -0.0786
 6242TIP3    H140141   0.116   2.989  16.749  0.3848 -0.0931 -0.0076
 6242TIP3    H240142   0.116   2.856  16.677 -0.8670  0.4763 -1.0663
 6243TIP3   OH240143   1.325   2.033  14.958  0.1748 -0.5142 -0.3477
 6243TIP3    H140144   1.347   1.946  14.925  3.0696  0.2210 -0.5442
 6243TIP3    H240145   1.335   2.027  15.053  1.4950 -0.1320 -0.4510
 6244TIP3   OH240146   5.406   6.052  15.274 -0.3357 -0.9120 -0.0727
 6244TIP3    H140147   5.406   6.148  15.284 -0.9873 -0.7078 -1.9752
 6244TIP3    H240148   5.492   6.025  15.307  0.3938  0.4652 -0.7855
 6245TIP3   OH240149   4.528   2.713  15.149 -0.1609  0.4524  0.5909
 6245TIP3    H140150   4.593   2.758  15.203  1.0384  1.0223 -1.3015
 6245TIP3    H240151   4.469   2.782  15.120 -0.4557  0.2407  0.6898
 6246TIP3   OH240152   0.899   0.475  15.584  0.1981 -0.3401 -0.1058
 6246TIP3    H140153   0.835   0.528  15.633  0.3886  0.4471 -0.6941
 6246TIP3    H240154   0.940   0.538  15.524  1.6932 -0.7827  0.4393
 6247TIP3   OH240155   1.410   4.863   5.854  0.7001 -0.1933  0.1391
 6247TIP3    H140156   1.354   4.916   5.797  0.9086  0.6459  0.7230
 6247TIP3    H240157   1.368   4.865   5.939  0.4907 -1.3035  0.0787
 6248TIP3   OH240158   3.373   3.595   0.724  0.4627  0.0771 -0.7544
 6248TIP3    H140159   3.386   3.613   0.817  0.8095  1.8689 -1.1269
 6248TIP3    H240160   3.418   3.667   0.679 -3.2736  1.6228 -2.2275
 6249TIP3   OH240161   2.352   1.862   5.718 -0.7378  0.4592 -0.3311
 6249TIP3    H140162   2.266   1.837   5.752  0.3231 -2.9284  0.0948
 6249TIP3    H240163   2.345   1.849   5.623 -0.8800  0.7654 -0.3627
 6250TIP3   OH240164   1.262   2.255  13.436  0.1179  0.5781 -0.0616
 6250TIP3    H140165   1.195   2.277  13.372 -0.8077 -1.3383  0.2134
 6250TIP3    H240166   1.314   2.186  13.394  0.1708  0.0715  0.8156
 6251TIP3   OH240167   1.238   1.689  12.507 -0.2507  0.5617  0.1414
 6251TIP3    H140168   1.179   1.723  12.574  1.1930  1.1362  1.1415
 6251TIP3    H240169   1.229   1.750  12.433 -1.7559 -0.0124 -0.1727
 6252TIP3   OH240170   0.755   6.478   3.551 -0.1248 -0.0376  0.0014
 6252TIP3    H140171   0.706   6.526   3.617  0.2123 -1.9471  1.6906
 6252TIP3    H240172   0.739   6.525   3.469 -3.5554  0.2191  0.7692
 6253TIP3   OH240173   4.879   0.229   4.206  0.2580  0.2642  0.0441
 6253TIP3    H140174   4.903   0.317   4.175  1.3153 -0.0028  0.0757
 6253TIP3    H240175   4.828   0.244   4.285  0.7569  0.8496  0.2610
 6254TIP3   OH240176   5.672   0.200   3.802 -0.1787 -0.0429 -0.3091
 6254TIP3    H140177   5.595   0.244   3.765  1.4859  1.4444 -2.1417
 6254TIP3    H240178   5.703   0.260   3.870 -0.2861 -0.3438  0.0040
 6255TIP3   OH240179   2.368   4.527  11.106 -0.4414  0.2178 -0.5271
 6255TIP3    H140180   2.361   4.441  11.066  1.5193  0.4348 -1.3848
 6255TIP3    H240181   2.321   4.586  11.047  0.0857  0.0850 -1.0782
 6256TIP3   OH240182   6.210   5.968   2.484  0.2738  0.2613 -0.2132
 6256TIP3    H140183   6.197   6.056   2.519 -0.3617 -0.0123  0.2568
 6256TIP3    H240184   6.229   5.981   2.391  1.8078  0.9859  0.1920
 6257TIP3   OH240185   0.862   2.724   0.849  0.7407  0.3061  0.1339
 6257TIP3    H140186   0.790   2.787   0.844  0.0030 -0.6875 -2.9394
 6257TIP3    H240187   0.939   2.774   0.824  0.5082  0.5120 -0.1796
 6258TIP3   OH240188   1.007   4.704   3.143 -0.4716  0.0227 -0.6072
 6258TIP3    H140189   0.929   4.718   3.196 -1.4711 -0.0618 -2.0221
 6258TIP3    H240190   0.974   4.696   3.053  0.9877 -1.6707 -1.0328
 6259TIP3   OH240191   6.363   4.820  14.741  0.4780 -0.6571 -0.5000
 6259TIP3    H140192   6.295   4.771  14.789 -0.9558  1.0763 -0.7165
 6259TIP3    H240193   6.325   4.907  14.728  1.6014 -0.5371 -3.1812
 6260TIP3   OH240194   6.061   1.855  13.785 -0.5714 -0.0962  0.3412
 6260TIP3    H140195   6.081   1.884  13.695 -1.0396  0.5768  0.4545
 6260TIP3    H240196   5.972   1.885  13.801 -0.4364 -0.0793  1.0890
 6261TIP3   OH240197   6.335   4.045   5.450 -0.6520 -0.2226 -0.5963
 6261TIP3    H140198   6.306   3.992   5.376 -1.5818  0.2623 -0.5857
 6261TIP3    H240199   6.378   3.983   5.508  1.6418 -0.3277 -2.3411
 6262TIP3   OH240200   5.986   5.430  12.096  0.2196 -0.1393 -0.5882
 6262TIP3    H140201   5.931   5.430  12.017  0.5401 -1.0104 -0.8210
 6262TIP3    H240202   6.047   5.502  12.082  1.6018 -1.5467 -2.0957
 6263TIP3   OH240203   4.461   6.554   0.383  0.4757 -0.2898 -0.0506
 6263TIP3    H140204   4.555   6.570   0.371  0.6558 -2.0646 -1.1617
 6263TIP3    H240205   4.429   6.532   0.296 -0.6925 -1.0773  0.5682
 6264TIP3   OH240206   4.221   3.502  11.476 -0.4133 -0.5089 -0.1868
 6264TIP3    H140207   4.285   3.562  11.513 -1.0026 -0.5382  0.9043
 6264TIP3    H240208   4.267   3.419  11.468  0.0365 -0.2284 -0.5351
 6265TIP3   OH240209   5.199   2.287   4.079  0.4251 -0.2267 -0.3542
 6265TIP3    H140210   5.121   2.304   4.026 -0.5415  1.6621  1.6443
 6265TIP3    H240211   5.165   2.248   4.160  1.6072 -0.0625  0.2297
 6266TIP3   OH240212   2.101   4.552  11.745  0.2525  0.4833  0.1069
 6266TIP3    H140213   2.195   4.551  11.730  0.3552 -0.5958  0.8008
 6266TIP3    H240214   2.089   4.613  11.818  0.6386 -0.9267  1.3833
 6267TIP3   OH240215   2.382   1.437   1.522  0.0177  0.1963  0.7462
 6267TIP3    H140216   2.321   1.508   1.501  0.6997  0.1737 -1.4655
 6267TIP3    H240217   2.336   1.358   1.495  0.7060  0.1191 -0.2327
 6268TIP3   OH240218   5.567   4.962   4.445 -0.8746 -0.3812  0.0553
 6268TIP3    H140219   5.662   4.959   4.454 -0.7389  1.7798 -0.3729
 6268TIP3    H240220   5.552   4.944   4.352 -0.7372  1.1331 -0.2799
 6269TIP3   OH240221   0.291   3.910   5.461  0.4033 -0.1660  0.5961
 6269TIP3    H140222   0.264   3.818   5.462 -0.9414  0.1283 -3.2667
 6269TIP3    H240223   0.214   3.958   5.492  0.4095 -0.1844  0.6408
 6270TIP3   OH240224   5.163   0.291   0.634 -0.1425 -0.3848 -0.0559
 6270TIP3    H140225   5.085   0.257   0.676 -1.2748  1.6219 -0.4456
 6270TIP3    H240226   5.236   0.243   0.674 -1.3373 -0.1126  2.5208
 6271TIP3   OH240227   6.606   0.334  13.417  0.5324  0.0005  0.0378
 6271TIP3    H140228   6.549   0.264  13.448  1.2636 -0.1179  1.1753
 6271TIP3    H240229   6.667   0.291  13.357 -1.1514  0.3042 -1.9218
 6272TIP3   OH240230   0.273   0.033  15.251 -0.2814  0.0658  0.4837
 6272TIP3    H140231   0.349   0.066  15.204 -0.0196 -2.4982 -1.0067
 6272TIP3    H240232   0.307   0.002  15.335  0.0554  0.3421  0.4481
 6273TIP3   OH240233   2.719   1.345  17.085  0.3530 -0.1267  0.4282
 6273TIP3    H140234   2.756   1.317  17.001  0.1303 -1.4499  0.7516
 6273TIP3    H240235   2.625   1.339  17.073  0.3015  0.4470  0.5302
 6274TIP3   OH240236   2.821   1.614  14.025 -0.0985  0.4368 -1.0355
 6274TIP3    H140237   2.871   1.564  13.961 -1.1784 -0.5239 -1.1374
 6274TIP3    H240238   2.737   1.568  14.032  1.2369 -1.5172  3.6287
 6275TIP3   OH240239   1.633   0.804  15.617  0.0344 -0.5642 -0.9080
 6275TIP3    H140240   1.539   0.817  15.630  0.4880 -0.0602  2.3348
 6275TIP3    H240241   1.647   0.711  15.638  0.3166 -0.5266 -0.9359
 6276TIP3   OH240242   3.284   3.021  15.706  0.2927 -0.0678  0.2204
 6276TIP3    H140243   3.264   3.011  15.613  0.5778 -0.9866  0.2502
 6276TIP3    H240244   3.379   3.022  15.711  0.2804 -0.3205  0.5301
 6277TIP3   OH240245   6.462   6.744  13.010  0.4235  0.2105 -0.1914
 6277TIP3    H140246   6.392   6.767  12.949  0.1332  0.0557  0.0811
 6277TIP3    H240247   6.444   6.797  13.088  0.9662  0.6364 -0.3524
 6278TIP3   OH240248   4.243   5.832   3.334 -0.3397 -0.4126  0.0839
 6278TIP3    H140249   4.187   5.857   3.261 -0.0002 -0.1925 -0.1026
 6278TIP3    H240250   4.264   5.915   3.377  1.9476 -0.2026 -1.3707
 6279TIP3   OH240251   4.710   0.172   5.215 -0.0424 -0.3257 -0.4022
 6279TIP3    H140252   4.703   0.240   5.148 -1.4115  0.8816  0.9251
 6279TIP3    H240253   4.646   0.105   5.188  0.8733 -0.8098 -1.3851
 6280TIP3   OH240254   4.908   5.815   1.835  0.2718 -0.2190  0.2456
 6280TIP3    H140255   4.978   5.879   1.851  2.6804 -2.4604 -1.0442
 6280TIP3    H240256   4.891   5.820   1.741  1.3105 -2.3011 -0.0668
 6281TIP3   OH240257   5.142   6.438  10.689  0.0741  0.0770  0.1223
 6281TIP3    H140258   5.204   6.510  10.702  1.2155 -1.0583  1.0569
 6281TIP3    H240259   5.115   6.413  10.778  0.5625 -1.4060 -0.1384
 6282TIP3   OH240260   2.170   4.605   3.161 -0.1266  0.1779 -1.1855
 6282TIP3    H140261   2.218   4.619   3.242  0.2659  0.0429 -1.3965
 6282TIP3    H240262   2.107   4.677   3.158  0.4996  0.7296 -1.2373
 6283TIP3   OH240263   3.816   1.925   3.842 -0.0282 -0.0897  0.3428
 6283TIP3    H140264   3.741   1.872   3.814  1.4812 -1.6811 -0.6983
 6283TIP3    H240265   3.871   1.865   3.891  0.6658  1.0473  0.9614
 6284TIP3   OH240266   2.386   4.446   2.326 -0.9994  0.4150 -0.3505
 6284TIP3    H140267   2.319   4.430   2.392 -2.2360 -0.8159 -1.8442
 6284TIP3    H240268   2.353   4.520   2.275  0.7461  2.4500  1.4030
 6285TIP3   OH240269   0.016   0.771  12.159 -0.5025  0.4608  0.2231
 6285TIP3    H140270   0.111   0.785  12.160 -0.0147 -2.3626 -1.4730
 6285TIP3    H240271   0.003   0.694  12.215 -1.9404  1.5038  1.3501
 6286TIP3   OH240272   6.035   2.046  12.538 -0.1667  0.2526  0.2121
 6286TIP3    H140273   6.103   2.038  12.604  0.2636  0.7436 -0.1704
 6286TIP3    H240274   5.996   1.959  12.533 -0.2555  0.2392  1.1676
 6287TIP3   OH240275   0.344   0.314   2.415 -0.3909 -0.1844 -0.1287
 6287TIP3    H140276   0.284   0.241   2.399 -0.3758  0.1502 -1.8386
 6287TIP3    H240277   0.374   0.340   2.328  0.7835  0.8794  0.5731
 6288TIP3   OH240278   2.881   0.159   1.823 -0.1943  0.4760 -0.3753
 6288TIP3    H140279   2.914   0.232   1.771  0.5918  0.2397 -0.2210
 6288TIP3    H240280   2.805   0.127   1.775 -1.2932  2.1890  0.1959
 6289TIP3   OH240281   2.295   5.745  15.634  0.0774 -0.1877  0.0315
 6289TIP3    H140282   2.327   5.710  15.551  1.5005 -0.4481  0.6858
 6289TIP3    H240283   2.340   5.829  15.644 -0.3359 -0.0084  0.3929
 6290TIP3   OH240284   5.299   2.454  11.326 -0.4133 -0.2588  0.0357
 6290TIP3    H140285   5.288   2.489  11.238 -1.5048  0.8007  0.5643
 6290TIP3    H240286   5.355   2.377  11.316  2.5805  1.9681 -1.1299
 6291TIP3   OH240287   5.509   1.651  16.521  0.0778 -0.2527  0.0029
 6291TIP3    H140288   5.524   1.683  16.432 -1.2968 -1.3645 -0.6668
 6291TIP3    H240289   5.589   1.671  16.568  1.3175 -0.7811 -1.8291
 6292TIP3   OH240290   2.421   1.847  12.428 -0.0209 -1.1360  0.3947
 6292TIP3    H140291   2.480   1.777  12.455 -0.7704 -1.5134  1.1065
 6292TIP3    H240292   2.477   1.923  12.412  0.6097 -1.3957  1.3836
 6293TIP3   OH240293   0.522   3.375   4.629  0.1495 -0.4323 -0.0587
 6293TIP3    H140294   0.493   3.288   4.601 -1.9274  0.0783  0.4085
 6293TIP3    H240295   0.493   3.434   4.560 -0.4827  0.1671  0.6947
 6294TIP3   OH240296   2.067   4.876  15.962  0.2274  0.0425 -0.0003
 6294TIP3    H140297   2.154   4.915  15.968  0.2575 -0.0960  0.4431
 6294TIP3    H240298   2.067   4.831  15.877  1.1687 -1.3714  0.7375
 6295TIP3   OH240299   1.953   4.566   1.731 -0.3516  0.2615  0.5771
 6295TIP3    H140300   2.009   4.558   1.654 -0.1203 -1.5179  0.9037
 6295TIP3    H240301   1.891   4.494   1.723 -0.6452  0.3741  1.8012
 6296TIP3   OH240302   1.049   6.339   3.014 -0.6772  0.5064  0.0541
 6296TIP3    H140303   0.963   6.381   3.016 -1.0277 -0.0976 -1.5498
 6296TIP3    H240304   1.058   6.306   2.925 -0.0888 -2.1198  1.0291
 6297TIP3   OH240305   2.665   3.480  10.628  0.1118 -0.1847  0.4671
 6297TIP3    H140306   2.631   3.568  10.614  1.8637  0.9549  2.9580
 6297TIP3    H240307   2.761   3.490  10.625  0.3205 -2.2034 -0.3788
 6298TIP3   OH240308   2.816   1.437   2.124 -0.5900 -0.3451  0.1393
 6298TIP3    H140309   2.811   1.480   2.210 -0.9386  1.2339 -0.6475
 6298TIP3    H240310   2.736   1.384   2.119 -0.0697 -1.2451  1.1954
 6299TIP3   OH240311   5.333   3.607  11.059 -0.3135  0.3001 -0.1403
 6299TIP3    H140312   5.365   3.687  11.100  0.6325 -0.2170  0.1574
 6299TIP3    H240313   5.326   3.629  10.966  1.0145  0.4036 -0.2280
 6300TIP3   OH240314   0.724   4.367  12.634  0.3067  0.7132  0.5919
 6300TIP3    H140315   0.781   4.419  12.576  0.8347  0.7878  1.1787
 6300TIP3    H240316   0.699   4.428  12.704 -0.0288  0.5115  0.6466
 6301TIP3   OH240317   4.789   4.457   5.586 -0.8199  0.3485 -0.1529
 6301TIP3    H140318   4.835   4.438   5.504  0.5622  2.2678  0.1308
 6301TIP3    H240319   4.748   4.542   5.570 -1.1419  0.3898  0.8858
 6302TIP3   OH240320   3.601   0.949   3.583 -0.5106  0.1368 -0.7422
 6302TIP3    H140321   3.661   0.875   3.578 -0.6121  0.0504 -0.6970
 6302TIP3    H240322   3.648   1.021   3.541  0.1745  0.4409  0.5374
 6303TIP3   OH240323   0.515   6.521  16.614  0.2307  0.1735  0.2219
 6303TIP3    H140324   0.558   6.596  16.572  1.0121 -1.1990 -1.5297
 6303TIP3    H240325   0.587   6.470  16.651  0.0305 -1.4080 -1.4934
 6304TIP3   OH240326   6.344   4.813  11.352  0.5520  0.2998 -0.3972
 6304TIP3    H140327   6.359   4.883  11.415 -0.8593  0.2832 -0.0247
 6304TIP3    H240328   6.316   4.858  11.272 -0.8879  0.1598  0.0058
 6305TIP3   OH240329   0.916   6.363   1.027 -0.6222  0.3054 -0.0561
 6305TIP3    H140330   0.829   6.370   0.989 -0.9192 -1.0955  0.3257
 6305TIP3    H240331   0.905   6.305   1.102  0.2959  1.6104  1.1046
 6306TIP3   OH240332   5.942   2.644   4.888  0.1342 -0.0328  0.0527
 6306TIP3    H140333   5.976   2.732   4.906 -1.5573  0.7866 -0.5993
 6306TIP3    H240334   5.867   2.635   4.946  0.5237 -1.2099  0.3899
 6307TIP3   OH240335   4.651   2.399  17.172  0.3250  0.1928  0.3620
 6307TIP3    H140336   4.572   2.447  17.147  0.4669  0.8343  1.1153
 6307TIP3    H240337   4.723   2.461  17.159  1.0043 -1.1190 -2.5117
 6308TIP3   OH240338   1.453   2.787   3.952  0.2308 -0.5094 -0.2016
 6308TIP3    H140339   1.392   2.715   3.970 -0.9462  0.0069 -1.9759
 6308TIP3    H240340   1.515   2.750   3.889  1.7688 -1.0288  1.5910
 6309TIP3   OH240341   5.255   5.460   2.291  0.2933  0.4988 -0.4959
 6309TIP3    H140342   5.210   5.414   2.220 -2.8845 -1.1378  2.4758
 6309TIP3    H240343   5.332   5.406   2.309 -1.0296 -1.2785 -0.0296
 6310TIP3   OH240344   0.493   4.999   2.191 -0.6520  0.2769 -0.0182
 6310TIP3    H140345   0.455   4.915   2.214 -2.8440  0.4475 -2.7261
 6310TIP3    H240346   0.423   5.063   2.208  0.7032  1.4661  1.2400
 6311TIP3   OH240347   1.022   4.381   1.109 -0.6755 -0.1268  0.3383
 6311TIP3    H140348   0.929   4.392   1.130 -0.5447 -0.0598  0.8975
 6311TIP3    H240349   1.068   4.405   1.190 -0.0757  1.8348 -0.5488
 6312TIP3   OH240350   1.796   2.917   2.962  0.0362  0.0426 -0.5262
 6312TIP3    H140351   1.857   2.894   2.893  0.1718 -0.3117 -0.2917
 6312TIP3    H240352   1.838   2.886   3.043 -1.4884 -2.3410 -0.5768
 6313TIP3   OH240353   2.744   3.138  17.017 -0.5960 -0.0959  0.5235
 6313TIP3    H140354   2.730   3.045  17.001  0.6715 -0.3316  0.7118
 6313TIP3    H240355   2.775   3.173  16.933 -1.4914  0.2490  0.3297
 6314TIP3   OH240356   4.043   5.715  11.847  0.0520 -0.5893  0.5944
 6314TIP3    H140357   4.002   5.760  11.774 -0.7320 -2.8856 -0.4344
 6314TIP3    H240358   4.008   5.626  11.843  1.6673 -1.3469  2.4525
 6315TIP3   OH240359   5.339   1.429  16.735 -0.1131 -0.4125  0.0195
 6315TIP3    H140360   5.345   1.513  16.781  0.1005 -0.0664 -0.6170
 6315TIP3    H240361   5.271   1.444  16.669 -0.8267 -1.0850  0.6002
 6316TIP3   OH240362   1.474   6.042  10.619 -0.4647 -0.1332 -0.1901
 6316TIP3    H140363   1.456   5.954  10.654  0.7525 -0.4316 -0.3004
 6316TIP3    H240364   1.397   6.063  10.567 -0.2545 -1.6448 -1.1481
 6317TIP3   OH240365   2.021   3.641   5.185  0.6303  0.2553  0.2047
 6317TIP3    H140366   2.088   3.709   5.189  0.4230  0.3960  2.0570
 6317TIP3    H240367   1.939   3.687   5.203  0.4186 -0.3870  0.9222
 6318TIP3   OH240368   6.419   3.559  15.362 -0.3044 -0.2474 -0.4049
 6318TIP3    H140369   6.495   3.591  15.314  0.5581 -0.0952  1.0584
 6318TIP3    H240370   6.364   3.636  15.374  0.0717 -0.0301 -0.0585
 6319TIP3   OH240371   6.759   0.449  13.690  0.0782  0.1014 -0.4476
 6319TIP3    H140372   6.853   0.465  13.699  0.0406 -0.0169  0.2010
 6319TIP3    H240373   6.740   0.468  13.598  0.8379 -0.3957 -0.7150
 6320TIP3   OH240374   4.907   0.354   2.662 -0.5197  0.3487  0.7414
 6320TIP3    H140375   4.882   0.264   2.642  0.5880 -0.0698  1.2223
 6320TIP3    H240376   4.835   0.388   2.716 -0.3807 -0.6120  1.5342
 6321TIP3   OH240377   1.115   3.652   2.661 -0.1561  1.2260 -0.3812
 6321TIP3    H140378   1.172   3.729   2.662  0.2079  0.9642 -0.6713
 6321TIP3    H240379   1.176   3.578   2.662 -0.4737  0.9403 -1.4683
 6322TIP3   OH240380   4.529   5.792   5.695  0.4406 -0.1941  0.0731
 6322TIP3    H140381   4.456   5.786   5.756  0.6817 -0.7352  0.3145
 6322TIP3    H240382   4.491   5.769   5.610 -0.2569  2.1525 -0.2864
 6323TIP3   OH240383   3.673   3.746   3.313 -0.0030  0.5856 -0.1276
 6323TIP3    H140384   3.602   3.715   3.257  0.2692 -1.5305  0.6719
 6323TIP3    H240385   3.652   3.838   3.329 -2.1172  0.2068 -0.5661
 6324TIP3   OH240386   0.396   0.202   4.164  0.0599  0.6987  0.0262
 6324TIP3    H140387   0.473   0.252   4.135 -0.5341  0.5876 -1.7926
 6324TIP3    H240388   0.347   0.263   4.218  0.0586  1.6685 -1.0318
 6325TIP3   OH240389   4.202   4.745   2.733 -0.2209  0.7774  0.0285
 6325TIP3    H140390   4.182   4.791   2.815  0.4882  2.2153 -0.5827
 6325TIP3    H240391   4.156   4.662   2.741 -4.2375  2.8308 -0.1596
 6326TIP3   OH240392   4.273   4.972  11.925 -0.8071 -0.3545  0.0865
 6326TIP3    H140393   4.357   4.984  11.969 -0.5344  1.9364 -1.0322
 6326TIP3    H240394   4.296   4.949  11.834 -1.3613  1.4338 -0.5294
 6327TIP3   OH240395   5.544   5.801   6.193 -0.0709 -0.2830  0.9549
 6327TIP3    H140396   5.497   5.882   6.212 -0.8906 -0.4705 -0.2691
 6327TIP3    H240397   5.573   5.769   6.279 -0.9387  0.5795  1.5674
 6328TIP3   OH240398   2.568   6.784  12.912  0.5562  0.1578 -0.8059
 6328TIP3    H140399   2.526   6.699  12.900  1.4751 -0.3511 -0.4138
 6328TIP3    H240400   2.497   6.842  12.941 -0.3415 -0.1527 -2.3036
 6329TIP3   OH240401   3.269   6.327   2.003  0.8108  0.1896 -0.4472
 6329TIP3    H140402   3.332   6.318   1.932 -0.0199 -2.3945 -0.9209
 6329TIP3    H240403   3.212   6.399   1.976  3.3419  2.3823 -0.1259
 6330TIP3   OH240404   6.602   0.070   4.855 -0.2140  0.3291  0.5977
 6330TIP3    H140405   6.615   0.161   4.831  1.1540 -0.0639 -0.1833
 6330TIP3    H240406   6.512   0.067   4.890 -0.8628  1.6449 -0.9027
 6331TIP3   OH240407   3.561   0.128  17.031  1.0093  0.4188 -0.0272
 6331TIP3    H140408   3.613   0.160  17.105 -0.2411  3.1414 -0.2766
 6331TIP3    H240409   3.619   0.067  16.986  2.4383  0.1176  2.1286
 6332TIP3   OH240410   1.218   1.166  16.596 -0.2105 -0.0174 -0.2898
 6332TIP3    H140411   1.123   1.169  16.609 -0.2538  0.9864 -0.7648
 6332TIP3    H240412   1.230   1.108  16.521 -0.5005  0.4402 -0.6900
 6333TIP3   OH240413   5.234   2.097   1.406  0.0732  0.3567 -0.3003
 6333TIP3    H140414   5.274   2.167   1.458 -1.1862 -1.0203  2.6186
 6333TIP3    H240415   5.142   2.123   1.401  0.4295  1.2191 -3.1656
 6334TIP3   OH240416   6.591   4.017  12.092  0.0431  0.1318  0.3344
 6334TIP3    H140417   6.561   3.966  12.017 -4.2803 -0.0761  2.0711
 6334TIP3    H240418   6.534   3.990  12.164  0.7380  3.9745  2.4720
 6335TIP3   OH240419   1.849   2.380  16.273 -1.1574 -0.0777 -0.7192
 6335TIP3    H140420   1.879   2.436  16.345 -3.3203 -1.7138  1.5376
 6335TIP3    H240421   1.807   2.440  16.212  2.0213  1.5508 -1.4604
 6336TIP3   OH240422   3.058   5.199  16.539 -0.6359  0.8022  0.0063
 6336TIP3    H140423   3.086   5.283  16.575  0.4462  0.6723 -0.5345
 6336TIP3    H240424   3.106   5.134  16.590 -2.1270  0.4572  1.0222
 6337TIP3   OH240425   3.623   3.913  17.163 -0.2091 -0.0846 -0.6067
 6337TIP3    H140426   3.697   3.916  17.224  1.0041 -1.5931 -1.9465
 6337TIP3    H240427   3.549   3.885  17.217  1.0450 -2.3090  0.0477
 6338TIP3   OH240428   2.384   0.845  12.608 -0.3480 -0.0550  0.4970
 6338TIP3    H140429   2.470   0.846  12.568  0.3691 -1.9875  1.9019
 6338TIP3    H240430   2.339   0.771  12.567 -1.0703  0.4734  0.3209
 6339TIP3   OH240431   1.631   0.133  16.035  0.4257  0.4884  0.2028
 6339TIP3    H140432   1.705   0.149  15.975 -0.2736  0.3217 -0.7249
 6339TIP3    H240433   1.630   0.038  16.045  1.0279  0.5802  1.1054
 6340TIP3   OH240434   6.589   3.745  16.323  0.7280  0.1456 -0.1228
 6340TIP3    H140435   6.608   3.754  16.416  1.3934 -1.2074 -0.1227
 6340TIP3    H240436   6.539   3.824  16.301 -0.2863  0.0089  1.6033
 6341TIP3   OH240437   6.759   1.703   0.455 -0.5765  0.0760 -0.4008
 6341TIP3    H140438   6.738   1.617   0.419 -0.0624 -0.2380  0.0348
 6341TIP3    H240439   6.678   1.754   0.445  0.1911  0.7194 -4.0230
 6342TIP3   OH240440   0.568   0.997   3.468 -0.3459 -0.4363 -0.4774
 6342TIP3    H140441   0.599   1.047   3.393  2.2020  1.6576  1.9015
 6342TIP3    H240442   0.622   0.918   3.469  0.1960 -0.0604 -0.3321
 6343TIP3   OH240443   5.559   4.288   2.704  0.1835 -0.3056 -1.1221
 6343TIP3    H140444   5.488   4.312   2.646  0.8358  0.3699 -1.6421
 6343TIP3    H240445   5.635   4.277   2.647  0.6146 -0.5441 -0.5166
 6344TIP3   OH240446   0.971   4.436  14.936  0.2669 -0.0627  0.4130
 6344TIP3    H140447   1.019   4.487  14.871  2.0451 -0.2803  1.5194
 6344TIP3    H240448   0.879   4.458  14.921  0.7103  0.4834 -1.6468
 6345TIP3   OH240449   4.567   2.626   1.749 -0.1619 -0.2080 -0.2613
 6345TIP3    H140450   4.603   2.537   1.749 -2.4018 -1.1321  0.3758
 6345TIP3    H240451   4.591   2.661   1.663 -0.8580 -2.1102 -1.2635
 6346TIP3   OH240452   4.211   1.513   1.341  0.1759  0.0614  0.1609
 6346TIP3    H140453   4.142   1.447   1.350 -0.8404  1.0945  0.1588
 6346TIP3    H240454   4.191   1.577   1.410  0.3817  1.0276 -0.6738
 6347TIP3   OH240455   5.814   6.326   2.735  0.0271  0.2608  0.2971
 6347TIP3    H140456   5.764   6.281   2.803 -0.8172 -0.7014 -0.9316
 6347TIP3    H240457   5.902   6.332   2.770 -0.5577  0.4162  1.7721
 6348TIP3   OH240458   3.693   2.010   6.367 -0.3673 -0.2591  0.0177
 6348TIP3    H140459   3.681   2.072   6.439  1.7880 -1.1742  1.2181
 6348TIP3    H240460   3.654   2.053   6.291  0.6344  2.3582  0.9296
 6349TIP3   OH240461   1.982   4.372  12.657  0.1929  0.2222  0.3124
 6349TIP3    H140462   1.989   4.319  12.578  2.2091 -0.4671  0.9274
 6349TIP3    H240463   1.890   4.399  12.660 -0.4386 -1.7124 -0.9763
 6350TIP3   OH240464   6.070   1.714  14.031 -0.6431  0.1383 -0.2868
 6350TIP3    H140465   6.068   1.761  13.948 -0.3403  0.2623 -0.2242
 6350TIP3    H240466   6.113   1.775  14.092  0.2070 -0.4148 -0.3262
 6351TIP3   OH240467   2.223   1.571   1.254 -0.5944 -0.0332 -0.0901
 6351TIP3    H140468   2.212   1.666   1.251  0.0496  0.0784  0.6868
 6351TIP3    H240469   2.307   1.558   1.299 -1.1944 -0.9993  0.7794
 6352TIP3   OH240470   1.919   5.965   1.075 -0.3948  0.3872 -0.3991
 6352TIP3    H140471   1.980   5.999   1.139 -0.0029 -0.4029 -0.3431
 6352TIP3    H240472   1.849   5.925   1.127  1.2945 -2.7204 -0.4085
 6353TIP3   OH240473   4.364   0.613  13.434 -0.2011 -0.1375 -0.0907
 6353TIP3    H140474   4.322   0.600  13.519 -0.9581 -1.4614 -0.6362
 6353TIP3    H240475   4.311   0.681  13.392  0.4823  0.8833  0.6835
 6354TIP3   OH240476   4.894   0.086   3.183  0.2802  0.6671 -0.3136
 6354TIP3    H140477   4.850   0.051   3.261 -2.7513  2.5993 -1.0843
 6354TIP3    H240478   4.908   0.179   3.202  0.4605  0.9362 -1.6763
 6355TIP3   OH240479   6.735   5.368   2.502 -0.0651 -0.5496  0.0696
 6355TIP3    H140480   6.814   5.323   2.532  0.9817  1.0148 -0.2823
 6355TIP3    H240481   6.684   5.300   2.457  0.5602 -1.8220  1.2388
 6356TIP3   OH240482   0.567   2.592   1.751  0.2689  0.0428 -0.0632
 6356TIP3    H140483   0.580   2.653   1.678 -0.9873 -0.5047 -0.7709
 6356TIP3    H240484   0.573   2.646   1.829  1.1526  0.7286 -0.5985
 6357TIP3   OH240485   3.723   2.023  11.384 -0.3060 -0.6247 -0.1748
 6357TIP3    H140486   3.695   2.060  11.301  1.4461  4.9087  1.4417
 6357TIP3    H240487   3.809   1.985  11.365 -1.3593 -2.3748 -1.5401
 6358TIP3   OH240488   3.428   2.750  13.727  0.0304  0.2383  0.2939
 6358TIP3    H140489   3.433   2.770  13.820 -2.7577  0.5782  0.3907
 6358TIP3    H240490   3.439   2.835  13.684  1.7833  0.0224  0.2436
 6359TIP3   OH240491   2.048   3.189   4.649  0.5348 -0.2374 -0.2180
 6359TIP3    H140492   2.083   3.230   4.570 -1.0025 -1.3670 -1.5057
 6359TIP3    H240493   2.125   3.176   4.705  1.3376  2.4402 -0.6291
 6360TIP3   OH240494   4.360   5.998   4.341  0.4385  0.3274  0.2135
 6360TIP3    H140495   4.303   5.921   4.345  1.9485 -0.7642  1.4378
 6360TIP3    H240496   4.301   6.071   4.322 -1.1863 -0.9582  0.2149
 6361TIP3   OH240497   0.967   5.838  12.329  0.1640  0.0216 -0.3043
 6361TIP3    H140498   1.001   5.923  12.299 -0.2486  0.0407 -0.7207
 6361TIP3    H240499   0.925   5.800  12.252  2.1886 -1.5156 -0.7051
 6362TIP3   OH240500   3.329   5.814  16.819  0.1300 -0.1152 -0.1891
 6362TIP3    H140501   3.298   5.904  16.810 -0.4844 -0.2459  0.5510
 6362TIP3    H240502   3.249   5.762  16.830  0.5269 -0.6294  0.3271
 6363TIP3   OH240503   3.643   0.981  14.310 -0.1462  0.3832 -0.8693
 6363TIP3    H140504   3.630   1.076  14.312 -2.2424  0.0874  1.2074
 6363TIP3    H240505   3.581   0.950  14.244 -0.6976  0.3108 -0.3269
 6364TIP3   OH240506   3.608   2.611  11.904  0.9516 -0.3450  0.5379
 6364TIP3    H140507   3.626   2.658  11.985  0.2047 -2.2440  1.8354
 6364TIP3    H240508   3.535   2.553  11.925 -0.5084  0.4649 -2.0317
 6365TIP3   OH240509   3.949   5.525   6.148  0.1355 -0.2731 -0.0234
 6365TIP3    H140510   3.876   5.582   6.172  0.0023  0.2071 -1.5197
 6365TIP3    H240511   4.008   5.529   6.223 -1.0761 -0.1877  0.9514
 6366TIP3   OH240512   3.058   4.596   1.501 -0.0536 -0.0205  0.2725
 6366TIP3    H140513   3.092   4.605   1.412  0.4744  2.2253  0.6790
 6366TIP3    H240514   2.987   4.533   1.493  1.1967 -1.2681 -1.4033
 6367TIP3   OH240515   3.701   4.915   5.461 -0.0795 -0.5940 -0.1396
 6367TIP3    H140516   3.679   4.841   5.405  0.8096  0.1263 -1.4737
 6367TIP3    H240517   3.774   4.883   5.515 -0.1031 -0.8895 -0.2813
 6368TIP3   OH240518   0.546   2.787  13.565 -0.2951  0.2521  0.4443
 6368TIP3    H140519   0.518   2.870  13.527  0.6771  0.4376  0.1139
 6368TIP3    H240520   0.585   2.739  13.493  0.5422  0.1453  0.9624
 6369TIP3   OH240521   4.811   4.639  11.268 -0.3574  0.2544 -0.2217
 6369TIP3    H140522   4.782   4.582  11.197 -0.0141  0.4758 -0.5432
 6369TIP3    H240523   4.811   4.727  11.230 -1.1781  0.5109  0.3630
 6370TIP3   OH240524   3.414   0.150   2.412  0.0927  0.1059  0.6426
 6370TIP3    H140525   3.427   0.241   2.389 -0.4840  0.6999  2.5351
 6370TIP3    H240526   3.349   0.118   2.349 -1.1780  1.5568  1.1722
 6371TIP3   OH240527   4.912   2.272  14.629 -0.1674  0.0423 -0.8983
 6371TIP3    H140528   4.890   2.186  14.666  1.4546  0.3321  0.7936
 6371TIP3    H240529   4.938   2.253  14.539 -0.4164 -1.1675 -0.7226
 6372TIP3   OH240530   4.093   0.484   1.747 -0.2345 -0.0378  0.8883
 6372TIP3    H140531   4.064   0.573   1.727 -1.1504 -0.6858 -0.7975
 6372TIP3    H240532   4.020   0.446   1.796 -0.9370 -0.6424 -0.5820
 6373TIP3   OH240533   4.802   3.436  15.139  0.0745 -0.5264 -0.0225
 6373TIP3    H140534   4.833   3.526  15.125 -1.6416  0.0871 -0.0498
 6373TIP3    H240535   4.763   3.438  15.226 -1.5896 -0.7550 -0.7366
 6374TIP3   OH240536   2.517   4.604   0.611 -0.1100 -0.2218  0.2671
 6374TIP3    H140537   2.484   4.550   0.683  0.2194 -0.6609  0.0919
 6374TIP3    H240538   2.476   4.568   0.533  0.0514 -0.1736  0.1597
 6375TIP3   OH240539   6.750   0.840  16.183  0.1615  0.2057 -0.6965
 6375TIP3    H140540   6.735   0.846  16.088  2.5811 -2.9711 -1.3643
 6375TIP3    H240541   6.703   0.761  16.209  1.4117 -0.2140  0.3235
 6376TIP3   OH240542   5.467   3.154   3.620 -0.1094 -0.1529  0.5253
 6376TIP3    H140543   5.495   3.205   3.695 -0.1625 -0.7719  0.9701
 6376TIP3    H240544   5.449   3.066   3.655  0.8893 -0.7398 -0.3813
 6377TIP3   OH240545   2.856   4.504   1.816 -0.3848  0.6149  0.1700
 6377TIP3    H140546   2.839   4.555   1.896 -0.1247  0.1949  0.4962
 6377TIP3    H240547   2.775   4.509   1.767 -0.0703  2.1049 -0.2225
 6378TIP3   OH240548   5.187   1.791  10.229 -0.7051  0.6110  0.0476
 6378TIP3    H140549   5.260   1.792  10.291  1.1243 -0.7317 -2.0301
 6378TIP3    H240550   5.121   1.736  10.271  0.7006 -0.6572  0.6294
 6379TIP3   OH240551   5.693   2.954  15.035  0.0110 -0.0134 -0.2060
 6379TIP3    H140552   5.721   3.044  15.048  0.9078  0.0106 -2.0948
 6379TIP3    H240553   5.617   2.960  14.977 -0.1264 -0.4460 -0.0753
 6380TIP3   OH240554   6.329   1.951  15.265 -0.4813 -0.0053  0.1285
 6380TIP3    H140555   6.361   2.005  15.337  0.7296 -1.9730  1.1336
 6380TIP3    H240556   6.234   1.955  15.272 -0.4547  2.9113 -0.5684
 6381TIP3   OH240557   4.848   2.238  17.030  0.4502  0.0689 -0.0911
 6381TIP3    H140558   4.815   2.295  17.100 -0.5001 -0.7129  0.1013
 6381TIP3    H240559   4.942   2.231  17.047  0.1797 -0.3494  1.2822
 6382TIP3   OH240560   5.868   6.013  14.471  0.1247 -0.0472 -0.5349
 6382TIP3    H140561   5.835   5.962  14.545  1.5562 -1.4719 -0.8232
 6382TIP3    H240562   5.925   6.079  14.511 -0.7388  0.5068 -0.2306
 6383TIP3   OH240563   6.232   1.263  15.992 -1.0748  0.3361  0.4215
 6383TIP3    H140564   6.184   1.187  15.959 -1.8979 -0.2476  2.8305
 6383TIP3    H240565   6.323   1.233  16.000 -1.3204 -0.2715  0.9591
 6384TIP3   OH240566   4.543   3.173  15.260 -0.2099  0.1697 -0.3978
 6384TIP3    H140567   4.473   3.137  15.314 -0.5162  0.7487 -0.4015
 6384TIP3    H240568   4.544   3.267  15.282 -0.2596  0.3841 -1.3153
 6385TIP3   OH240569   5.967   4.950  12.933 -0.7179 -0.3562 -0.4108
 6385TIP3    H140570   5.942   4.863  12.900 -2.0477  0.0550 -0.4865
 6385TIP3    H240571   5.996   4.934  13.023  0.7898 -1.1450 -1.0175
 6386TIP3   OH240572   5.479   6.046  11.023  0.0182 -0.2260  0.1927
 6386TIP3    H140573   5.393   6.036  11.062  0.8207 -0.1321  2.0177
 6386TIP3    H240574   5.464   6.034  10.929 -1.3360 -4.1424  0.8371
 6387TIP3   OH240575   2.694   1.207  15.375 -0.4830 -0.1339  0.1716
 6387TIP3    H140576   2.724   1.219  15.465  1.0633 -1.2903 -0.1593
 6387TIP3    H240577   2.757   1.145  15.337 -1.6377 -0.3593 -1.4322
 6388TIP3   OH240578   1.668   3.803  11.652  0.1972  0.5108  0.2909
 6388TIP3    H140579   1.634   3.891  11.638 -1.7026 -0.3822 -0.9833
 6388TIP3    H240580   1.673   3.793  11.747 -1.7534  1.2069  0.4817
 6389TIP3   OH240581   2.051   3.097   5.952 -0.5871 -0.4754  0.0472
 6389TIP3    H140582   2.004   3.038   6.011 -2.8613  0.5851 -0.6442
 6389TIP3    H240583   1.986   3.122   5.887  0.3194  2.7407  0.2857
 6390TIP3   OH240584   2.720   5.747  12.151 -0.1969  0.2223  0.0431
 6390TIP3    H140585   2.763   5.727  12.233  1.5296  1.9912 -0.3960
 6390TIP3    H240586   2.644   5.800  12.176 -0.6624 -0.7051  0.6125
 6391TIP3   OH240587   4.621   4.686   1.852  0.6848 -0.2769  0.0115
 6391TIP3    H140588   4.543   4.632   1.860 -0.9592  1.8369 -1.2440
 6391TIP3    H240589   4.689   4.627   1.819 -1.2574 -1.3967 -2.0634
 6392TIP3   OH240590   3.698   2.577  10.768  0.3002  0.0936 -0.2088
 6392TIP3    H140591   3.696   2.636  10.843 -1.9525 -0.4902  0.2455
 6392TIP3    H240592   3.622   2.604  10.715  0.2747 -1.2672 -0.8744
 6393TIP3   OH240593   2.789   3.930   1.217  0.0446 -0.7049  0.1109
 6393TIP3    H140594   2.733   3.853   1.225 -1.3197  0.4271  2.1389
 6393TIP3    H240595   2.869   3.906   1.263  0.0737 -1.3187 -0.2613
 6394TIP3   OH240596   4.159   5.165  12.606  0.2846 -0.2506 -0.0383
 6394TIP3    H140597   4.105   5.097  12.566 -0.3274  0.0304  0.3036
 6394TIP3    H240598   4.230   5.180  12.544  0.0940 -0.7893 -0.3813
 6395TIP3   OH240599   1.279   2.668  14.586  0.2486 -0.4604  0.7801
 6395TIP3    H140600   1.365   2.626  14.594  0.1166 -0.4405  2.5188
 6395TIP3    H240601   1.219   2.606  14.627 -0.3924  0.0808  0.6547
 6396TIP3   OH240602   4.253   2.556   1.544  0.1139 -0.5922  0.1871
 6396TIP3    H140603   4.212   2.632   1.584  1.1632  0.6764 -1.1173
 6396TIP3    H240604   4.257   2.491   1.615 -2.3479 -0.0813  0.8460
 6397TIP3   OH240605   0.134   5.420  15.051 -0.3857  0.6322 -0.1017
 6397TIP3    H140606   0.043   5.413  15.082 -0.1752  0.4945  0.4876
 6397TIP3    H240607   0.184   5.366  15.112 -0.0528 -0.1348 -1.0349
 6398TIP3   OH240608   6.659   5.374   4.643 -0.0189  0.2596 -0.2247
 6398TIP3    H140609   6.707   5.357   4.723  0.8764  1.5102 -0.4786
 6398TIP3    H240610   6.613   5.457   4.659 -1.3942 -0.4750 -0.2991
 6399TIP3   OH240611   3.163   0.951   5.129  0.1959 -0.0076  0.3184
 6399TIP3    H140612   3.215   0.872   5.113 -0.2246 -0.0806 -0.7334
 6399TIP3    H240613   3.198   1.016   5.067 -1.0792 -0.1166 -0.5410
 6400TIP3   OH240614   2.493   6.384  11.042 -0.6305 -0.3208 -0.1913
 6400TIP3    H140615   2.463   6.475  11.043  3.2593  1.0401  0.3566
 6400TIP3    H240616   2.417   6.334  11.012 -2.5346  3.2117 -1.5170
 6401TIP3   OH240617   6.092   4.395  12.296 -0.8380  0.7902  0.4817
 6401TIP3    H140618   6.026   4.459  12.269 -0.4284  1.7447  1.7112
 6401TIP3    H240619   6.107   4.342  12.217 -3.9911 -0.2980  0.5304
 6402TIP3   OH240620   5.767   3.839   1.343 -0.1406  0.0393  0.3819
 6402TIP3    H140621   5.721   3.779   1.284 -1.8417  0.4674  1.2641
 6402TIP3    H240622   5.698   3.889   1.386  1.2362  2.6762 -0.3439
 6403TIP3   OH240623   6.233   4.200  14.977  0.4828  0.0747  0.1641
 6403TIP3    H140624   6.180   4.140  15.029 -0.1290  2.6995  2.6917
 6403TIP3    H240625   6.172   4.272  14.955  1.7393  0.8010 -1.0360
 6404TIP3   OH240626   6.172   6.017  16.448 -0.2964 -0.3747  0.3400
 6404TIP3    H140627   6.190   5.948  16.511 -1.1057 -1.4417 -0.5608
 6404TIP3    H240628   6.258   6.053  16.425  0.1382 -1.1739  0.7135
 6405TIP3   OH240629   1.390   6.085  16.444  0.2164  0.5872  0.5829
 6405TIP3    H140630   1.348   6.148  16.384  0.0217 -0.1376 -0.0506
 6405TIP3    H240631   1.467   6.131  16.477 -0.2936  1.4095  0.6461
 6406TIP3   OH240632   4.734   4.427  15.303  0.0219  0.5784  0.3037
 6406TIP3    H140633   4.773   4.391  15.383  0.3046 -0.6022 -0.3556
 6406TIP3    H240634   4.809   4.446  15.246 -0.2143  0.7110  0.0323
 6407TIP3   OH240635   5.891   1.952   1.485  0.0395 -0.2843  0.1047
 6407TIP3    H140636   5.917   1.914   1.402  3.4257  1.2515  0.3716
 6407TIP3    H240637   5.866   1.878   1.540 -4.1201 -1.2148 -2.7528
 6408TIP3   OH240638   0.751   3.588   2.036 -0.3086 -0.4595 -0.0712
 6408TIP3    H140639   0.666   3.615   2.071 -0.0496 -0.3408  0.4822
 6408TIP3    H240640   0.741   3.494   2.019 -1.0386 -0.1357 -1.4865
 6409TIP3   OH240641   2.434   0.518   4.074 -0.3059 -0.2917  0.3030
 6409TIP3    H140642   2.497   0.536   4.004 -3.1862 -0.2449 -2.3723
 6409TIP3    H240643   2.392   0.437   4.048 -1.3363 -0.3530  2.0759
 6410TIP3   OH240644   0.242   2.217  11.369  0.7254 -0.2143  0.1307
 6410TIP3    H140645   0.250   2.304  11.331  2.3864  0.3500  1.6668
 6410TIP3    H240646   0.208   2.162  11.299 -1.5638  1.9294 -0.4753
 6411TIP3   OH240647   3.879   0.852   3.701  0.1648  0.3938  0.3754
 6411TIP3    H140648   3.826   0.804   3.637 -0.1778 -0.9661  1.6736
 6411TIP3    H240649   3.925   0.917   3.648 -2.1804  1.0911 -0.8927
 6412TIP3   OH240650   3.262   1.146   4.958  0.3638 -0.2044 -0.1004
 6412TIP3    H140651   3.319   1.195   4.899 -0.6939  2.5817  1.1207
 6412TIP3    H240652   3.173   1.169   4.932 -0.1600 -1.2636  0.6755
 6413TIP3   OH240653   3.378   3.866   2.706 -0.0402  0.4014 -0.0961
 6413TIP3    H140654   3.408   3.790   2.657 -0.5605 -0.3171  0.6883
 6413TIP3    H240655   3.328   3.918   2.642 -0.8635 -0.6203 -0.2943
 6414TIP3   OH240656   3.788   4.203   6.450  0.0402 -0.1948  0.0121
 6414TIP3    H140657   3.831   4.234   6.370 -0.8831  0.5293 -0.1996
 6414TIP3    H240658   3.854   4.215   6.518  0.4290  0.2673 -0.4396
 6415TIP3   OH240659   6.234   0.468  13.781  0.1217  0.1062  0.1110
 6415TIP3    H140660   6.164   0.411  13.749  0.5876 -0.2122 -0.3424
 6415TIP3    H240661   6.302   0.462  13.714  0.8098 -0.0113  0.8150
 6416TIP3   OH240662   5.686   4.756  16.026 -0.0455  0.3934 -0.1859
 6416TIP3    H140663   5.699   4.702  15.948  0.4994  0.8196 -0.3827
 6416TIP3    H240664   5.611   4.715  16.071  0.3997 -0.5538 -0.3105
 6417TIP3   OH240665   0.488   0.553   0.975  0.3355  0.4418 -0.1265
 6417TIP3    H140666   0.474   0.647   0.984 -0.3248  0.3783 -0.3974
 6417TIP3    H240667   0.580   0.539   0.999  1.4455  1.6480 -3.3868
 6418TIP3   OH240668   3.410   1.248  16.951 -0.0015  0.0884  0.7388
 6418TIP3    H140669   3.475   1.201  17.004 -0.6385 -0.2027  1.2660
 6418TIP3    H240670   3.339   1.185  16.940  1.0014 -0.6186 -2.2349
 6419TIP3   OH240671   1.111   3.107   5.536 -0.7070  0.1025 -0.0817
 6419TIP3    H140672   1.019   3.124   5.515 -0.6593 -0.8895 -1.1148
 6419TIP3    H240673   1.132   3.172   5.603 -1.6981  1.4288 -1.0099
 6420TIP3   OH240674   4.769   0.305  13.325  0.0684  0.3674  0.2092
 6420TIP3    H140675   4.701   0.243  13.353 -1.4254  1.4483 -0.9696
 6420TIP3    H240676   4.734   0.391  13.348  0.1233  1.0760 -2.2016
 6421TIP3   OH240677   2.067   5.426   2.299  0.0058 -0.5649 -0.0265
 6421TIP3    H140678   1.974   5.428   2.278  0.1893  2.8396 -0.6738
 6421TIP3    H240679   2.107   5.374   2.229 -0.9362  0.9999 -1.7563
 6422TIP3   OH240680   5.450   5.368  16.194 -0.2063  0.1285  0.2375
 6422TIP3    H140681   5.514   5.423  16.148 -1.5508  1.4937 -0.0489
 6422TIP3    H240682   5.443   5.289  16.140 -0.3129  0.8696 -0.8495
 6423TIP3   OH240683   3.504   6.288  12.044  0.3659 -0.3160  0.5406
 6423TIP3    H140684   3.490   6.212  12.101  1.5326 -1.6372 -0.8890
 6423TIP3    H240685   3.538   6.251  11.962 -1.2204  1.5432 -1.0093
 6424TIP3   OH240686   5.319   2.725  13.460  0.0425  0.0795 -0.0094
 6424TIP3    H140687   5.388   2.670  13.495 -0.8194 -1.0169 -0.0173
 6424TIP3    H240688   5.297   2.785  13.531 -0.4719 -0.9765  0.7333
 6425TIP3   OH240689   5.486   1.181  15.288  0.0933 -0.5369  0.4401
 6425TIP3    H140690   5.488   1.228  15.372 -0.9741 -0.5134  0.4635
 6425TIP3    H240691   5.428   1.235  15.233  0.2674 -0.9025 -0.0963
 6426TIP3   OH240692   1.737   1.015   4.991  0.1560  0.1778 -0.3695
 6426TIP3    H140693   1.767   1.053   4.909  1.0487  0.2301 -0.0289
 6426TIP3    H240694   1.766   0.924   4.988  1.4355  0.5443  0.4855
 6427TIP3   OH240695   2.159   6.774  16.448  0.1285  0.5795 -0.5987
 6427TIP3    H140696   2.116   6.719  16.513  0.3720 -0.3268 -1.1908
 6427TIP3    H240697   2.090   6.831  16.415 -0.1254  0.6391  0.0214
 6428TIP3   OH240698   3.116   3.232   0.229 -0.0329 -0.2509 -0.0100
 6428TIP3    H140699   3.035   3.181   0.220 -0.2591 -0.0499  0.8659
 6428TIP3    H240700   3.155   3.231   0.141  0.1610 -2.2504  0.0795
 6429TIP3   OH240701   6.670   5.985  15.046  0.2957  0.3346 -0.2261
 6429TIP3    H140702   6.702   6.022  15.128  1.8959  0.7944 -1.0500
 6429TIP3    H240703   6.706   6.041  14.977 -2.0905  0.7454 -1.2140
 6430TIP3   OH240704   2.722   5.064   4.378  0.1117  0.1093  0.5862
 6430TIP3    H140705   2.678   5.127   4.434 -1.7672  0.1395 -0.8897
 6430TIP3    H240706   2.659   5.044   4.309  2.4603  0.2744 -1.6837
 6431TIP3   OH240707   4.246   0.460   3.092 -0.2791  0.2757 -0.5019
 6431TIP3    H140708   4.315   0.470   3.156 -0.9150 -2.8880  0.7733
 6431TIP3    H240709   4.165   0.476   3.140 -0.7041 -1.1602 -0.6942
 6432TIP3   OH240710   2.741   2.662  11.977 -0.4694  0.4088  0.4765
 6432TIP3    H140711   2.776   2.751  11.964 -2.5645  1.5434  2.3426
 6432TIP3    H240712   2.818   2.610  12.001  0.3964  2.3213  2.0690
 6433TIP3   OH240713   2.391   3.432  14.355 -0.3783 -0.1109  0.0734
 6433TIP3    H140714   2.429   3.466  14.436 -1.1693  0.4594  0.2141
 6433TIP3    H240715   2.381   3.338  14.371 -0.8098  0.0456  0.7585
 6434TIP3   OH240716   1.357   6.596  16.481 -0.1381 -0.3113 -0.4398
 6434TIP3    H140717   1.290   6.640  16.533 -0.1043  0.1252 -0.7685
 6434TIP3    H240718   1.324   6.600  16.391  0.5859  0.3958 -0.6822
 6435TIP3   OH240719   1.034   6.408  16.551 -0.3403  0.0148 -0.1018
 6435TIP3    H140720   1.048   6.440  16.640 -1.9455 -0.4316  0.3196
 6435TIP3    H240721   1.025   6.487  16.498 -0.4175  0.2702  0.2937
 6436TIP3   OH240722   3.634   2.120  11.171  0.1681 -0.0768 -0.0563
 6436TIP3    H140723   3.619   2.118  11.076 -0.2225 -1.2295  0.0265
 6436TIP3    H240724   3.653   2.212  11.190  0.1688  0.1778 -1.2388
 6437TIP3   OH240725   4.436   3.567  12.039  0.3899  0.5567  0.0101
 6437TIP3    H140726   4.514   3.553  12.093  0.8487 -0.6010 -0.9503
 6437TIP3    H240727   4.462   3.539  11.951 -0.9725  0.5776 -0.4073
 6438TIP3   OH240728   2.056   1.021  16.161  0.0567  0.1008 -0.0729
 6438TIP3    H140729   1.966   1.028  16.194  0.1470  1.3717 -0.0415
 6438TIP3    H240730   2.047   0.975  16.077 -0.6811  0.5710 -0.2606
 6439TIP3   OH240731   3.175   2.043   5.560 -0.4281 -0.1911  0.1480
 6439TIP3    H140732   3.161   2.010   5.471 -0.1166  1.8603 -0.6900
 6439TIP3    H240733   3.250   2.102   5.552 -0.7023  0.3820  1.6769
 6440TIP3   OH240734   1.074   0.291  12.122  0.7149 -0.0051 -0.0446
 6440TIP3    H140735   1.155   0.240  12.129 -0.0556 -1.0025  2.4425
 6440TIP3    H240736   1.025   0.248  12.052  1.4418 -0.7380 -0.1183
 6441TIP3   OH240737   0.484   1.393   4.240  0.2665 -0.0840  0.0659
 6441TIP3    H140738   0.506   1.481   4.269  1.1303  0.2482 -1.5082
 6441TIP3    H240739   0.395   1.401   4.204  0.9089  0.4933 -1.4320
 6442TIP3   OH240740   0.100   0.394  14.583  0.1780  0.1586 -0.0240
 6442TIP3    H140741   0.065   0.335  14.516 -1.3806  0.2605  0.6691
 6442TIP3    H240742   0.120   0.475  14.536  1.0535 -0.4614 -0.7316
 6443TIP3   OH240743   6.014   5.241  14.780  0.1027 -0.2255  0.2144
 6443TIP3    H140744   6.011   5.278  14.692  0.4720 -0.4464  0.1092
 6443TIP3    H240745   5.922   5.241  14.809  0.2627  2.2199  0.8429
 6444TIP3   OH240746   3.866   2.910   3.432  0.4979  0.3879  0.2452
 6444TIP3    H140747   3.878   2.860   3.351 -1.4136 -0.1067  0.2528
 6444TIP3    H240748   3.925   2.868   3.495  2.1604  0.9038 -0.9119
 6445TIP3   OH240749   2.836   2.221   0.903  0.5628 -0.3877 -0.0547
 6445TIP3    H140750   2.828   2.290   0.969  0.3123 -0.7645  0.3156
 6445TIP3    H240751   2.746   2.207   0.872  0.4624 -1.2066  0.5654
 6446TIP3   OH240752   0.900   1.450   3.596 -0.8197 -0.0928 -0.0129
 6446TIP3    H140753   0.827   1.434   3.656 -1.1097  0.0602 -0.3186
 6446TIP3    H240754   0.964   1.383   3.617 -0.9662 -0.1022  0.3980
 6447TIP3   OH240755   2.183   5.956   3.672  0.2474 -0.1343  0.2048
 6447TIP3    H140756   2.108   6.000   3.712  1.8281  0.9787  2.0424
 6447TIP3    H240757   2.218   6.020   3.610 -0.9443 -1.0736 -1.4862
 6448TIP3   OH240758   6.128   4.096  14.105  0.1946 -0.5700 -0.4007
 6448TIP3    H140759   6.046   4.137  14.133  0.8432 -1.1165  2.3764
 6448TIP3    H240760   6.104   4.006  14.083 -0.3235 -0.1245 -1.7267
 6449TIP3   OH240761   4.756   4.205   2.593  0.1431  0.3714 -0.3402
 6449TIP3    H140762   4.676   4.160   2.621  0.3596  0.1437 -0.0847
 6449TIP3    H240763   4.726   4.290   2.561  0.0838  1.2933  2.1208
 6450TIP3   OH240764   2.078   2.943  16.119  0.2103  0.6170 -0.3107
 6450TIP3    H140765   2.173   2.946  16.104  0.3589  0.5369  0.5791
 6450TIP3    H240766   2.068   2.885  16.195 -0.3721  2.3045  0.9295
 6451TIP3   OH240767   5.727   3.219   0.498  0.8427 -0.1219  0.2216
 6451TIP3    H140768   5.817   3.188   0.493  1.3541  1.2015  1.0703
 6451TIP3    H240769   5.730   3.293   0.558 -0.6205  0.6210 -0.5881
 6452TIP3   OH240770   3.004   3.600  13.023  0.5652 -0.3355 -0.1285
 6452TIP3    H140771   3.071   3.665  13.004 -0.5491  1.5049  2.0697
 6452TIP3    H240772   2.937   3.647  13.071 -1.8274 -2.3805 -1.3091
 6453TIP3   OH240773   2.016   1.128   5.093  0.7237  0.0536 -0.0735
 6453TIP3    H140774   2.012   1.134   5.188  1.7063 -2.9410  0.2270
 6453TIP3    H240775   1.941   1.073   5.069  1.8455 -1.1923 -0.7822
 6454TIP3   OH240776   1.631   1.551  15.854  0.1286  0.2453 -0.3466
 6454TIP3    H140777   1.587   1.507  15.782 -1.8690  1.8573 -0.1454
 6454TIP3    H240778   1.713   1.582  15.816  0.0983 -0.8338 -1.3178
 6455TIP3   OH240779   6.444   2.583   0.163 -0.1782 -0.0080 -0.2006
 6455TIP3    H140780   6.465   2.662   0.113  1.0938 -1.5718 -2.1799
 6455TIP3    H240781   6.515   2.522   0.144 -1.8363 -2.1385  0.1978
 6456TIP3   OH240782   1.578   4.139   0.504  0.3543  0.4120  0.2137
 6456TIP3    H140783   1.513   4.076   0.474 -0.9352  1.5683  0.5139
 6456TIP3    H240784   1.609   4.182   0.424 -1.2107  1.7049  0.2699
 6457TIP3   OH240785   1.674   1.611  15.102 -0.4874  0.2045 -0.9252
 6457TIP3    H140786   1.605   1.552  15.072 -0.3762 -0.5740  0.2907
 6457TIP3    H240787   1.629   1.682  15.147 -0.5268 -0.0421 -0.5723
 6458TIP3   OH240788   2.994   6.606   5.667 -0.1006  0.6843  0.0466
 6458TIP3    H140789   2.918   6.638   5.715 -0.3610  0.1909 -0.0391
 6458TIP3    H240790   3.036   6.545   5.727  0.6226  1.4887  0.3646
 6459TIP3   OH240791   3.111   3.835  14.981  0.2033 -0.2155 -0.5195
 6459TIP3    H140792   3.087   3.926  15.000 -0.4268 -0.5500  0.3808
 6459TIP3    H240793   3.152   3.805  15.062 -2.1265 -1.5537  0.2267
 6460TIP3   OH240794   3.584   3.899  13.989  0.0113 -0.0811 -0.3550
 6460TIP3    H140795   3.601   3.826  14.049  1.9928  0.6418 -0.0127
 6460TIP3    H240796   3.522   3.954  14.037 -0.0779 -0.5987  0.1322
 6461TIP3   OH240797   0.107   0.502   1.233 -0.2070  0.3594  0.4356
 6461TIP3    H140798   0.134   0.548   1.153 -0.6291 -1.5018 -0.8009
 6461TIP3    H240799   0.177   0.439   1.248 -1.1552 -0.7228  0.3453
 6462TIP3   OH240800   0.112   6.054   0.655  0.0455  0.0546  0.5793
 6462TIP3    H140801   0.152   6.047   0.742 -0.7644 -0.8057  0.8895
 6462TIP3    H240802   0.074   6.142   0.653 -0.8638 -0.3120  1.5038
 6463TIP3   OH240803   2.538   4.675   5.459 -0.2811 -0.4391 -0.4826
 6463TIP3    H140804   2.585   4.728   5.523  0.7982 -0.7209 -1.0328
 6463TIP3    H240805   2.462   4.641   5.507 -0.6545  1.0752  0.0537
 6464TIP3   OH240806   1.660   1.551   3.173 -0.0790 -0.0588  0.3402
 6464TIP3    H140807   1.597   1.481   3.183 -1.2630  1.2668  2.3525
 6464TIP3    H240808   1.719   1.542   3.247 -1.1978  2.0118  1.5190
 6465TIP3   OH240809   5.986   0.686   2.181  0.5028  0.1643  0.0079
 6465TIP3    H140810   5.986   0.771   2.137  2.2956  0.3468  0.2890
 6465TIP3    H240811   6.075   0.678   2.215  0.0666 -1.4096  0.8041
 6466TIP3   OH240812   5.256   0.055  11.516  0.2542 -0.1231 -0.4224
 6466TIP3    H140813   5.251   0.124  11.450  0.5866  0.7341  0.4408
 6466TIP3    H240814   5.349   0.031  11.518  0.3258  0.1878  0.0699
 6467TIP3   OH240815   2.265   2.428  14.362  0.0690 -0.9303  0.0249
 6467TIP3    H140816   2.252   2.409  14.269  0.6036 -1.8795  0.1392
 6467TIP3    H240817   2.228   2.516  14.373  1.2347 -0.2305 -1.3737
 6468TIP3   OH240818   6.139   1.568  13.411 -0.0076  0.2214 -0.2865
 6468TIP3    H140819   6.114   1.651  13.451  1.0411 -0.2970  1.5415
 6468TIP3    H240820   6.157   1.588  13.320 -0.6379  1.8285 -0.0612
 6469TIP3   OH240821   5.446   0.430  13.363  0.0040 -0.5380  0.0984
 6469TIP3    H140822   5.430   0.348  13.409 -0.3769 -1.4223 -1.5822
 6469TIP3    H240823   5.359   0.462  13.340  0.2173 -0.3057 -0.3889
 6470TIP3   OH240824   1.563   4.310  13.842 -0.5346 -0.0676  0.3111
 6470TIP3    H140825   1.527   4.275  13.761 -1.1361  0.1480  0.4795
 6470TIP3    H240826   1.487   4.346  13.888  0.2785  3.2180 -0.7272
 6471TIP3   OH240827   1.010   4.800   4.847  0.0722  0.8163 -0.5141
 6471TIP3    H140828   0.987   4.711   4.875 -1.6608  1.5040  0.3693
 6471TIP3    H240829   1.066   4.834   4.917  0.6218  0.4714 -0.7851
 6472TIP3   OH240830   2.365   2.853  14.641  0.5970  0.0485 -0.6767
 6472TIP3    H140831   2.420   2.892  14.573  1.7575 -0.5100 -0.0848
 6472TIP3    H240832   2.416   2.778  14.673  1.2017  1.6880  2.4578
 6473TIP3   OH240833   2.604   6.121   6.166  0.4902 -0.4019 -0.7589
 6473TIP3    H140834   2.642   6.039   6.196 -1.0724 -0.5852  0.7752
 6473TIP3    H240835   2.535   6.095   6.105  1.3272 -0.1433 -1.8349
 6474TIP3   OH240836   4.958   4.231   5.797 -0.5738  0.1442 -0.4918
 6474TIP3    H140837   5.015   4.240   5.721 -0.2666  0.7029 -0.2062
 6474TIP3    H240838   4.947   4.321   5.828 -1.4245  0.0163 -0.4066
 6475TIP3   OH240839   4.871   0.628   3.768 -0.4555  0.0407 -0.1097
 6475TIP3    H140840   4.835   0.586   3.690 -0.3421  1.7873 -1.1374
 6475TIP3    H240841   4.936   0.567   3.801 -1.3582 -1.2604 -0.6737
 6476TIP3   OH240842   3.413   3.526  12.516  0.4319 -0.1914  0.4705
 6476TIP3    H140843   3.370   3.559  12.595 -1.6684 -1.3584 -0.1415
 6476TIP3    H240844   3.481   3.590  12.497 -1.0823  1.7638  1.4473
 6477TIP3   OH240845   0.204   4.352   2.803 -0.2951  0.2383  0.0976
 6477TIP3    H140846   0.152   4.280   2.768 -2.2422  0.9894  1.3389
 6477TIP3    H240847   0.216   4.411   2.729  0.4050 -0.8277 -0.6568
 6478TIP3   OH240848   4.858   4.185   1.527  0.0549 -0.6687  0.4220
 6478TIP3    H140849   4.762   4.181   1.523 -0.0110  0.9736 -0.3687
 6478TIP3    H240850   4.884   4.196   1.435  1.0363 -1.5983  0.5851
 6479TIP3   OH240851   0.693   1.890  12.910 -0.0433 -0.0474  0.0497
 6479TIP3    H140852   0.757   1.912  12.977  0.7186 -0.1076 -0.6437
 6479TIP3    H240853   0.609   1.894  12.954  0.2532  2.1007  0.4613
 6480TIP3   OH240854   2.622   0.279  16.779 -0.5203 -0.1045  0.2882
 6480TIP3    H140855   2.683   0.206  16.773  0.9660  1.1880 -0.8320
 6480TIP3    H240856   2.661   0.337  16.846 -0.6414  0.6006 -0.2434
 6481TIP3   OH240857   6.597   0.574  12.435  0.0632  0.1716 -0.0222
 6481TIP3    H140858   6.516   0.524  12.433  0.2238 -0.1054  0.3475
 6481TIP3    H240859   6.661   0.520  12.388  0.3033 -0.0931  0.6037
 6482TIP3   OH240860   4.455   1.161  16.607  0.1248  0.0959  0.7326
 6482TIP3    H140861   4.462   1.138  16.700  1.0235  0.4879  0.7546
 6482TIP3    H240862   4.462   1.077  16.562  2.8728  0.2346  0.8540
 6483TIP3   OH240863   1.061   5.054  17.234  0.0295  0.2652  0.0762
 6483TIP3    H140864   1.023   5.137  17.263 -1.2796 -0.4453  0.4548
 6483TIP3    H240865   1.094   5.013  17.315  2.9184  1.5015 -0.4334
 6484TIP3   OH240866   1.171   0.102   4.417 -0.0327  0.1869  0.5310
 6484TIP3    H140867   1.260   0.086   4.386 -0.4905 -2.9233  0.6688
 6484TIP3    H240868   1.130   0.153   4.347  1.0384 -0.7746 -0.8249
 6485TIP3   OH240869   1.930   5.276  10.390  0.3479 -0.7293 -0.4578
 6485TIP3    H140870   2.018   5.283  10.426  0.4190 -2.6893 -0.1805
 6485TIP3    H240871   1.932   5.196  10.338 -1.0334 -0.3333 -1.1563
 6486TIP3   OH240872   0.033   0.451   3.639  0.0889 -0.1753 -0.1191
 6486TIP3    H140873   0.035   0.388   3.712 -0.7644 -0.4165 -0.2958
 6486TIP3    H240874   0.030   0.537   3.681 -2.5470 -0.3710  0.1687
 6487TIP3   OH240875   3.083   5.395   0.805  0.0958 -0.5151 -0.1292
 6487TIP3    H140876   2.992   5.405   0.834  0.9061  1.5633  1.8743
 6487TIP3    H240877   3.079   5.407   0.710 -1.5697  0.9185  0.0914
 6488TIP3   OH240878   6.615   4.550   6.203 -0.9935  0.4498  0.2116
 6488TIP3    H140879   6.707   4.574   6.216 -0.4397 -2.6580  2.6198
 6488TIP3    H240880   6.570   4.586   6.280 -1.4050  0.0601  0.1547
 6489TIP3   OH240881   0.537   3.368  11.838  0.1350  0.1421  0.0855
 6489TIP3    H140882   0.578   3.317  11.908 -2.6414 -0.8571  1.0417
 6489TIP3    H240883   0.488   3.436  11.883 -1.0021  0.0055 -0.9082
 6490TIP3   OH240884   5.174   4.137   5.448 -0.0720  0.3942 -1.1420
 6490TIP3    H140885   5.163   4.184   5.366  0.8278 -1.6844 -2.4895
 6490TIP3    H240886   5.120   4.059   5.438  1.5748 -0.8401 -0.5384
 6491TIP3   OH240887   0.121   0.314  11.393 -1.1519  0.2190  0.0662
 6491TIP3    H140888   0.155   0.298  11.305 -0.4277 -0.8443  0.5422
 6491TIP3    H240889   0.121   0.410  11.401  1.7892  0.2479  0.0824
 6492TIP3   OH240890   6.057   3.105   6.378 -0.0671 -0.3318  0.3186
 6492TIP3    H140891   6.134   3.154   6.349  0.2606  0.3442  2.2476
 6492TIP3    H240892   5.995   3.173   6.407 -0.6801 -0.9501  0.4756
 6493TIP3   OH240893   4.831   0.098   2.705  0.3476  0.4306 -0.0222
 6493TIP3    H140894   4.818   0.112   2.799 -0.9377  0.7095 -0.2408
 6493TIP3    H240895   4.747   0.065   2.673  1.1390 -0.8343 -0.8605
 6494TIP3   OH240896   0.373   3.156   1.317  0.4293 -0.9684  0.6548
 6494TIP3    H140897   0.407   3.221   1.379  1.4964 -0.4127 -0.4794
 6494TIP3    H240898   0.426   3.078   1.332 -0.3787 -1.3598  1.5278
 6495TIP3   OH240899   0.090   0.857  12.439 -0.2729  0.0281 -0.4195
 6495TIP3    H140900   0.088   0.947  12.471 -1.0605  0.1631 -0.8227
 6495TIP3    H240901   0.156   0.858  12.369 -0.2395  0.2790 -0.3867
 6496TIP3   OH240902   0.200   6.053   0.899 -0.0694  0.1045  0.1101
 6496TIP3    H140903   0.275   6.028   0.952  1.0810  3.7149  0.3142
 6496TIP3    H240904   0.145   6.104   0.959 -1.5851 -0.6202 -0.6431
 6497TIP3   OH240905   6.122   0.148  11.260 -0.2349 -0.2216 -0.2473
 6497TIP3    H140906   6.071   0.224  11.287  0.8997  0.6724 -0.5866
 6497TIP3    H240907   6.060   0.095  11.210 -1.2007  0.1683  0.4996
 6498TIP3   OH240908   0.784   1.587   6.772  0.1787  0.5463 -0.4500
 6498TIP3    H140909   0.857   1.646   6.789  1.9190 -0.6079 -3.6598
 6498TIP3    H240910   0.731   1.632   6.706  0.4340 -0.5889 -1.4400
 6499TIP3   OH240911   2.189   6.317   0.454 -0.2410  0.5728  0.8751
 6499TIP3    H140912   2.169   6.279   0.540 -1.0981 -0.8852  0.0425
 6499TIP3    H240913   2.203   6.242   0.397 -0.2589  1.5350 -0.4152
 6500TIP3   OH240914   2.724   1.108   3.108  0.3488 -0.3843 -0.0444
 6500TIP3    H140915   2.715   1.132   3.200  2.0914  0.9063 -0.1822
 6500TIP3    H240916   2.794   1.164   3.076  0.7016 -1.8047 -1.8076
 6501TIP3   OH240917   6.713   0.910   5.642  0.3669  0.0657  0.2665
 6501TIP3    H140918   6.669   0.980   5.594  0.8841  0.6917  0.6996
 6501TIP3    H240919   6.658   0.897   5.720 -0.2982 -0.7341 -0.3140
 6502TIP3   OH240920   1.802   2.883  14.705 -0.3434  0.4903  0.1201
 6502TIP3    H140921   1.857   2.938  14.649 -0.9646 -0.2683 -1.2781
 6502TIP3    H240922   1.714   2.919  14.694 -0.2457  1.2952  1.8405
 6503TIP3   OH240923   5.334   6.375  12.256 -0.6371  0.6019 -0.4216
 6503TIP3    H140924   5.273   6.354  12.185 -2.6170  0.4781  1.2545
 6503TIP3    H240925   5.312   6.313  12.326  0.5025  1.4315  0.6965
 6504TIP3   OH240926   0.523   3.085   2.149 -0.1978  0.0547 -0.0013
 6504TIP3    H140927   0.545   3.160   2.093  2.7786 -1.6234 -1.2278
 6504TIP3    H240928   0.608   3.052   2.179 -1.4760 -2.3511  1.1525
 6505TIP3   OH240929   1.369   5.739   1.443 -0.2145 -0.0216  0.4089
 6505TIP3    H140930   1.304   5.708   1.380  0.4233 -0.9036  0.1697
 6505TIP3    H240931   1.330   5.818   1.481 -1.3893 -0.5099  0.2368
 6506TIP3   OH240932   1.362   5.441   1.864  0.1123 -0.2687  0.0730
 6506TIP3    H140933   1.278   5.438   1.909 -0.1133  0.7355 -0.2638
 6506TIP3    H240934   1.354   5.381   1.791 -0.1771 -0.4675  0.2689
 6507TIP3   OH240935   6.197   1.709  10.872 -0.2506 -0.2087  0.1846
 6507TIP3    H140936   6.258   1.638  10.888 -0.0801 -0.3880 -1.2010
 6507TIP3    H240937   6.142   1.678  10.800  0.0881  1.2140 -0.7117
 6508TIP3   OH240938   2.098   0.928   1.325 -0.6821 -0.2205 -0.2133
 6508TIP3    H140939   2.120   0.950   1.416  0.1236  0.3376 -0.5402
 6508TIP3    H240940   2.116   0.835   1.318 -1.2090 -0.3679  0.3329
 6509TIP3   OH240941   2.357   3.406   5.567  0.0704 -0.4610 -0.3919
 6509TIP3    H140942   2.362   3.312   5.546 -0.5454 -1.2721  2.9050
 6509TIP3    H240943   2.270   3.418   5.605  0.6974  1.1361  0.5906
 6510TIP3   OH240944   2.512   0.238  16.515 -0.1931  0.6109 -0.4734
 6510TIP3    H140945   2.537   0.292  16.590  1.1832  0.6106 -0.9218
 6510TIP3    H240946   2.516   0.149  16.548  1.1222  0.5623 -0.7238
 6511TIP3   OH240947   5.852   3.837   5.676  0.2911 -0.0786  0.4694
 6511TIP3    H140948   5.854   3.918   5.626  2.0057  0.4760  1.3987
 6511TIP3    H240949   5.816   3.861   5.761 -0.8401 -0.6514  0.1672
 6512TIP3   OH240950   4.665   4.903   6.675 -0.1902  0.4809  0.5606
 6512TIP3    H140951   4.612   4.904   6.755  1.1658  0.7780  1.4779
 6512TIP3    H240952   4.653   4.815   6.639 -1.9354  0.8070  0.3079
 6513TIP3   OH240953   0.338   2.117   0.310  0.6054  0.1847 -0.1813
 6513TIP3    H140954   0.364   2.051   0.374  0.6147 -1.1382 -1.5297
 6513TIP3    H240955   0.245   2.132   0.327  0.5933 -0.2043  0.0960
 6514TIP3   OH240956   1.976   0.652   2.384  0.1752  0.5550  0.2147
 6514TIP3    H140957   2.032   0.636   2.307 -0.7912 -0.7483 -0.2349
 6514TIP3    H240958   1.890   0.619   2.358  0.1606 -1.2137  2.3723
 6515TIP3   OH240959   0.124   4.799  11.668 -0.2223 -0.9878 -0.0699
 6515TIP3    H140960   0.175   4.810  11.588 -0.9809 -0.0262 -0.4323
 6515TIP3    H240961   0.143   4.878  11.719 -1.0977 -0.7748 -0.0697
 6516TIP3   OH240962   5.277   6.732  16.888 -0.4771  0.1138 -0.2882
 6516TIP3    H140963   5.234   6.700  16.809 -1.7876 -1.1836  0.9233
 6516TIP3    H240964   5.331   6.658  16.917 -1.7697 -0.2483  1.2768
 6517TIP3   OH240965   1.638   1.916  11.552  0.0111 -0.9311 -0.0106
 6517TIP3    H140966   1.667   2.005  11.570  0.6875 -1.1719  0.1187
 6517TIP3    H240967   1.623   1.914  11.457 -2.0101 -0.1119  0.2576
 6518TIP3   OH240968   0.833   5.605   4.355  0.5803  1.2496 -0.1950
 6518TIP3    H140969   0.796   5.635   4.271 -0.6818 -2.4052 -1.0231
 6518TIP3    H240970   0.785   5.656   4.420 -0.3949  2.1572 -1.5735
 6519TIP3   OH240971   2.449   3.213   2.649 -0.7407  0.3686  0.8050
 6519TIP3    H140972   2.461   3.197   2.555 -0.2494 -0.3168  0.9777
 6519TIP3    H240973   2.399   3.295   2.654 -1.0397  0.2397 -0.0592
 6520TIP3   OH240974   4.915   6.571   1.269 -0.9393 -0.1085  0.0391
 6520TIP3    H140975   5.006   6.588   1.241 -1.2643 -0.6064 -1.3842
 6520TIP3    H240976   4.921   6.492   1.322 -0.5177 -0.0876  0.0252
 6521TIP3   OH240977   6.611   0.241   0.208 -0.3681  0.0866  0.3735
 6521TIP3    H140978   6.566   0.183   0.147 -0.0237  0.0858  0.1221
 6521TIP3    H240979   6.698   0.201   0.219 -0.0073  0.7512 -0.0695
 6522TIP3   OH240980   6.569   6.616  12.489  1.0556  0.3994 -0.5515
 6522TIP3    H140981   6.497   6.576  12.538 -0.1209 -0.3471 -2.8114
 6522TIP3    H240982   6.556   6.710  12.501  2.6684  0.2303  3.1518
 6523TIP3   OH240983   0.529   0.902   2.458  0.1428  0.6180  0.0115
 6523TIP3    H140984   0.577   0.965   2.404  3.7198 -0.6963  1.4984
 6523TIP3    H240985   0.536   0.936   2.547 -0.5035 -0.3251  0.4329
 6524TIP3   OH240986   1.235   4.682   1.567  0.2025  0.3889  0.5422
 6524TIP3    H140987   1.239   4.604   1.621 -0.2301  0.2182  0.3272
 6524TIP3    H240988   1.156   4.728   1.597 -1.0124 -0.5715 -1.1180
 6525TIP3   OH240989   3.437   5.889   2.272  0.1174 -0.3865  0.3496
 6525TIP3    H140990   3.499   5.941   2.222 -0.1446 -0.7590 -0.3662
 6525TIP3    H240991   3.379   5.850   2.206  0.1137 -1.3226  0.8956
 6526TIP3   OH240992   0.673   4.683   4.558  0.7815 -0.0742 -0.3286
 6526TIP3    H140993   0.700   4.719   4.643  0.1424  0.0065 -0.1548
 6526TIP3    H240994   0.716   4.598   4.554 -0.9421 -1.0532  1.0728
 6527TIP3   OH240995   5.927   3.156  12.186  0.1092 -0.1569 -0.3300
 6527TIP3    H140996   5.953   3.241  12.222  1.4354 -0.7110  0.0355
 6527TIP3    H240997   5.831   3.155  12.196  0.3881 -0.2015  2.9970
 6528TIP3   OH240998   1.287   6.213  12.906  0.5973 -0.0338 -0.6343
 6528TIP3    H140999   1.335   6.263  12.840  1.2705 -0.9129 -0.8328
 6528TIP3    H241000   1.224   6.161  12.856  0.6623 -0.2130 -0.5311
 6529TIP3   OH241001   4.054   5.643  12.507  0.0572 -0.2451 -0.4086
 6529TIP3    H141002   4.146   5.648  12.532 -0.3598  0.6892  0.9975
 6529TIP3    H241003   4.054   5.642  12.411  1.4952  0.3235 -0.4138
 6530TIP3   OH241004   3.324   4.216  13.857  0.9262  0.0676  0.0221
 6530TIP3    H141005   3.378   4.138  13.868  1.1707 -0.0347 -1.7882
 6530TIP3    H241006   3.348   4.272  13.932  1.0514 -1.3911  1.1028
 6531TIP3   OH241007   2.808   1.771   0.881  0.5063 -0.0345 -0.5362
 6531TIP3    H141008   2.795   1.691   0.932  1.1598  1.5246  2.1557
 6531TIP3    H241009   2.721   1.807   0.869  0.5158  0.7001  1.3926
 6532TIP3   OH241010   0.796   5.997  15.765  0.3033 -0.1880 -0.1625
 6532TIP3    H141011   0.726   5.947  15.807 -1.5412  1.7057 -0.8920
 6532TIP3    H241012   0.812   6.070  15.824 -0.2542  0.8905 -1.3425
 6533TIP3   OH241013   2.322   4.008  16.341 -0.2679  0.6178  0.6850
 6533TIP3    H141014   2.402   4.037  16.297  0.1059 -0.1983  0.8222
 6533TIP3    H241015   2.264   3.981  16.269  0.7871 -1.8492  0.7276
 6534TIP3   OH241016   6.633   3.278  11.148 -0.0021  0.2213  0.9001
 6534TIP3    H141017   6.585   3.196  11.131  0.9646  0.2484 -2.4150
 6534TIP3    H241018   6.617   3.296  11.240 -1.8549 -2.6746  1.2395
 6535TIP3   OH241019   1.745   2.112   1.195  0.3361 -0.0788 -0.2414
 6535TIP3    H141020   1.697   2.179   1.244  3.1010  2.2172 -0.5527
 6535TIP3    H241021   1.736   2.139   1.104 -0.8796 -1.7275 -0.6175
 6536TIP3   OH241022   4.959   5.794   1.572  0.0854 -0.0673 -0.2566
 6536TIP3    H141023   5.021   5.729   1.537  0.0302 -1.3575  1.9670
 6536TIP3    H241024   4.881   5.784   1.517  1.1342  0.1773 -1.8060
 6537TIP3   OH241025   1.882   2.028  12.152 -0.2334  0.0449 -0.6969
 6537TIP3    H141026   1.975   2.051  12.161 -0.3958  0.4783 -0.1241
 6537TIP3    H241027   1.845   2.044  12.238 -0.5675 -1.3857 -0.5624
 6538TIP3   OH241028   3.613   4.181  16.990  0.9050 -0.0795 -0.6939
 6538TIP3    H141029   3.687   4.241  17.000 -0.1325  1.2100 -0.6684
 6538TIP3    H241030   3.645   4.098  17.025  2.9207  0.0003 -2.2926
 6539TIP3   OH241031   4.157   1.313  17.017  0.1423 -0.0634 -0.2974
 6539TIP3    H141032   4.129   1.370  16.946 -0.9761  0.7556  0.7721
 6539TIP3    H241033   4.232   1.357  17.056 -0.5701  0.5739  0.3735
 6540TIP3   OH241034   2.563   2.528  15.553 -0.0527  0.0645 -0.3653
 6540TIP3    H141035   2.630   2.530  15.484 -1.4789  2.6663 -1.7532
 6540TIP3    H241036   2.483   2.503  15.508 -0.7533  0.5862  0.5915
 6541TIP3   OH241037   4.630   4.487  14.518 -0.2045  0.4607 -0.4156
 6541TIP3    H141038   4.581   4.569  14.526 -1.9734 -0.6393  0.3406
 6541TIP3    H241039   4.618   4.461  14.427 -0.8711  0.2875 -0.2785
 6542TIP3   OH241040   5.881   4.701   4.819 -0.6011  0.7763 -1.1251
 6542TIP3    H141041   5.796   4.744   4.808 -0.6995  1.0888  0.5872
 6542TIP3    H241042   5.878   4.625   4.761 -3.0113 -0.5873  0.6854
 6543TIP3   OH241043   2.419   0.610  13.368 -1.0486  0.3710 -0.2506
 6543TIP3    H141044   2.418   0.534  13.426 -0.0784  0.2379 -0.3930
 6543TIP3    H241045   2.347   0.665  13.399  0.3025  0.9642  2.0150
 6544TIP3   OH241046   2.330   2.734   2.664 -0.4850  0.3711  0.3267
 6544TIP3    H141047   2.361   2.796   2.730 -0.4057 -0.0527  0.6894
 6544TIP3    H241048   2.380   2.655   2.680 -0.1432  0.4030 -0.5298
 6545TIP3   OH241049   4.767   1.654  11.276  0.0530 -0.0164 -0.3170
 6545TIP3    H141050   4.832   1.649  11.206 -1.1108 -0.9408 -1.3556
 6545TIP3    H241051   4.715   1.574  11.267 -0.5038  0.1403  1.2338
 6546TIP3   OH241052   1.729   1.522   3.428 -0.0207  0.2338  0.1724
 6546TIP3    H141053   1.810   1.534   3.478  0.3462 -1.1539 -0.0735
 6546TIP3    H241054   1.668   1.585   3.466  0.3612 -0.5474  2.1247
 6547TIP3   OH241055   0.717   0.606   0.091  0.5509  0.3802  0.4533
 6547TIP3    H141056   0.686   0.543   0.156 -0.1269 -0.8350 -1.0193
 6547TIP3    H241057   0.637   0.643   0.053  0.9301  0.1807 -0.5519
 6548TIP3   OH241058   3.330   3.816   3.806 -0.4138  0.0805  0.1011
 6548TIP3    H141059   3.328   3.877   3.880 -0.5837  1.1998 -0.8171
 6548TIP3    H241060   3.239   3.804   3.782 -0.4753 -1.5476  1.0807
 6549TIP3   OH241061   6.363   3.686  12.516 -0.2304 -0.3299 -0.0404
 6549TIP3    H141062   6.411   3.715  12.594 -0.0323 -0.4801 -0.1051
 6549TIP3    H241063   6.404   3.603  12.492 -1.5324 -1.2113  0.7826
 6550TIP3   OH241064   1.288   5.094   3.888 -0.6456 -0.4917 -0.0232
 6550TIP3    H141065   1.247   5.037   3.824  0.0687 -0.7611 -0.2440
 6550TIP3    H241066   1.287   5.181   3.847 -0.0358 -0.6960 -0.4623
 6551TIP3   OH241067   5.113   0.460  11.394 -0.8506 -0.0136  0.2998
 6551TIP3    H141068   5.039   0.411  11.431 -0.4157 -0.4719  0.5832
 6551TIP3    H241069   5.075   0.542  11.363 -1.5955 -0.5317 -0.1804
 6552TIP3   OH241070   2.163   6.336  14.852  0.2422 -0.1939  0.1512
 6552TIP3    H141071   2.211   6.264  14.894  0.1876 -0.8678 -0.9197
 6552TIP3    H241072   2.086   6.294  14.813 -0.7504  0.7383  1.0621
 6553TIP3   OH241073   0.826   1.292  14.104  0.7332 -0.2517  0.3864
 6553TIP3    H141074   0.841   1.353  14.177 -1.0730 -1.7318  2.0558
 6553TIP3    H241075   0.876   1.328  14.032  2.7618  1.1754  2.4246
 6554TIP3   OH241076   2.649   5.876  16.459  0.5202 -0.2937 -0.7086
 6554TIP3    H141077   2.576   5.924  16.419  1.5801  1.6184 -0.4191
 6554TIP3    H241078   2.717   5.875  16.391  1.1499  0.1835 -0.1000
 6555TIP3   OH241079   5.611   2.600   5.722 -0.2168  0.2387  0.0974
 6555TIP3    H141080   5.655   2.558   5.796 -1.8893  0.7118  1.3967
 6555TIP3    H241081   5.607   2.693   5.746 -0.6661  0.4141 -0.6358
 6556TIP3   OH241082   5.617   2.669  14.903 -0.1249  0.1259 -0.6339
 6556TIP3    H141083   5.669   2.621  14.967 -0.3363  0.8086  0.0600
 6556TIP3    H241084   5.568   2.733  14.955 -1.0675  0.0124 -1.3589
 6557TIP3   OH241085   4.560   3.436  15.951  0.1024 -0.4671 -0.0761
 6557TIP3    H141086   4.567   3.352  15.906 -0.1894 -0.6350  0.1894
 6557TIP3    H241087   4.520   3.415  16.036  0.5502 -0.1421  0.2191
 6558TIP3   OH241088   0.809   2.570   5.606 -0.1140 -0.2541  0.1583
 6558TIP3    H141089   0.729   2.607   5.643 -0.1395 -1.6480  1.5554
 6558TIP3    H241090   0.783   2.483   5.575  0.9306 -0.8783  0.9866
 6559TIP3   OH241091   4.852   5.824   0.009 -0.2640 -0.3205  0.8023
 6559TIP3    H141092   4.814   5.864   0.087  0.9187 -1.2050  1.8358
 6559TIP3    H241093   4.870   5.734   0.034  2.4013  0.0356  0.3199
 6560TIP3   OH241094   1.293   5.557   3.880  0.6187 -0.4007 -0.1822
 6560TIP3    H141095   1.331   5.529   3.963 -1.2040 -0.2311  0.7481
 6560TIP3    H241096   1.336   5.640   3.861 -0.8653  0.9427  2.0308
 6561TIP3   OH241097   4.704   3.197  12.172 -0.1483 -0.0734  0.0983
 6561TIP3    H141098   4.787   3.228  12.135  1.1494 -2.5520  0.8128
 6561TIP3    H241099   4.674   3.130  12.111 -1.5635  0.6793 -0.0542
 6562TIP3   OH241100   2.328   3.429  13.814 -0.3427  0.6139 -0.7133
 6562TIP3    H141101   2.248   3.444  13.765 -1.2002  1.7756  1.0063
 6562TIP3    H241102   2.349   3.513  13.854 -0.2736 -0.5577  1.7787
 6563TIP3   OH241103   4.731   0.233   4.463  0.0085  0.1754 -0.4452
 6563TIP3    H141104   4.697   0.301   4.521 -2.6008 -1.4419  0.0244
 6563TIP3    H241105   4.781   0.175   4.520 -1.7258 -0.8650  0.0589
 6564TIP3   OH241106   2.779   4.018   5.829  0.6568 -0.0425 -0.1592
 6564TIP3    H141107   2.843   4.087   5.812  0.5882  0.0769  0.0591
 6564TIP3    H241108   2.702   4.065   5.863  0.2181 -0.1229 -1.0343
 6565TIP3   OH241109   1.305   1.734  13.196 -0.1129 -0.2091 -0.0787
 6565TIP3    H141110   1.294   1.816  13.148 -1.0495 -0.3507 -0.1133
 6565TIP3    H241111   1.391   1.702  13.169  0.2440  0.7496 -0.0783
 6566TIP3   OH241112   0.370   4.617   5.659 -0.5080  0.2670 -0.1995
 6566TIP3    H141113   0.458   4.596   5.628  0.5293  1.1944  2.0267
 6566TIP3    H241114   0.355   4.557   5.731 -0.8132  1.5605  0.8336
 6567TIP3   OH241115   6.082   5.183  13.766 -0.4666  0.6463  0.2082
 6567TIP3    H141116   6.011   5.122  13.786 -0.5371  0.7090  0.1541
 6567TIP3    H241117   6.044   5.241  13.699  0.9158 -1.7422 -2.7679
 6568TIP3   OH241118   1.217   6.590  14.621  0.5230 -0.3612  0.1722
 6568TIP3    H141119   1.157   6.656  14.586 -0.2654 -1.3688 -0.4055
 6568TIP3    H241120   1.173   6.555  14.699 -0.2227 -1.9629 -0.9386
 6569TIP3   OH241121   2.125   3.267  15.007 -0.4941 -0.3249 -0.0667
 6569TIP3    H141122   2.050   3.207  15.009 -0.8478 -0.0539 -2.8730
 6569TIP3    H241123   2.090   3.349  15.041 -1.3560 -0.3536 -0.8391
 6570TIP3   OH241124   0.478   0.786  15.658  0.0875 -0.0462  0.2902
 6570TIP3    H141125   0.555   0.751  15.613 -0.4042 -0.7167 -0.0369
 6570TIP3    H241126   0.500   0.877  15.675  1.3247 -0.4584  1.0024
 6571TIP3   OH241127   3.269   2.173  14.460  0.8830 -0.3514  0.1580
 6571TIP3    H141128   3.234   2.090  14.428  0.3945 -0.5082  1.0499
 6571TIP3    H241129   3.194   2.232  14.460  1.8093  0.8890 -3.0232
 6572TIP3   OH241130   3.743   2.696   5.009  0.2015  0.2389  0.2001
 6572TIP3    H141131   3.676   2.688   4.941  0.5257  2.0523 -0.3786
 6572TIP3    H241132   3.811   2.750   4.968  1.1981 -0.1076  1.3878
 6573TIP3   OH241133   5.252   1.161  13.318  0.7566 -0.6117 -0.0264
 6573TIP3    H141134   5.183   1.186  13.380  0.8480 -1.4251  0.4135
 6573TIP3    H241135   5.304   1.098  13.366 -0.0026 -2.3415 -1.4346
 6574TIP3   OH241136   2.375   0.926   5.850 -0.5783 -0.4596 -0.5395
 6574TIP3    H141137   2.361   1.006   5.902 -0.2696  0.1358 -1.3643
 6574TIP3    H241138   2.455   0.943   5.802 -0.2496 -1.4781 -0.3522
 6575TIP3   OH241139   3.444   4.363  12.038 -0.3562  0.5315  1.0643
 6575TIP3    H141140   3.526   4.411  12.026 -1.2537  2.2389  1.5900
 6575TIP3    H241141   3.427   4.368  12.132 -0.3632 -1.0272  1.1684
 6576TIP3   OH241142   0.108   0.234   1.079 -0.1516 -0.8268 -0.4463
 6576TIP3    H141143   0.182   0.259   1.134  0.3247  0.5021 -1.6569
 6576TIP3    H241144   0.045   0.194   1.139 -0.2699  1.9094  1.3375
 6577TIP3   OH241145   0.506   5.043  15.474 -0.3948 -0.6387  0.2882
 6577TIP3    H141146   0.428   5.015  15.521  0.9636 -1.5108  2.0981
 6577TIP3    H241147   0.510   5.137  15.488 -1.1910 -0.5690  0.0608
 6578TIP3   OH241148   2.393   3.225  12.048  0.1932  0.6846  0.1884
 6578TIP3    H141149   2.354   3.141  12.025 -0.4772  0.8115  0.8490
 6578TIP3    H241150   2.487   3.207  12.053  0.1685  0.2500 -0.8142
 6579TIP3   OH241151   5.927   4.059  15.359 -0.2337 -0.6715  0.0153
 6579TIP3    H141152   5.966   4.143  15.337 -1.3062  0.5324  2.4922
 6579TIP3    H241153   5.998   3.996  15.349  1.2625  0.9062  0.5106
 6580TIP3   OH241154   4.296   6.354  11.105 -0.0519 -0.1016 -0.1662
 6580TIP3    H141155   4.218   6.366  11.158  2.1502  0.9173  2.9664
 6580TIP3    H241156   4.311   6.259  11.105 -0.3989 -0.1594  0.5362
 6581TIP3   OH241157   3.563   3.385   0.888  0.2921 -0.0642  0.2891
 6581TIP3    H141158   3.516   3.415   0.810 -0.9124 -0.9672  0.6689
 6581TIP3    H241159   3.624   3.318   0.855 -1.6508 -1.9260  0.3962
 6582TIP3   OH241160   0.276   3.910   0.287 -0.2359 -0.3332  0.3331
 6582TIP3    H141161   0.295   3.817   0.281 -0.7557 -0.4788  0.9672
 6582TIP3    H241162   0.180   3.915   0.283 -0.1766  0.2406 -0.6750
 6583TIP3   OH241163   2.337   4.828   1.810  0.7396  0.8304 -0.3705
 6583TIP3    H141164   2.363   4.853   1.721 -1.9276  1.5617 -0.9992
 6583TIP3    H241165   2.323   4.733   1.806  0.0336  0.9523 -0.9154
 6584TIP3   OH241166   5.045   3.033   4.836  0.5691  0.7457 -0.0703
 6584TIP3    H141167   4.950   3.021   4.835  0.8123 -1.5628  1.1286
 6584TIP3    H241168   5.065   3.063   4.924  1.1388 -0.7414  0.3259
 6585TIP3   OH241169   4.080   6.561  13.434  0.1425 -0.3874  0.1899
 6585TIP3    H141170   4.173   6.538  13.430 -0.0139 -1.1300  0.6281
 6585TIP3    H241171   4.043   6.497  13.494 -0.6862 -0.1896 -0.1100
 6586TIP3   OH241172   2.273   3.267   3.061  0.4835  0.8465 -0.0170
 6586TIP3    H141173   2.335   3.318   3.113  0.7215  1.1277 -0.5735
 6586TIP3    H241174   2.308   3.178   3.063  1.8040  1.3147 -1.6939
 6587TIP3   OH241175   6.443   4.101  12.838  0.1348 -0.5944 -0.7333
 6587TIP3    H141176   6.463   4.017  12.878  0.0066 -1.0164 -1.5395
 6587TIP3    H241177   6.354   4.121  12.867  1.6068  1.2510  2.8068
 6588TIP3   OH241178   5.505   6.479   3.239  0.5690 -0.3133 -0.0722
 6588TIP3    H141179   5.436   6.529   3.283  0.6032  0.3945 -0.8139
 6588TIP3    H241180   5.457   6.421   3.179  0.6541  1.1083 -1.5524
 6589TIP3   OH241181   6.038   5.764   4.785  0.7841 -0.3112  0.2193
 6589TIP3    H141182   6.054   5.802   4.699 -1.0292 -0.9187 -0.3937
 6589TIP3    H241183   6.109   5.702   4.797  2.9950  2.1986  0.6326
 6590TIP3   OH241184   1.546   6.054  13.305 -0.7505  0.0505 -0.4680
 6590TIP3    H141185   1.586   6.052  13.392 -0.9453 -0.3611 -0.3899
 6590TIP3    H241186   1.452   6.042  13.321 -0.8719  0.6642 -0.6814
 6591TIP3   OH241187   2.292   0.476  15.686  0.0771  0.2064  0.3490
 6591TIP3    H141188   2.278   0.386  15.655  0.2341 -0.0063  0.8900
 6591TIP3    H241189   2.209   0.501  15.727 -0.7909  1.1915 -1.9524
 6592TIP3   OH241190   5.425   0.594  11.613  0.3915  0.1031  0.7421
 6592TIP3    H141191   5.520   0.610  11.614  0.2696  0.8569  0.7562
 6592TIP3    H241192   5.387   0.681  11.601 -0.2983 -0.2071  0.7013
 6593TIP3   OH241193   4.387   3.521  14.619 -0.9725  0.3051 -0.3144
 6593TIP3    H141194   4.360   3.611  14.634  0.7672  1.0986 -1.7582
 6593TIP3    H241195   4.476   3.516  14.654 -0.9081 -0.7466 -0.6005
 6594TIP3   OH241196   2.520   1.145   3.936  0.4491  0.1968 -0.5432
 6594TIP3    H141197   2.551   1.055   3.924  0.2183  0.2522 -1.6522
 6594TIP3    H241198   2.482   1.146   4.024  1.5222 -0.4730 -0.0614
 6595TIP3   OH241199   4.297   6.634   1.292 -0.2181 -0.0231  0.1829
 6595TIP3    H141200   4.372   6.603   1.343 -0.5781  1.1135  1.4508
 6595TIP3    H241201   4.298   6.729   1.304 -0.8850  0.1638 -1.1642
 6596TIP3   OH241202   6.357   1.696   3.881  0.5388 -0.5605 -0.0200
 6596TIP3    H141203   6.356   1.704   3.976  2.4658 -2.2958  0.1670
 6596TIP3    H241204   6.307   1.771   3.850 -0.2125 -0.0558  2.3636
 6597TIP3   OH241205   2.567   4.652   2.283  0.0883 -0.0077 -0.4162
 6597TIP3    H141206   2.555   4.568   2.238 -0.2061 -0.5236  0.5962
 6597TIP3    H241207   2.479   4.687   2.292  0.0882 -0.1736  0.2490
 6598TIP3   OH241208   1.108   2.742  17.228 -0.0322  0.7060 -0.4501
 6598TIP3    H141209   1.156   2.704  17.155 -0.0759  0.2293 -0.2306
 6598TIP3    H241210   1.150   2.705  17.306 -1.9155 -1.1501 -0.2828
 6599TIP3   OH241211   1.285   1.531  13.419 -0.1486  0.2078  0.4621
 6599TIP3    H141212   1.259   1.618  13.388  1.0999  0.0993 -0.9413
 6599TIP3    H241213   1.378   1.525  13.398 -0.4269 -1.8159 -0.3029
 6600TIP3   OH241214   0.059   2.699   0.455  0.1150  0.1278  0.2696
 6600TIP3    H141215   0.126   2.733   0.397  0.5342 -0.4608  0.3951
 6600TIP3    H241216   0.004   2.774   0.476 -0.4587  0.1903 -1.4461
 6601TIP3   OH241217   6.230   1.101   4.728 -0.2053 -0.0624  0.1931
 6601TIP3    H141218   6.157   1.057   4.684  2.6750 -1.5701 -3.3877
 6601TIP3    H241219   6.297   1.033   4.738  1.6654  1.8381  1.0921
 6602TIP3   OH241220   0.770   3.067  14.104 -0.0689 -0.2712  0.4247
 6602TIP3    H141221   0.756   3.125  14.179  1.4993  0.7161 -0.0326
 6602TIP3    H241222   0.779   2.980  14.142  0.1968  0.1498  1.3299
 6603TIP3   OH241223   5.179   2.673   1.144 -0.4961 -0.0445 -0.0382
 6603TIP3    H141224   5.146   2.681   1.055 -1.1881 -0.8477  0.1428
 6603TIP3    H241225   5.101   2.674   1.199 -0.1138 -0.2135  0.5192
 6604TIP3   OH241226   1.857   3.345  13.475 -0.3505 -0.0244 -0.1609
 6604TIP3    H141227   1.771   3.305  13.467 -0.0985 -0.2744 -1.8474
 6604TIP3    H241228   1.919   3.272  13.468  0.0230  0.2570  0.1504
 6605TIP3   OH241229   6.043   2.171   2.938 -0.0721  0.0544 -0.5062
 6605TIP3    H141230   6.074   2.237   3.000 -1.0022 -0.6068  0.7113
 6605TIP3    H241231   6.090   2.189   2.857  1.2994  0.8490  0.4422
 6606TIP3   OH241232   1.382   3.780   2.638 -0.1891 -0.2693 -0.0116
 6606TIP3    H141233   1.408   3.690   2.623 -1.9916 -0.6077 -1.3156
 6606TIP3    H241234   1.339   3.807   2.557 -3.0338  0.5064  1.6570
 6607TIP3   OH241235   0.366   2.897   1.076  0.5071 -0.0064  0.5924
 6607TIP3    H141236   0.323   2.819   1.110 -0.3906  0.7146  1.1268
 6607TIP3    H241237   0.302   2.936   1.016  1.6824 -0.7149 -1.1711
 6608TIP3   OH241238   5.971   4.881  15.316 -0.0338  0.1297 -0.1741
 6608TIP3    H141239   5.907   4.942  15.279  0.6210  1.7764  1.3491
 6608TIP3    H241240   5.934   4.856  15.401  0.4313 -0.4194 -0.1285
 6609TIP3   OH241241   2.094   3.028  17.140  0.0594  0.5065 -0.4602
 6609TIP3    H141242   2.075   3.009  17.049  1.1290  0.4215 -0.6717
 6609TIP3    H241243   2.037   2.970  17.190 -1.2928  1.3030 -1.0622
 6610TIP3   OH241244   5.225   3.973  15.515 -0.5539  0.0691 -0.4609
 6610TIP3    H141245   5.144   3.926  15.536 -1.0357  0.2528 -1.9224
 6610TIP3    H241246   5.204   4.027  15.439  0.5961  1.0643 -0.0970
 6611TIP3   OH241247   1.579   3.700  10.842 -0.0542 -0.1244  0.5810
 6611TIP3    H141248   1.598   3.660  10.927 -0.6166 -0.1316  0.7074
 6611TIP3    H241249   1.663   3.700  10.796  0.4172  0.5655  1.4238
 6612TIP3   OH241250   0.852   2.283   0.619 -0.5755  0.2395 -0.1176
 6612TIP3    H141251   0.842   2.366   0.666 -1.6527  0.1845 -0.2448
 6612TIP3    H241252   0.823   2.303   0.530 -0.2120 -0.1098 -0.3149
 6613TIP3   OH241253   3.693   1.402  13.458 -0.5150 -0.3611 -0.3273
 6613TIP3    H141254   3.789   1.392  13.456 -0.2357  2.1996 -0.7298
 6613TIP3    H241255   3.668   1.375  13.546  0.4275 -2.1110 -0.5659
 6614TIP3   OH241256   4.566   1.782  11.932  0.5206  0.3497  0.2930
 6614TIP3    H141257   4.578   1.827  11.848  1.0592  2.0305  1.2604
 6614TIP3    H241258   4.539   1.850  11.993 -0.1774 -0.9199  1.4345
 6615TIP3   OH241259   6.240   5.273  16.316  0.1533 -0.2217 -0.3390
 6615TIP3    H141260   6.317   5.229  16.351  0.3185  0.3408  0.0110
 6615TIP3    H241261   6.215   5.221  16.239 -1.3885 -2.6603  1.7242
 6616TIP3   OH241262   5.283   2.626  13.203  0.5085 -0.2696 -0.3782
 6616TIP3    H141263   5.289   2.651  13.295  0.3644 -0.8633 -0.2084
 6616TIP3    H241264   5.372   2.639  13.169  0.2826  1.1361 -0.4661
 6617TIP3   OH241265   4.254   2.140  10.206 -0.4845  0.4445  0.0224
 6617TIP3    H141266   4.197   2.131  10.283 -2.7550  2.2485 -1.3757
 6617TIP3    H241267   4.193   2.156  10.134  1.6810 -0.3143 -1.9940
 6618TIP3   OH241268   6.725   1.704  14.017 -0.1469  0.4030  0.1018
 6618TIP3    H141269   6.664   1.770  13.985  0.5538 -0.6248 -3.5937
 6618TIP3    H241270   6.812   1.742  14.003  0.1950 -0.0193  0.9881
 6619TIP3   OH241271   3.204   6.693  14.216  0.2399  0.1056 -0.3044
 6619TIP3    H141272   3.226   6.761  14.278  0.7801 -1.3600  1.1456
 6619TIP3    H241273   3.113   6.711  14.191  0.1204  0.8872  0.6809
 6620TIP3   OH241274   0.833   4.860   2.893 -0.4266  0.1564  0.2225
 6620TIP3    H141275   0.906   4.901   2.846 -0.2135 -0.9732 -0.4672
 6620TIP3    H241276   0.764   4.925   2.892  0.9032  1.6349  1.7724
 6621TIP3   OH241277   3.885   3.253  16.086 -0.2860 -0.1717 -0.2714
 6621TIP3    H141278   3.967   3.220  16.122 -0.7551  0.4531  1.4243
 6621TIP3    H241279   3.849   3.179  16.037  0.1696 -1.1978  0.9123
 6622TIP3   OH241280   5.930   1.143  14.410 -0.2887  0.4149 -0.1205
 6622TIP3    H141281   6.011   1.131  14.361 -0.9091 -0.8997 -0.8438
 6622TIP3    H241282   5.958   1.181  14.494  1.3989 -2.7699  0.8093
 6623TIP3   OH241283   5.939   6.150   1.831  0.0377  0.0796  0.0363
 6623TIP3    H141284   6.029   6.141   1.797  0.7359 -0.2571  1.8999
 6623TIP3    H241285   5.902   6.063   1.823  0.8830 -0.4960  1.9036
 6624TIP3   OH241286   1.180   0.030   0.697 -0.0325  0.3508  0.0457
 6624TIP3    H141287   1.269   0.053   0.726  0.6369 -1.0448 -0.8482
 6624TIP3    H241288   1.147  -0.028   0.765  0.8794 -1.5215 -1.0819
 6625TIP3   OH241289   5.529   0.240   1.848  0.7012 -0.0917  0.2523
 6625TIP3    H141290   5.576   0.295   1.786  1.2208 -0.4048  0.3632
 6625TIP3    H241291   5.458   0.296   1.881  2.1305  1.0412  1.5083
 6626TIP3   OH241292   0.541   0.819   5.924  0.6418  0.3495 -0.4720
 6626TIP3    H141293   0.576   0.897   5.967 -0.4564  1.2888 -1.2541
 6626TIP3    H241294   0.495   0.772   5.993 -0.7349  1.6237 -0.4983
 6627TIP3   OH241295   0.246   0.128  13.130 -0.3741  0.7199 -0.0333
 6627TIP3    H141296   0.270   0.190  13.061 -0.5644  0.0762 -0.6886
 6627TIP3    H241297   0.156   0.103  13.109  0.3157 -1.1752 -0.8615
 6628TIP3   OH241298   0.085   2.861  13.396 -0.2570 -0.4703  0.2895
 6628TIP3    H141299   0.114   2.770  13.384  1.2571  0.2307 -1.6805
 6628TIP3    H241300   0.102   2.879  13.489 -0.4282 -2.1423  0.6639
 6629TIP3   OH241301   0.820   5.239   0.004 -0.0667  0.3267  0.2935
 6629TIP3    H141302   0.743   5.269  -0.045 -0.3104  0.5443  0.8012
 6629TIP3    H241303   0.885   5.309  -0.008  0.0877  0.0942 -0.2211
 6630TIP3   OH241304   1.778   5.653   2.291 -0.6744  0.3143 -0.1723
 6630TIP3    H141305   1.867   5.689   2.296 -0.6219  0.1415  0.2308
 6630TIP3    H241306   1.790   5.558   2.304 -1.0246  0.4286  1.0863
 6631TIP3   OH241307   6.000   6.673   5.416  0.2290 -0.8359  0.2063
 6631TIP3    H141308   5.933   6.733   5.386  1.5534 -1.1664 -3.6934
 6631TIP3    H241309   6.061   6.728   5.465  1.2830  1.0377 -3.0783
 6632TIP3   OH241310   6.558   0.613  12.945 -0.4251 -0.6280 -0.0318
 6632TIP3    H141311   6.622   0.553  12.984  0.7448  0.4466 -0.2443
 6632TIP3    H241312   6.607   0.657  12.875 -1.7816 -0.7159 -1.0497
 6633TIP3   OH241313   6.365   5.529  12.387  0.4106 -0.0500 -0.3588
 6633TIP3    H141314   6.372   5.452  12.331  0.0029  1.4463 -2.5369
 6633TIP3    H241315   6.427   5.513  12.458  2.9116 -0.8431 -2.6348
 6634TIP3   OH241316   4.656   5.895   0.907  0.2202 -0.3642 -0.2949
 6634TIP3    H141317   4.690   5.978   0.873 -0.9769 -0.9712 -3.1892
 6634TIP3    H241318   4.570   5.887   0.867 -0.2242 -2.3935  0.9991
 6635TIP3   OH241319   5.345   2.987   5.509  0.2890  0.1342 -0.1298
 6635TIP3    H141320   5.371   3.034   5.588 -1.4263 -0.0053  0.5465
 6635TIP3    H241321   5.273   2.930   5.537  1.0342 -1.4804 -1.3497
 6636TIP3   OH241322   3.478   3.797  16.251 -0.5491 -0.1759 -0.4891
 6636TIP3    H141323   3.398   3.821  16.202 -0.8722  1.8056  0.9446
 6636TIP3    H241324   3.445   3.764  16.335  0.0622 -2.0637 -0.9751
 6637TIP3   OH241325   1.492   4.786  14.625  0.7600  0.0547  0.3277
 6637TIP3    H141326   1.516   4.876  14.607 -0.8905  0.4154 -0.1456
 6637TIP3    H241327   1.428   4.792  14.696 -1.0646 -0.5604 -1.2229
 6638TIP3   OH241328   4.211   6.040   3.508  0.3443 -0.0239 -0.0971
 6638TIP3    H141329   4.256   6.030   3.591  0.9486  2.7613 -0.0420
 6638TIP3    H241330   4.132   6.091   3.529 -0.2451 -0.5301 -1.0114
 6639TIP3   OH241331   4.253   4.113  13.305 -0.1737 -0.1546  0.0256
 6639TIP3    H141332   4.242   4.045  13.372 -2.6648 -2.4544 -2.5568
 6639TIP3    H241333   4.324   4.082  13.250 -0.6987 -0.2348 -0.6186
 6640TIP3   OH241334   0.538   6.653   2.382 -0.1198 -0.1997  0.1546
 6640TIP3    H141335   0.577   6.725   2.432 -0.1884 -1.2254  1.7375
 6640TIP3    H241336   0.611   6.595   2.361  0.1307  0.9666 -2.2380
 6641TIP3   OH241337   4.182   5.508   5.999  0.6060  0.0338 -0.1262
 6641TIP3    H141338   4.162   5.510   5.905 -0.1009 -2.1953 -0.0601
 6641TIP3    H241339   4.099   5.529   6.041  0.5473 -0.4981  0.0231
 6642TIP3   OH241340   2.979   2.807   4.412 -0.2282 -0.0953 -0.1847
 6642TIP3    H141341   2.927   2.874   4.368  1.3441  0.1817 -1.6873
 6642TIP3    H241342   2.917   2.738   4.433 -1.2123  0.2451 -1.8622
 6643TIP3   OH241343   1.677   6.123   5.871 -0.7450  0.2572 -0.0194
 6643TIP3    H141344   1.740   6.184   5.908  0.1092 -0.8068  0.3028
 6643TIP3    H241345   1.653   6.066   5.944 -1.2490 -0.0410 -0.4120
 6644TIP3   OH241346   4.760   2.313  13.809 -0.4136  0.1081  0.3746
 6644TIP3    H141347   4.730   2.300  13.899  0.3376  0.1944  0.6446
 6644TIP3    H241348   4.686   2.353  13.764 -0.8547 -0.1022  0.9119
 6645TIP3   OH241349   1.910   6.413  14.578  0.1654 -0.6614 -0.5378
 6645TIP3    H141350   1.952   6.329  14.598 -0.3814 -1.1554 -1.4612
 6645TIP3    H241351   1.827   6.410  14.626  0.2936 -0.5093 -0.3069
 6646TIP3   OH241352   2.569   1.658  16.293 -0.2106 -0.3598 -0.0182
 6646TIP3    H141353   2.487   1.661  16.343 -0.2129  1.1355 -0.1072
 6646TIP3    H241354   2.625   1.599  16.344 -0.6958  0.0666  1.0345
 6647TIP3   OH241355   0.247   3.462  14.284 -0.3308 -0.2982 -0.1354
 6647TIP3    H141356   0.164   3.421  14.259 -0.6857  0.2105  0.1953
 6647TIP3    H241357   0.306   3.388  14.303 -1.1388 -0.6543  1.0259
 6648TIP3   OH241358   1.419   0.840   4.144 -0.5772 -0.8044 -0.1305
 6648TIP3    H141359   1.444   0.805   4.058  1.7217 -0.8025  0.5024
 6648TIP3    H241360   1.369   0.919   4.124  0.0408 -0.7343 -1.4572
 6649TIP3   OH241361   4.096   4.803  13.020  0.2033  0.2953  0.6389
 6649TIP3    H141362   4.050   4.729  12.980 -0.9105  2.2208 -1.8433
 6649TIP3    H241363   4.039   4.830  13.092  0.3829 -0.9577  1.2585
 6650TIP3   OH241364   6.725   2.305   4.041  0.3500  0.2683  0.2772
 6650TIP3    H141365   6.655   2.369   4.029  0.5272  0.5428  0.7273
 6650TIP3    H241366   6.731   2.261   3.956  0.1365  0.7498  0.0110
 6651TIP3   OH241367   1.800   3.007  11.591 -0.0692 -0.3377  0.5596
 6651TIP3    H141368   1.744   2.931  11.573  1.9390 -1.4036 -1.4310
 6651TIP3    H241369   1.886   2.983  11.555  0.6852  2.7822  0.1152
 6652TIP3   OH241370   5.548   6.086  11.348  0.0472 -0.4139  0.0329
 6652TIP3    H141371   5.637   6.108  11.323  0.2825 -0.3079  0.9513
 6652TIP3    H241372   5.554   6.062  11.441 -0.6529 -1.6689 -0.2243
 6653TIP3   OH241373   3.838   4.542  14.525 -0.1795 -0.0345  0.0052
 6653TIP3    H141374   3.920   4.505  14.558 -0.6169 -0.4905  0.5679
 6653TIP3    H241375   3.782   4.467  14.509 -1.3317  0.4157  1.8227
 6654TIP3   OH241376   3.276   1.119  16.236  0.0821  0.3422 -0.2257
 6654TIP3    H141377   3.210   1.165  16.289 -0.2680 -0.1302 -0.2439
 6654TIP3    H241378   3.346   1.098  16.298  0.0905  0.6047 -0.1457
 6655TIP3   OH241379   6.677   0.375  16.828 -0.9293 -0.1241  0.0675
 6655TIP3    H141380   6.640   0.367  16.916 -1.7728 -2.4544 -0.4510
 6655TIP3    H241381   6.647   0.296  16.782  3.0171 -1.1245 -1.0096
 6656TIP3   OH241382   5.361   5.975   5.471 -0.0450  0.0980 -0.7077
 6656TIP3    H141383   5.417   5.998   5.397  3.4732 -2.8348  0.8903
 6656TIP3    H241384   5.346   5.881   5.462 -1.4936  0.1279  1.0523
 6657TIP3   OH241385   5.241   5.151   1.780 -0.2102 -0.0100  0.0146
 6657TIP3    H141386   5.202   5.095   1.848  0.1371  1.1694  1.1933
 6657TIP3    H241387   5.313   5.195   1.824  0.6806 -0.0276 -1.4172
 6658TIP3   OH241388   2.804   1.022   1.847 -0.2572 -0.3727  0.3198
 6658TIP3    H141389   2.889   1.033   1.804  0.2278 -3.1912  0.4381
 6658TIP3    H241390   2.823   1.031   1.940 -0.2116 -0.2474  0.2980
 6659TIP3   OH241391   1.637   4.742   4.943  0.7688 -0.0860  0.3994
 6659TIP3    H141392   1.635   4.824   4.991 -0.2186 -0.2403  0.6155
 6659TIP3    H241393   1.545   4.717   4.933  1.0913 -1.5828  1.0553
 6660TIP3   OH241394   5.833   0.892  16.798  0.1296  0.0379 -0.7024
 6660TIP3    H141395   5.924   0.863  16.808 -0.2650 -1.3067 -0.9780
 6660TIP3    H241396   5.825   0.912  16.705  0.5694  1.6778 -0.4185
 6661TIP3   OH241397   2.986   3.343  15.097 -0.0029 -0.4658  0.2687
 6661TIP3    H141398   2.908   3.397  15.092 -0.2338 -0.8903 -0.8449
 6661TIP3    H241399   2.954   3.253  15.091  0.4178 -0.7235  1.5901
 6662TIP3   OH241400   2.802   1.783   6.469 -0.3775 -0.4614  0.3480
 6662TIP3    H141401   2.764   1.854   6.521  0.5204  1.4486 -1.5246
 6662TIP3    H241402   2.734   1.715   6.468 -1.0471  0.1511  2.5778
 6663TIP3   OH241403   4.125   5.083   0.499 -0.0678 -0.2863  0.1751
 6663TIP3    H141404   4.159   5.028   0.571  2.1505 -0.4817 -0.9793
 6663TIP3    H241405   4.057   5.136   0.540 -0.7845 -2.3808  1.8077
 6664TIP3   OH241406   6.647   4.971   1.220  0.4342  0.2939 -0.1205
 6664TIP3    H141407   6.635   5.063   1.242 -0.8453  0.3449 -1.0034
 6664TIP3    H241408   6.629   4.967   1.126 -0.9908 -1.1103  0.1975
 6665TIP3   OH241409   6.681   6.558   4.315  0.4388  0.0859  0.0649
 6665TIP3    H141410   6.658   6.554   4.223 -1.4335  0.0742  0.5113
 6665TIP3    H241411   6.705   6.650   4.330 -0.7030  0.4200 -0.1068
 6666TIP3   OH241412   1.432   6.391  16.678  0.2391 -0.1655 -0.6724
 6666TIP3    H141413   1.527   6.390  16.694  0.6001 -1.3225 -2.8333
 6666TIP3    H241414   1.416   6.476  16.636  0.2671  0.0717 -0.2195
 6667TIP3   OH241415   3.362   1.289   2.725 -0.5481  0.4626 -1.1615
 6667TIP3    H141416   3.350   1.368   2.671 -1.9688  0.8162 -0.3536
 6667TIP3    H241417   3.431   1.240   2.680  2.0541  3.2491 -0.4791
 6668TIP3   OH241418   2.329   6.564  15.227 -0.6037 -0.3339  0.0129
 6668TIP3    H141419   2.273   6.513  15.284  1.0175  0.1289  2.0826
 6668TIP3    H241420   2.388   6.500  15.187 -1.8505 -0.6777 -1.2903
 6669TIP3   OH241421   4.163   3.716  11.108 -0.6894  0.0856  0.1200
 6669TIP3    H141422   4.121   3.701  11.023 -2.2967 -0.5058  0.9992
 6669TIP3    H241423   4.093   3.704  11.172  0.7249 -0.4209  1.6020
 6670TIP3   OH241424   1.727   4.393  12.801  0.6859  0.5945 -0.1351
 6670TIP3    H141425   1.797   4.407  12.864  2.4632 -1.2229 -1.6312
 6670TIP3    H241426   1.712   4.478  12.761  1.4388  1.1722  0.8099
 6671TIP3   OH241427   0.838   3.901  16.859 -0.4043 -0.3150  0.2030
 6671TIP3    H141428   0.809   3.988  16.832 -1.2687 -0.5478  0.3636
 6671TIP3    H241429   0.758   3.858  16.890  0.2584 -0.6932  1.3869
 6672TIP3   OH241430   2.615   5.724  13.711 -0.3910 -0.3643  0.4443
 6672TIP3    H141431   2.704   5.738  13.678  0.6438 -1.5982  2.5466
 6672TIP3    H241432   2.578   5.658  13.653 -1.0653  2.3033 -2.2844
 6673TIP3   OH241433   2.970   1.504   4.179 -0.6757 -0.2318  0.4472
 6673TIP3    H141434   3.057   1.480   4.212 -0.4182 -0.6671 -0.5568
 6673TIP3    H241435   2.937   1.424   4.138 -1.5770 -0.0807  0.8576
 6674TIP3   OH241436   5.798   2.347  15.550 -0.2286  0.0571 -0.3687
 6674TIP3    H141437   5.865   2.415  15.554 -1.0560  0.8110  1.3518
 6674TIP3    H241438   5.844   2.266  15.576  0.8092 -0.1260 -2.6486
 6675TIP3   OH241439   5.834   4.966   4.526  0.8461  0.4367  0.4913
 6675TIP3    H141440   5.911   4.910   4.515 -0.1393 -0.5553 -1.5418
 6675TIP3    H241441   5.865   5.053   4.503  1.6950  0.2801  0.9900
 6676TIP3   OH241442   2.915   0.859  11.441 -0.1424  0.3235 -0.8509
 6676TIP3    H141443   2.943   0.805  11.367  0.0488  0.3261 -0.7816
 6676TIP3    H241444   2.852   0.921  11.403 -0.2084  0.1849 -0.9685
 6677TIP3   OH241445   4.684   0.122  10.578 -0.4520 -0.4133  0.4503
 6677TIP3    H141446   4.716   0.031  10.579 -0.6160 -0.4725  0.1999
 6677TIP3    H241447   4.668   0.141  10.486 -1.0063 -0.3326  0.5607
 6678TIP3   OH241448   4.556   0.799   2.812 -0.0072 -0.1539 -0.7527
 6678TIP3    H141449   4.557   0.819   2.718 -2.0746  0.1826 -0.7251
 6678TIP3    H241450   4.465   0.779   2.831  0.6117 -1.4625  0.9528
 6679TIP3   OH241451   0.083   4.116   2.053 -0.1877  0.2881  0.3077
 6679TIP3    H141452   0.144   4.137   1.982  0.1472 -0.9874  0.2078
 6679TIP3    H241453  -0.003   4.139   2.018 -0.1032 -0.9905 -0.7988
 6680TIP3   OH241454   1.084   4.166   3.973 -0.4406  0.1585 -0.3676
 6680TIP3    H141455   1.012   4.229   3.978 -2.9662 -2.6275 -0.8292
 6680TIP3    H241456   1.080   4.131   3.885  0.6799 -1.0208  0.0343
 6681TIP3   OH241457   2.630   3.991  15.885 -0.0680  0.8185 -0.0305
 6681TIP3    H141458   2.704   4.017  15.940 -0.1277 -0.3517  0.6276
 6681TIP3    H241459   2.662   4.002  15.795  1.7872 -1.9346  0.2122
 6682TIP3   OH241460   4.554   2.157   5.284  0.3288  0.0438  0.1196
 6682TIP3    H141461   4.475   2.201   5.316 -0.5508 -1.2474 -0.2122
 6682TIP3    H241462   4.545   2.158   5.188  0.9629  0.3424  0.0632
 6683TIP3   OH241463   3.079   4.592   3.959  0.4326 -0.4167  0.6107
 6683TIP3    H141464   3.022   4.538   4.014  2.0677 -3.4196 -0.5268
 6683TIP3    H241465   3.097   4.537   3.882  0.8987  2.3770 -1.3643
 6684TIP3   OH241466   5.915   3.461  15.606 -0.0444 -0.2666 -0.2758
 6684TIP3    H141467   5.981   3.396  15.582  0.7759  0.2823  0.4981
 6684TIP3    H241468   5.834   3.429  15.565  0.5371 -1.3294 -0.6012
 6685TIP3   OH241469   4.793   4.605  13.309 -0.2131 -0.4449 -0.1613
 6685TIP3    H141470   4.845   4.585  13.231  0.4848 -0.3639  0.2710
 6685TIP3    H241471   4.702   4.599  13.281  0.0409  0.6016 -1.2246
 6686TIP3   OH241472   3.194   3.732   1.618 -0.0620 -0.5714  0.0864
 6686TIP3    H141473   3.121   3.762   1.673  1.4361  1.2880  1.1321
 6686TIP3    H241474   3.156   3.664   1.562 -2.1273 -0.9935  1.9465
 6687TIP3   OH241475   0.131   4.090  13.462 -0.5125  0.0706  0.1634
 6687TIP3    H141476   0.046   4.059  13.431  0.0203 -0.4769 -0.7560
 6687TIP3    H241477   0.152   4.030  13.534 -0.2856 -0.6358 -0.4852
 6688TIP3   OH241478   4.363   4.879   6.736  0.0035  0.0846 -0.6402
 6688TIP3    H141479   4.326   4.858   6.822  0.5102  2.2245  0.1525
 6688TIP3    H241480   4.354   4.798   6.686 -2.5734 -0.4973  0.6172
 6689TIP3   OH241481   5.300   1.210  11.438  0.3274 -0.0275  0.2649
 6689TIP3    H141482   5.393   1.187  11.434  0.3852 -0.1519  2.0422
 6689TIP3    H241483   5.262   1.143  11.494 -1.3232 -1.4369 -2.4259
 6690TIP3   OH241484   6.708   1.996   4.164 -0.3735 -0.0780  0.1836
 6690TIP3    H141485   6.745   2.043   4.090 -0.7304  0.8175  0.5654
 6690TIP3    H241486   6.783   1.977   4.221 -0.2232 -0.0119  0.0071
 6691TIP3   OH241487   3.107   1.924   5.265 -0.5128 -0.4724  0.0896
 6691TIP3    H141488   3.074   1.845   5.307 -3.4438  0.0295 -1.1284
 6691TIP3    H241489   3.100   1.905   5.171 -1.2356  1.1970 -0.2133
 6692TIP3   OH241490   2.674   3.468  15.172  0.3470 -0.0929 -0.2890
 6692TIP3    H141491   2.596   3.500  15.127 -0.1616 -2.8857 -1.4989
 6692TIP3    H241492   2.659   3.374  15.182  2.7833 -0.3788  1.0487
 6693TIP3   OH241493   1.651   1.708  15.435 -0.0744  0.3311  0.1740
 6693TIP3    H141494   1.704   1.737  15.360 -1.1576  0.6604 -0.4744
 6693TIP3    H241495   1.662   1.778  15.500  1.9353 -0.5867  0.8659
 6694TIP3   OH241496   2.073   5.464   5.185 -0.3368  0.1374 -0.8067
 6694TIP3    H141497   2.123   5.384   5.191 -1.5161 -0.6488 -1.1976
 6694TIP3    H241498   2.015   5.463   5.261 -1.4682 -0.1779 -1.6532
 6695TIP3   OH241499   0.214   2.913   4.326 -0.4268 -0.7498 -0.2364
 6695TIP3    H141500   0.174   2.880   4.245  1.9913  2.7372 -3.0287
 6695TIP3    H241501   0.305   2.885   4.320  0.9280  3.4735 -1.1575
 6696TIP3   OH241502   6.667   4.711  12.490 -0.6870 -0.4402 -0.2701
 6696TIP3    H141503   6.574   4.704  12.511  0.1118 -0.7593  3.5480
 6696TIP3    H241504   6.708   4.740  12.571  2.4286  0.8269 -2.2037
 6697TIP3   OH241505   5.177   3.151  13.298 -0.6580 -0.0136  0.2496
 6697TIP3    H141506   5.214   3.199  13.224 -0.8373  1.1314  0.8944
 6697TIP3    H241507   5.211   3.062  13.289  1.9777  0.9271  0.6461
 6698TIP3   OH241508   0.876   3.870   1.949  0.0441 -0.3929 -0.0147
 6698TIP3    H141509   0.879   3.902   1.859  0.5643 -0.1432  0.0890
 6698TIP3    H241510   0.863   3.776   1.941 -0.4933 -0.2931 -0.3405
 6699TIP3   OH241511   0.065   5.093   0.336  0.1274  0.4119 -0.6705
 6699TIP3    H141512   0.096   5.005   0.316  0.5253  0.4775 -0.3475
 6699TIP3    H241513   0.144   5.145   0.347 -0.0485  0.2505  1.6275
 6700TIP3   OH241514   0.734   6.504   4.286 -0.3523 -0.4693 -0.0291
 6700TIP3    H141515   0.660   6.553   4.251 -0.2669  0.0328  0.4952
 6700TIP3    H241516   0.803   6.569   4.296 -0.7523 -0.3565  2.2108
 6701TIP3   OH241517   0.021   4.298   4.981  0.0445 -0.2006  0.2785
 6701TIP3    H141518   0.081   4.241   4.933  1.2774  0.7943  0.6191
 6701TIP3    H241519   0.044   4.287   5.073 -1.3510 -0.9984  0.5440
 6702TIP3   OH241520   4.303   2.700   4.711 -0.0484  0.6206  0.2954
 6702TIP3    H141521   4.226   2.756   4.719 -0.1539  0.7233 -1.2220
 6702TIP3    H241522   4.307   2.678   4.618  0.2084 -1.5742  0.7846
 6703TIP3   OH241523   0.641   4.863  11.246  0.4044  0.0098 -0.4034
 6703TIP3    H141524   0.606   4.946  11.213  3.3116  0.2346 -3.1876
 6703TIP3    H241525   0.734   4.865  11.221  1.3777 -2.4967  2.6932
 6704TIP3   OH241526   6.351   0.934  16.612 -0.2996 -0.0030 -0.3193
 6704TIP3    H141527   6.262   0.918  16.641  0.1560  1.9299  2.3579
 6704TIP3    H241528   6.399   0.855  16.638 -0.4338  0.6351  1.9437
 6705TIP3   OH241529   2.878   4.131  16.881 -0.1233 -0.2581  0.7005
 6705TIP3    H141530   2.827   4.173  16.950 -0.2792  1.4180 -0.4236
 6705TIP3    H241531   2.893   4.042  16.914 -0.5978  0.3596  2.6735
 6706TIP3   OH241532   1.074   4.047   2.082  0.1674  0.7838  0.2869
 6706TIP3    H141533   1.147   3.990   2.105 -0.5096 -0.0133  0.4676
 6706TIP3    H241534   1.007   3.988   2.046 -0.5086  1.4665  0.4095
 6707TIP3   OH241535   0.904   2.470  12.109  0.0180  0.0370  0.1136
 6707TIP3    H141536   0.948   2.489  12.026  0.5109 -1.2593  0.0756
 6707TIP3    H241537   0.929   2.380  12.130 -1.4602 -0.2164  0.8244
 6708TIP3   OH241538   5.778   6.589  14.608  0.3070 -0.0007  0.6479
 6708TIP3    H141539   5.693   6.631  14.594 -0.6830 -1.1064  3.2187
 6708TIP3    H241540   5.831   6.620  14.534 -1.9524  1.6041 -0.3835
 6709TIP3   OH241541   3.318   4.887  14.188 -0.2139 -0.9193 -0.6020
 6709TIP3    H141542   3.291   4.796  14.176 -2.3028 -0.5420  0.8481
 6709TIP3    H241543   3.355   4.890  14.276 -5.9732  0.7881  2.0050
 6710TIP3   OH241544   3.372   1.277  14.689  0.1606  0.2121  0.0827
 6710TIP3    H141545   3.384   1.311  14.601 -0.0914  0.1153  0.0095
 6710TIP3    H241546   3.284   1.306  14.715  0.3612  0.5262  0.4303
 6711TIP3   OH241547   4.781   5.460   4.344  0.3716  0.5859  0.2097
 6711TIP3    H141548   4.795   5.544   4.386 -0.7111  0.5927  0.5845
 6711TIP3    H241549   4.690   5.437   4.367 -0.2854  0.6434 -2.1931
 6712TIP3   OH241550   2.315   1.040  14.668 -0.2408 -0.3384  0.3992
 6712TIP3    H141551   2.322   0.952  14.704  2.0468  1.3683  4.5686
 6712TIP3    H241552   2.283   1.093  14.742 -1.9919  2.2688 -2.1211
 6713TIP3   OH241553   1.734   4.667  14.351 -0.5865 -0.3922 -0.0390
 6713TIP3    H141554   1.717   4.591  14.294 -1.1851  0.1870 -0.6378
 6713TIP3    H241555   1.724   4.632  14.439 -0.8916 -1.0160 -0.3112
 6714TIP3   OH241556   6.333   4.949   4.027 -0.4094 -0.1802  0.1534
 6714TIP3    H141557   6.396   5.002   4.074 -0.5485 -0.2461  0.4189
 6714TIP3    H241558   6.277   5.012   3.981  0.9974 -0.1804 -1.5918
 6715TIP3   OH241559   6.156   5.571   0.515  0.2493  0.2988 -0.5282
 6715TIP3    H141560   6.174   5.600   0.425  0.0390  0.1331 -0.6258
 6715TIP3    H241561   6.128   5.649   0.561 -0.0764  0.2997 -0.7247
 6716TIP3   OH241562   3.143   6.106  11.681 -0.2460  0.6909 -0.5505
 6716TIP3    H141563   3.187   6.190  11.672 -0.3475  0.8752  0.6046
 6716TIP3    H241564   3.215   6.043  11.694 -0.1997  0.6914 -0.8143
 6717TIP3   OH241565   1.125   5.270  13.535  0.3389  0.1391  0.2533
 6717TIP3    H141566   1.178   5.229  13.603  0.8385  1.9047  0.9584
 6717TIP3    H241567   1.035   5.243  13.554  0.6589 -0.6022  0.7188
 6718TIP3   OH241568   4.493   5.031  16.541 -0.1065  0.1864 -0.0842
 6718TIP3    H141569   4.404   5.006  16.516  0.6955 -1.6292 -1.2513
 6718TIP3    H241570   4.540   4.948  16.544  1.7741  1.2362 -0.3265
 6719TIP3   OH241571   4.232   5.445   5.164 -0.3670  0.4502 -0.2842
 6719TIP3    H141572   4.162   5.382   5.184 -1.2878  1.0790 -1.4810
 6719TIP3    H241573   4.251   5.431   5.071  0.3575  1.0188 -0.2273
 6720TIP3   OH241574   0.216   5.604  13.077  0.1663 -0.4788  0.4947
 6720TIP3    H141575   0.263   5.549  13.016  1.0837  0.1662  0.6106
 6720TIP3    H241576   0.269   5.684  13.084 -0.9265  0.2494  0.6345
 6721TIP3   OH241577   6.462   3.867   5.794  0.2697 -0.2129  0.1222
 6721TIP3    H141578   6.514   3.874   5.875  2.7959  0.4400 -1.4989
 6721TIP3    H241579   6.459   3.773   5.776 -1.0143 -0.4433  1.3660
 6722TIP3   OH241580   1.117   2.306   2.619 -0.1210  0.4823 -0.4047
 6722TIP3    H141581   1.040   2.250   2.610 -0.6707  1.6162 -3.2210
 6722TIP3    H241582   1.191   2.248   2.598 -0.4390  0.1444 -0.6010
 6723TIP3   OH241583   1.510   1.524   5.137  0.2920  0.0179 -0.0855
 6723TIP3    H141584   1.426   1.485   5.161  0.2785  0.3822  0.4576
 6723TIP3    H241585   1.573   1.454   5.152  0.5162  0.7340  2.6553
 6724TIP3   OH241586   6.486   1.683   3.080 -0.5048  0.9398  0.0571
 6724TIP3    H141587   6.411   1.735   3.108  0.0740  0.9917  1.5851
 6724TIP3    H241588   6.552   1.699   3.148  0.3994 -0.1770 -0.5481
 6725TIP3   OH241589   6.650   3.323   5.801 -0.1821 -0.2679 -0.1076
 6725TIP3    H141590   6.736   3.356   5.776 -0.4321 -0.7898 -1.7064
 6725TIP3    H241591   6.667   3.236   5.838 -0.1287 -1.0033 -1.7799
 6726TIP3   OH241592   6.431   1.700   3.425  0.0869  0.3659  0.4663
 6726TIP3    H141593   6.365   1.644   3.383 -0.8924  0.2511  2.1321
 6726TIP3    H241594   6.494   1.638   3.463  0.5775  0.4617 -0.1702
 6727TIP3   OH241595   6.123   4.373   0.290 -0.1710  0.6232  0.3886
 6727TIP3    H141596   6.049   4.431   0.310 -1.1965 -0.2407 -0.8318
 6727TIP3    H241597   6.176   4.423   0.228 -1.3861  0.0468 -1.1517
 6728TIP3   OH241598   3.992   3.978  13.144 -0.2564 -0.3009 -0.4354
 6728TIP3    H141599   4.058   4.008  13.206 -1.0580 -3.5449  2.1590
 6728TIP3    H241600   3.954   4.058  13.108  0.7383  1.7198  2.7724
 6729TIP3   OH241601   5.921   2.814   5.897  0.1541 -0.0086 -0.0400
 6729TIP3    H141602   5.839   2.766   5.892 -0.4671  0.9077  1.0812
 6729TIP3    H241603   5.902   2.889   5.954  1.2735  1.2202 -1.2443
 6730TIP3   OH241604   0.826   2.716  12.171  0.3795 -0.3897 -0.3104
 6730TIP3    H141605   0.853   2.624  12.179  3.0079  0.2784 -0.9122
 6730TIP3    H241606   0.808   2.727  12.077 -1.3093 -0.6152 -0.0334
 6731TIP3   OH241607   5.696   2.330   1.119  0.1837 -0.5547 -0.2431
 6731TIP3    H141608   5.658   2.347   1.033 -0.6918  2.2492  0.6280
 6731TIP3    H241609   5.789   2.316   1.103  0.1369  0.5536 -1.6152
 6732TIP3   OH241610   3.503   3.018   5.165 -0.1594  0.6838 -0.3682
 6732TIP3    H141611   3.470   2.959   5.233  0.4852  1.5397  0.6926
 6732TIP3    H241612   3.537   2.959   5.097 -0.4509 -0.1746  0.2206
 6733TIP3   OH241613   1.873   2.492  12.425 -0.2646  0.0628  0.3415
 6733TIP3    H141614   1.817   2.465  12.498 -1.4414  0.3613 -0.4357
 6733TIP3    H241615   1.961   2.495  12.462 -0.6725 -0.9992  1.4320
 6734TIP3   OH241616   6.276   4.634   0.263 -0.8266 -0.4800  0.0696
 6734TIP3    H141617   6.283   4.573   0.190 -0.0994  1.9131 -1.9459
 6734TIP3    H241618   6.324   4.711   0.235 -1.8172  1.1013  2.4730
 6735TIP3   OH241619   1.945   4.335   0.770 -0.3664 -0.2426 -0.3804
 6735TIP3    H141620   1.956   4.357   0.863  1.3497 -0.2169 -0.5706
 6735TIP3    H241621   2.027   4.363   0.729 -0.8452 -0.8671 -1.7928
 6736TIP3   OH241622   1.279   1.840   4.360  0.8994  0.1956  0.2765
 6736TIP3    H141623   1.200   1.828   4.413 -0.2501  1.1272 -1.1799
 6736TIP3    H241624   1.305   1.930   4.376  0.2848  0.6227 -1.0658
 6737TIP3   OH241625   0.787   1.930  17.000 -0.7438 -0.5414  0.0849
 6737TIP3    H141626   0.801   1.983  16.922 -1.7405 -0.0684  0.2211
 6737TIP3    H241627   0.846   1.855  16.989  1.4203  1.0655  0.3453
 6738TIP3   OH241628   4.865   5.995  12.124 -0.1757  0.0363  0.4840
 6738TIP3    H141629   4.811   6.053  12.069 -0.7240  0.7388  1.7458
 6738TIP3    H241630   4.935   5.966  12.065 -1.3405 -0.0628 -0.8845
 6739TIP3   OH241631   0.313   0.234  12.570  0.5082 -0.2864 -0.8930
 6739TIP3    H141632   0.265   0.304  12.615 -1.2799 -1.3877 -1.0215
 6739TIP3    H241633   0.402   0.268  12.561  0.2874  0.9731  1.2380
 6740TIP3   OH241634   0.733   6.318  14.625 -0.9129 -0.7303  0.0211
 6740TIP3    H141635   0.730   6.258  14.550 -1.2554  0.5410 -1.0039
 6740TIP3    H241636   0.822   6.354  14.623 -1.4047  0.4873 -0.7452
 6741TIP3   OH241637   3.599   6.541   2.876  0.1731 -0.5208 -0.1952
 6741TIP3    H141638   3.638   6.523   2.962  0.5368 -0.7376 -0.4073
 6741TIP3    H241639   3.519   6.590   2.896  0.7497  0.2665  0.2171
 6742TIP3   OH241640   6.284   2.160   0.961 -0.2285 -0.3099  0.2557
 6742TIP3    H141641   6.324   2.242   0.990  0.9182 -0.5741 -0.5846
 6742TIP3    H241642   6.309   2.096   1.028  1.0088 -0.5412 -0.4193
 6743TIP3   OH241643   1.347   2.904   1.366  0.3919  0.3441  0.3534
 6743TIP3    H141644   1.315   2.994   1.368  1.4284  0.7748 -1.2629
 6743TIP3    H241645   1.316   2.865   1.448  0.1000  2.2284  1.1528
 6744TIP3   OH241646   1.479   5.139  10.708  0.1309 -0.2603  0.1484
 6744TIP3    H141647   1.492   5.126  10.802  0.7294 -0.2197  0.0735
 6744TIP3    H241648   1.386   5.158  10.699  0.1332  0.0611  0.7708
 6745TIP3   OH241649   1.759   6.535  11.182 -0.2997 -0.0455 -0.5286
 6745TIP3    H141650   1.787   6.564  11.269 -1.7401 -1.6274  0.4977
 6745TIP3    H241651   1.664   6.538  11.185 -0.3485  1.1031 -2.5133
 6746TIP3   OH241652   2.417   4.077   1.800 -0.5823 -1.2968  0.2035
 6746TIP3    H141653   2.424   4.014   1.872 -0.1706 -2.0944 -0.5282
 6746TIP3    H241654   2.370   4.030   1.732 -1.9029 -0.1866  0.3294
 6747TIP3   OH241655   4.375   4.894   3.213 -0.1881 -0.3984  0.0757
 6747TIP3    H141656   4.411   4.805   3.216 -0.1716 -0.4601 -1.3742
 6747TIP3    H241657   4.281   4.882   3.224  0.1144 -0.2920  3.2092
 6748TIP3   OH241658   6.081   6.712  12.582 -0.0758  0.4243  0.2373
 6748TIP3    H141659   6.167   6.752  12.596  0.4782 -1.0366  1.0925
 6748TIP3    H241660   6.028   6.742  12.656  0.1810  0.0635  0.5771
 6749TIP3   OH241661   5.952   0.631   4.433 -0.2148 -0.1597 -0.0705
 6749TIP3    H141662   5.940   0.580   4.353  1.4369  0.1782 -0.5468
 6749TIP3    H241663   5.962   0.565   4.502  2.3121 -0.5519 -0.7453
 6750TIP3   OH241664   1.401   5.128   5.626  0.2105  0.2272  0.4510
 6750TIP3    H141665   1.453   5.183   5.685 -0.8649 -0.0695  1.6831
 6750TIP3    H241666   1.321   5.178   5.610  0.1173 -0.0826 -0.0682
 6751TIP3   OH241667   6.422   5.838   4.587  0.4545  0.1779  0.1638
 6751TIP3    H141668   6.441   5.830   4.493  0.9910  0.3546  0.2561
 6751TIP3    H241669   6.462   5.761   4.626  1.7243  0.9830  0.4687
 6752TIP3   OH241670   0.591   4.949  12.192 -0.3755  0.7659  0.1956
 6752TIP3    H141671   0.564   4.857  12.188  1.9458  0.1282 -1.5832
 6752TIP3    H241672   0.510   4.996  12.212 -1.9958 -1.4827 -0.8157
 6753TIP3   OH241673   1.871   3.599  17.210 -0.0845  0.1467 -0.0398
 6753TIP3    H141674   1.776   3.594  17.223  0.0736  0.7310  1.4186
 6753TIP3    H241675   1.901   3.659  17.279  1.7299 -2.3199  1.3785
 6754TIP3   OH241676   6.254   6.346  10.781 -0.0028  0.1461  0.5729
 6754TIP3    H141677   6.165   6.312  10.790  0.1734 -0.3962  0.2713
 6754TIP3    H241678   6.248   6.410  10.710  0.0285 -0.5170 -0.0281
 6755TIP3   OH241679   3.762   4.789  14.450  0.2111  0.1516  0.1156
 6755TIP3    H141680   3.791   4.702  14.476 -0.2498 -0.1659 -0.4244
 6755TIP3    H241681   3.833   4.847  14.478  2.1459 -0.7902 -2.5311
 6756TIP3   OH241682   3.153   6.118   5.282 -0.1149  0.1006 -0.4424
 6756TIP3    H141683   3.148   6.156   5.370  0.6826  2.5446 -1.3905
 6756TIP3    H241684   3.210   6.042   5.292 -0.2127  0.2245  1.2002
 6757TIP3   OH241685   1.568   1.050  13.206  0.1768  0.1454  0.6621
 6757TIP3    H141686   1.565   1.025  13.113  0.3738  1.3055  0.3340
 6757TIP3    H241687   1.499   1.115  13.215  0.8552  0.8189  1.0832
 6758TIP3   OH241688   2.174   4.962  15.028  0.6491 -0.2176  0.5623
 6758TIP3    H141689   2.239   5.015  15.074  0.3790  0.4635  0.1707
 6758TIP3    H241690   2.157   5.010  14.947  0.3748 -0.8883  0.2148
 6759TIP3   OH241691   0.216   3.859   0.782 -0.3306  0.2209  0.0056
 6759TIP3    H141692   0.179   3.926   0.724  0.4706  0.1978 -0.5309
 6759TIP3    H241693   0.284   3.905   0.831 -0.0259 -0.1137 -0.1048
 6760TIP3   OH241694   6.497   3.137  12.256 -0.3171  0.5226 -0.0257
 6760TIP3    H141695   6.591   3.154  12.249 -0.3457  0.4962 -0.4273
 6760TIP3    H241696   6.484   3.052  12.214  0.0547 -1.2477  3.2342
 6761TIP3   OH241697   6.497   1.098   1.958 -0.2097 -0.6586 -0.8271
 6761TIP3    H141698   6.523   1.140   2.041 -0.7697 -1.1521 -0.3935
 6761TIP3    H241699   6.562   1.030   1.944 -0.3080 -0.7957 -0.6177
 6762TIP3   OH241700   4.831   4.302  13.633  0.3344  0.4559 -0.1609
 6762TIP3    H141701   4.767   4.260  13.575  0.3982 -1.6142  1.2603
 6762TIP3    H241702   4.908   4.245  13.630  0.6052  0.7269  1.3939
 6763TIP3   OH241703   5.044   4.072  15.869  0.0524  0.1543  0.3830
 6763TIP3    H141704   5.049   4.165  15.845  2.5377 -0.5509 -2.1126
 6763TIP3    H241705   5.015   4.028  15.789 -1.2740 -1.2385  1.5936
 6764TIP3   OH241706   1.510   4.931   5.445  0.7112  0.2412  0.1178
 6764TIP3    H141707   1.475   4.843   5.453 -0.6609  0.6896 -0.8952
 6764TIP3    H241708   1.472   4.979   5.519 -1.9742  1.0901 -1.7587
 6765TIP3   OH241709   2.069   3.443   1.576  0.3545  0.1462  0.0669
 6765TIP3    H141710   2.160   3.458   1.601 -0.1845 -0.4731  2.4965
 6765TIP3    H241711   2.018   3.468   1.653 -1.3214 -2.2134 -0.2097
 6766TIP3   OH241712   3.739   4.058  11.788 -0.6084 -0.0762  0.0554
 6766TIP3    H141713   3.749   3.963  11.776 -0.3807  0.0000 -0.3742
 6766TIP3    H241714   3.646   4.070  11.806 -0.9688 -0.2106 -1.6156
 6767TIP3   OH241715   3.384   3.936   0.720 -0.3836  0.3738 -0.2408
 6767TIP3    H141716   3.360   3.910   0.631 -1.4719  1.7713 -0.3612
 6767TIP3    H241717   3.305   3.977   0.755  0.1372  0.1061  1.2697
 6768TIP3   OH241718   2.141   4.551   2.904 -0.5849 -0.0121  0.1155
 6768TIP3    H141719   2.134   4.640   2.869  1.5188 -0.4342 -1.4169
 6768TIP3    H241720   2.156   4.564   2.998 -0.0229  1.2410 -0.1371
 6769TIP3   OH241721   3.980   4.092   5.595 -0.3148  0.0094  0.0535
 6769TIP3    H141722   3.971   4.143   5.675 -0.0253 -1.7247  1.2102
 6769TIP3    H241723   3.895   4.102   5.551 -0.6926  0.4671  0.8767
 6770TIP3   OH241724   5.869   4.400  16.311 -0.6527 -0.1849  0.0736
 6770TIP3    H141725   5.891   4.361  16.226  0.3939 -2.8124  1.4857
 6770TIP3    H241726   5.784   4.362  16.332 -0.7146  0.1366  0.3931
 6771TIP3   OH241727   1.094   0.967   4.308 -0.5469  0.1678 -0.2213
 6771TIP3    H141728   1.045   0.909   4.249 -0.3010  0.0262 -0.2844
 6771TIP3    H241729   1.174   0.988   4.261  1.4423 -3.0321  1.6262
 6772TIP3   OH241730   2.955   3.515  16.326 -0.1533 -0.3574 -0.9054
 6772TIP3    H141731   3.050   3.516  16.317  0.0376  2.2622  0.7564
 6772TIP3    H241732   2.924   3.580  16.263 -0.7080  0.0147 -0.2551
 6773TIP3   OH241733   5.031   0.927   0.334 -0.3900  0.4742  0.2041
 6773TIP3    H141734   5.119   0.960   0.319 -0.8219  2.1523  1.1359
 6773TIP3    H241735   4.987   0.933   0.249  0.2073  0.2233 -0.1208
 6774TIP3   OH241736   2.421   2.120   1.387 -0.1459 -0.0586  0.3153
 6774TIP3    H141737   2.456   2.156   1.306  2.0223 -0.9018  0.8285
 6774TIP3    H241738   2.368   2.045   1.360  2.7796 -2.0371 -0.2375
 6775TIP3   OH241739   1.816   1.850   1.221  0.1566 -0.2387  0.2520
 6775TIP3    H141740   1.784   1.941   1.223  3.6715  1.1150 -0.8211
 6775TIP3    H241741   1.758   1.806   1.159 -1.2163  1.4327  0.3076
 6776TIP3   OH241742   5.870   3.542   2.865 -0.2291 -0.0085  0.3315
 6776TIP3    H141743   5.787   3.581   2.891  1.1688  2.8685  0.7472
 6776TIP3    H241744   5.877   3.560   2.771 -0.3950 -0.9197  0.1366
 6777TIP3   OH241745   4.302   1.471  13.300 -0.0006 -0.2386 -0.5510
 6777TIP3    H141746   4.290   1.538  13.367  1.2211 -0.3237 -0.2342
 6777TIP3    H241747   4.255   1.505  13.223 -0.9962  0.0799  0.1898
 6778TIP3   OH241748   6.653   3.597   1.278 -0.5777  0.2473 -0.2161
 6778TIP3    H141749   6.745   3.625   1.271 -0.8142  0.7341 -1.5217
 6778TIP3    H241750   6.610   3.669   1.323 -0.5509  0.5509 -0.6727
 6779TIP3   OH241751   0.060   6.122   1.164  0.3601 -0.2212  0.0958
 6779TIP3    H141752  -0.022   6.134   1.211  2.3466  3.0599  2.8905
 6779TIP3    H241753   0.048   6.169   1.082 -1.6123 -2.4329 -0.9510
 6780TIP3   OH241754   4.476   5.652   4.065 -0.4012 -0.1518 -0.4408
 6780TIP3    H141755   4.521   5.687   4.141 -0.7224  1.5894 -1.0366
 6780TIP3    H241756   4.457   5.728   4.010 -0.2763 -1.3455 -2.2164
 6781TIP3   OH241757   5.229   2.524  17.082 -0.3938 -0.0944  0.3189
 6781TIP3    H141758   5.263   2.613  17.071 -0.1031 -0.3122 -0.5925
 6781TIP3    H241759   5.135   2.533  17.068 -0.2690 -0.0474 -0.5585
 6782TIP3   OH241760   3.098   3.940   4.475  0.4263 -0.3855  0.1352
 6782TIP3    H141761   3.061   3.857   4.505  0.8138 -0.1443  1.2911
 6782TIP3    H241762   3.191   3.922   4.465  0.7460  0.2919  1.7685
 6783TIP3   OH241763   3.832   0.260   6.577 -0.1079 -0.2922  0.1751
 6783TIP3    H141764   3.833   0.346   6.618 -1.5267 -0.1206 -0.1497
 6783TIP3    H241765   3.833   0.278   6.483  2.1094 -0.6755  0.0813
 6784TIP3   OH241766   2.497   5.624   4.281 -0.2193 -0.6323 -0.2716
 6784TIP3    H141767   2.554   5.557   4.242 -0.3530 -0.6603 -0.4228
 6784TIP3    H241768   2.408   5.587   4.272 -0.1006 -1.4877  1.7454
 6785TIP3   OH241769   2.574   1.762   4.083 -0.1423 -0.1226 -0.7299
 6785TIP3    H141770   2.504   1.780   4.021  0.6697  3.5554 -0.6569
 6785TIP3    H241771   2.641   1.718   4.031 -1.1438 -0.7536 -1.5119
 6786TIP3   OH241772   2.062   0.492   4.161 -0.6278 -0.8062 -0.1861
 6786TIP3    H141773   2.137   0.498   4.220  0.2503  0.0036 -1.3863
 6786TIP3    H241774   2.024   0.580   4.160 -1.0513 -0.9868 -0.3153
 6787TIP3   OH241775   3.963   3.069  11.743 -0.1846 -0.5590 -0.2470
 6787TIP3    H141776   3.898   3.055  11.674 -0.2035  0.2340 -0.3932
 6787TIP3    H241777   4.045   3.086  11.696 -0.1941 -0.0331 -0.0808
 6788TIP3   OH241778   1.740   4.336  11.949  0.5708 -0.0556 -0.3272
 6788TIP3    H141779   1.670   4.360  11.889  1.1108  0.4761 -0.7571
 6788TIP3    H241780   1.743   4.241  11.947  0.9181 -0.0263 -1.5267
 6789TIP3   OH241781   0.523   1.553  12.848  0.3128 -0.4217  0.5218
 6789TIP3    H141782   0.566   1.628  12.806  0.5358 -0.6763  0.2885
 6789TIP3    H241783   0.573   1.477  12.816 -1.2306 -0.8574 -0.9101
 6790TIP3   OH241784   0.081   6.467   3.460 -0.1828 -0.9392  1.0024
 6790TIP3    H141785   0.056   6.559   3.462  0.2355 -0.8395  1.9624
 6790TIP3    H241786   0.107   6.447   3.550  0.4888 -1.7842  0.6285
 6791TIP3   OH241787   0.925   6.003   5.300 -0.1501 -0.5730  0.3881
 6791TIP3    H141788   0.882   6.059   5.365  0.5757  0.5304 -0.0654
 6791TIP3    H241789   0.954   6.063   5.232 -1.2109 -1.7558 -1.1480
 6792TIP3   OH241790   3.964   0.179   4.401 -0.1118  1.0314 -0.2868
 6792TIP3    H141791   3.977   0.273   4.417 -0.6697  1.1418 -0.4694
 6792TIP3    H241792   3.938   0.174   4.309 -1.7252  0.8592  0.1631
 6793TIP3   OH241793   2.353   6.528  16.264 -0.6492  0.0617 -0.3327
 6793TIP3    H141794   2.410   6.508  16.190 -1.8658  1.8523 -1.8063
 6793TIP3    H241795   2.381   6.615  16.293 -2.5792  0.9556 -1.0706
 6794TIP3   OH241796   1.800   6.156   0.238  0.2185 -0.2326  0.1602
 6794TIP3    H141797   1.812   6.162   0.143  0.9376  0.9392  0.3119
 6794TIP3    H241798   1.747   6.232   0.260 -0.1602 -0.6427  0.6713
 6795TIP3   OH241799   0.034   6.667  13.903 -0.3622 -0.0916 -0.0820
 6795TIP3    H141800  -0.053   6.627  13.911 -0.3232 -0.0541  0.5466
 6795TIP3    H241801   0.081   6.638  13.981 -0.3524  1.2133  0.4006
 6796TIP3   OH241802   6.116   3.272  13.393  0.0457  0.1240 -0.0179
 6796TIP3    H141803   6.170   3.249  13.317  1.6779 -1.3585  1.5361
 6796TIP3    H241804   6.075   3.189  13.418  1.1402  0.1570  1.9319
 6797TIP3   OH241805   1.882   4.327  16.954  0.0266 -0.3876  0.0660
 6797TIP3    H141806   1.927   4.379  16.888  3.1007 -2.1601  0.7001
 6797TIP3    H241807   1.878   4.239  16.917 -1.2015 -0.6960  0.8723
 6798TIP3   OH241808   3.466   3.827  14.858 -0.0303 -0.1032  0.6234
 6798TIP3    H141809   3.514   3.853  14.937  0.2350 -0.2379  0.5100
 6798TIP3    H241810   3.417   3.749  14.884 -0.1843  0.0351  0.7421
 6799TIP3   OH241811   4.626   3.901   0.245 -0.1888  0.4448  0.2963
 6799TIP3    H141812   4.647   3.993   0.260 -2.1343  1.2235 -1.4474
 6799TIP3    H241813   4.544   3.887   0.293  0.0050 -0.3343  0.4098
 6800TIP3   OH241814   0.475   5.698   3.343  0.3580  0.3131  0.2138
 6800TIP3    H141815   0.494   5.656   3.427  1.9697  1.8978  0.6663
 6800TIP3    H241816   0.415   5.769   3.365 -0.8714 -0.5524 -0.2893
 6801TIP3   OH241817   4.877   5.148  15.681 -0.3643 -0.5570  0.3823
 6801TIP3    H141818   4.860   5.180  15.770 -0.0021 -0.5907  0.4652
 6801TIP3    H241819   4.969   5.167  15.667 -1.1597  2.4276 -1.2249
 6802TIP3   OH241820   3.909   3.498   0.863 -0.2126 -0.2175 -0.2213
 6802TIP3    H141821   3.997   3.511   0.899 -0.4262  1.0340 -0.1443
 6802TIP3    H241822   3.860   3.575   0.890 -1.5324 -1.2040  0.2946
 6803TIP3   OH241823   0.675   6.279  12.127  0.2162  0.8251  0.3901
 6803TIP3    H141824   0.618   6.230  12.069  1.3927  0.0974 -0.1725
 6803TIP3    H241825   0.688   6.363  12.084  0.1220  0.7348  0.1885
 6804TIP3   OH241826   1.622   2.086   2.430 -0.2067  0.3434 -0.0636
 6804TIP3    H141827   1.533   2.075   2.395 -0.2684 -0.1732  0.2456
 6804TIP3    H241828   1.649   1.997   2.455 -0.3610  0.7680  1.6550
 6805TIP3   OH241829   0.785   1.128   1.039  0.1142  0.3801 -0.6698
 6805TIP3    H141830   0.759   1.037   1.021  1.2800  0.1452 -1.1893
 6805TIP3    H241831   0.849   1.149   0.971 -0.6713  1.8419 -0.9757
 6806TIP3   OH241832   2.557   4.133   3.549 -0.3438  0.3304  0.6430
 6806TIP3    H141833   2.478   4.103   3.594  0.1013 -2.3943 -0.3236
 6806TIP3    H241834   2.579   4.062   3.488  2.2244  1.5191  0.1081
 6807TIP3   OH241835   5.229   1.060   2.280  0.0222 -0.2885  0.5809
 6807TIP3    H141836   5.230   1.004   2.358 -0.4684  1.0367  1.5412
 6807TIP3    H241837   5.293   1.128   2.298 -1.2942  0.9779  0.5251
 6808TIP3   OH241838   5.978   2.235   1.103 -0.1782 -0.8692  0.5440
 6808TIP3    H141839   5.955   2.142   1.102  0.9053 -1.1402  0.8857
 6808TIP3    H241840   6.073   2.237   1.098 -0.1252  0.1913  1.7085
 6809TIP3   OH241841   1.814   6.214  12.713  0.0782  0.2667 -0.0470
 6809TIP3    H141842   1.866   6.153  12.660  0.4390  0.4856  0.0548
 6809TIP3    H241843   1.817   6.296  12.665  1.0150  0.6685  0.6648
 6810TIP3   OH241844   4.771   2.447   1.930 -0.1945 -0.2478  0.3320
 6810TIP3    H141845   4.807   2.533   1.951 -0.1634  0.2165 -1.5440
 6810TIP3    H241846   4.824   2.386   1.981  1.7918  0.6062 -0.6747
 6811TIP3   OH241847   0.933   3.782   5.593 -0.6591  0.0779 -0.4535
 6811TIP3    H141848   1.019   3.754   5.561 -0.0725 -0.6159  1.6373
 6811TIP3    H241849   0.921   3.869   5.557  0.8471  0.0950 -0.9264
 6812TIP3   OH241850   5.214   1.548  15.030  0.1742 -0.1076 -0.0341
 6812TIP3    H141851   5.254   1.468  15.064  0.7137  1.2112  2.5562
 6812TIP3    H241852   5.282   1.615  15.038 -0.9126  1.0617 -0.3232
 6813TIP3   OH241853   1.715   4.011   3.405  0.1870 -0.0297  0.0129
 6813TIP3    H141854   1.783   3.944   3.409 -0.6121 -0.9162 -0.8950
 6813TIP3    H241855   1.644   3.977   3.458  0.0028  0.3594  0.0175
 6814TIP3   OH241856   3.260   2.862   5.042  0.4487  0.7187  0.3939
 6814TIP3    H141857   3.212   2.812   4.976 -1.6887  2.2488  0.7489
 6814TIP3    H241858   3.315   2.796   5.085 -0.2298 -0.8200 -1.0041
 6815TIP3   OH241859   2.118   5.692  16.094 -0.6125  0.0293 -0.5796
 6815TIP3    H141860   2.093   5.693  16.186 -0.8994 -1.3093 -0.6303
 6815TIP3    H241861   2.055   5.751  16.051 -0.9881  0.0161 -0.0497
 6816TIP3   OH241862   0.051   4.653   6.266 -0.3331  0.4049 -0.2383
 6816TIP3    H141863   0.013   4.739   6.283 -0.0301  0.9389 -2.1184
 6816TIP3    H241864   0.099   4.664   6.184 -0.9126 -1.7483 -0.8979
 6817TIP3   OH241865   4.822   4.230   0.204 -0.0267 -0.0305  0.0718
 6817TIP3    H141866   4.894   4.292   0.214 -0.0173  0.0622 -0.5450
 6817TIP3    H241867   4.865   4.144   0.201  0.0250 -0.0071  0.1421
 6818TIP3   OH241868   1.223   2.572  14.898  0.1160  0.3603  0.3545
 6818TIP3    H141869   1.201   2.522  14.819  1.4704 -0.3266  0.3907
 6818TIP3    H241870   1.140   2.610  14.926 -1.0957 -2.3651  0.6566
 6819TIP3   OH241871   3.809   3.612   5.459 -0.0845  0.3968  0.7772
 6819TIP3    H141872   3.865   3.684   5.429  0.0443  0.0246  0.1180
 6819TIP3    H241873   3.773   3.642   5.543  1.0948  0.6496  1.2033
 6820TIP3   OH241874   2.146   4.673   6.132 -0.2422 -0.0467 -0.2609
 6820TIP3    H141875   2.092   4.751   6.123 -0.6413  0.1860  3.2729
 6820TIP3    H241876   2.231   4.707   6.162  0.1508 -0.8439 -0.4622
 6821TIP3   OH241877   5.730   1.221   3.711  0.5714 -0.2671 -0.3571
 6821TIP3    H141878   5.698   1.272   3.637 -0.2005 -0.6288 -0.2802
 6821TIP3    H241879   5.818   1.256   3.728  0.0032  1.1284 -0.2058
 6822TIP3   OH241880   4.635   0.473  16.045 -0.4759 -0.4056 -0.1500
 6822TIP3    H141881   4.695   0.543  16.020 -0.9306 -0.0331 -0.2033
 6822TIP3    H241882   4.691   0.396  16.054  0.3804  0.4328  2.0276
 6823TIP3   OH241883   2.574   4.753   3.180 -0.4520  0.2567 -0.0149
 6823TIP3    H141884   2.592   4.700   3.258 -0.9145  1.4045  0.8826
 6823TIP3    H241885   2.585   4.692   3.107  0.7436 -0.6477  0.8904
 6824TIP3   OH241886   3.349   3.499   5.157 -0.0103 -0.3608 -0.5088
 6824TIP3    H141887   3.353   3.533   5.246  0.3703  0.0108 -0.6680
 6824TIP3    H241888   3.378   3.408   5.165  1.9218  0.2228 -0.5424
 6825TIP3   OH241889   3.372   4.072  15.747  0.5939 -0.3484  0.1232
 6825TIP3    H141890   3.332   4.114  15.823  0.0148 -1.6420  0.5462
 6825TIP3    H241891   3.466   4.087  15.758  0.6356 -1.7307  1.8451
 6826TIP3   OH241892   4.320   0.671   2.329  0.3897  0.4374 -0.3652
 6826TIP3    H141893   4.275   0.588   2.313  0.2903  0.5749 -0.7823
 6826TIP3    H241894   4.271   0.711   2.401 -0.4067  0.7884 -1.1041
 6827TIP3   OH241895   1.086   2.530   2.754 -0.5023 -0.6459  0.2639
 6827TIP3    H141896   1.079   2.451   2.701 -1.9790  0.5201 -1.3352
 6827TIP3    H241897   1.058   2.503   2.841 -1.7954 -1.7158 -0.4630
 6828TIP3   OH241898   4.254   2.676   4.466  0.1322 -0.6367 -0.2401
 6828TIP3    H141899   4.269   2.604   4.405  0.4002 -2.0499  1.4256
 6828TIP3    H241900   4.236   2.752   4.411  2.1338 -1.4552 -2.0882
 6829TIP3   OH241901   4.529   1.990  13.525 -0.8231  0.4696 -0.2490
 6829TIP3    H141902   4.591   2.018  13.458  0.0920 -1.3686 -0.2180
 6829TIP3    H241903   4.581   1.936  13.584 -2.3764 -0.7888  0.0009
 6830TIP3   OH241904   5.672   5.485  17.158 -0.3214  0.3946 -0.5739
 6830TIP3    H141905   5.614   5.409  17.156  0.2888 -0.0972  0.1721
 6830TIP3    H241906   5.729   5.473  17.082 -1.4919  1.1308 -1.5988
 6831TIP3   OH241907   2.075   6.083  15.262 -0.0183  0.2731  0.4073
 6831TIP3    H141908   2.171   6.091  15.263  0.1757 -1.4979  2.9681
 6831TIP3    H241909   2.053   6.057  15.351 -2.7810 -0.5998 -0.4800
 6832TIP3   OH241910   5.456   2.891  15.608 -0.4447  0.2284  0.3517
 6832TIP3    H141911   5.407   2.820  15.566 -0.8739  0.5158  0.3617
 6832TIP3    H241912   5.516   2.922  15.540 -1.5494  1.0871 -0.2504
 6833TIP3   OH241913   4.333   3.347   1.653 -0.7994  0.2033 -0.5854
 6833TIP3    H141914   4.353   3.435   1.622 -2.4111  0.6204 -0.4868
 6833TIP3    H241915   4.261   3.317   1.597  0.7649 -1.6721 -1.6447
 6834TIP3   OH241916   4.443   5.444  16.035 -0.4432 -0.3057  0.1214
 6834TIP3    H141917   4.466   5.486  16.118 -0.6161 -0.7340  0.3873
 6834TIP3    H241918   4.404   5.514  15.983  0.5863  0.1955  0.0261
 6835TIP3   OH241919   6.105   1.505   5.098 -0.0235 -1.0012  0.3535
 6835TIP3    H141920   6.140   1.565   5.163  0.0198 -1.1130  0.4336
 6835TIP3    H241921   6.180   1.450   5.073  0.8559  1.3426 -2.3926
 6836TIP3   OH241922   0.013   3.976   0.310 -0.3886  0.4113 -0.1315
 6836TIP3    H141923  -0.050   3.914   0.274  0.7369 -0.9776  0.2593
 6836TIP3    H241924  -0.038   4.029   0.372 -0.9330 -1.5420  1.1424
 6837TIP3   OH241925   5.049   2.125  14.227 -0.2828 -0.3193  0.1686
 6837TIP3    H141926   5.032   2.111  14.135  0.5047 -0.0325 -0.0302
 6837TIP3    H241927   5.091   2.044  14.257  0.1157 -0.1420  0.0988
 6838TIP3   OH241928   4.643   2.481   0.406 -0.2213 -0.2389  0.1192
 6838TIP3    H141929   4.693   2.399   0.415  0.1585  0.1143  1.3357
 6838TIP3    H241930   4.618   2.503   0.495 -1.0626  0.5271 -0.3032
 6839TIP3   OH241931   0.879   2.429   4.217 -0.5278 -0.6001 -0.0119
 6839TIP3    H141932   0.829   2.510   4.203  0.4096 -0.0050 -0.0186
 6839TIP3    H241933   0.890   2.393   4.129  2.2383  1.2360 -0.5008
 6840TIP3   OH241934   3.400   5.657  14.996 -0.2280  0.1090 -0.7276
 6840TIP3    H141935   3.432   5.712  14.925 -0.4473  1.0098 -0.1508
 6840TIP3    H241936   3.304   5.665  14.991 -0.2193  1.4362  0.5940
 6841TIP3   OH241937   5.190   1.165  13.908  0.4378 -0.7403 -0.4177
 6841TIP3    H141938   5.216   1.226  13.978 -0.2444  0.2152 -0.9874
 6841TIP3    H241939   5.104   1.133  13.934 -0.5985  0.9349 -1.6344
 6842TIP3   OH241940   2.406   0.039   1.340 -0.7349  0.0510  0.3270
 6842TIP3    H141941   2.410   0.131   1.364 -0.1798  0.2604 -0.5570
 6842TIP3    H241942   2.338   0.002   1.397 -2.0763  1.3328 -0.4008
 6843TIP3   OH241943   1.503   1.617  14.283 -0.1856 -0.0817  0.0952
 6843TIP3    H141944   1.526   1.710  14.287 -1.7107  0.2773  1.1031
 6843TIP3    H241945   1.408   1.616  14.294 -0.1054 -1.8027  0.7602
 6844TIP3   OH241946   4.201   4.716   0.233  0.1376 -0.2144 -0.2144
 6844TIP3    H141947   4.144   4.755   0.299 -0.0943 -0.0962 -0.4868
 6844TIP3    H241948   4.203   4.623   0.255 -0.6499 -0.3165 -0.5750
 6845TIP3   OH241949   2.312   1.369   5.537  0.5854 -0.4979  0.3737
 6845TIP3    H141950   2.341   1.437   5.598  0.8261 -0.7845  0.5764
 6845TIP3    H241951   2.285   1.297   5.593  0.3191 -0.5665  0.1562
 6846TIP3   OH241952   5.318   1.157   1.680  0.1248 -0.3259 -0.3100
 6846TIP3    H141953   5.243   1.112   1.718 -2.2299  0.6696 -3.5267
 6846TIP3    H241954   5.343   1.103   1.604 -0.8792  2.1133 -2.4736
 6847TIP3   OH241955   1.505   3.774   0.850 -0.0845  0.0844 -0.0462
 6847TIP3    H141956   1.563   3.770   0.775 -2.9722  1.2009 -2.4295
 6847TIP3    H241957   1.537   3.848   0.901  3.6037 -2.3862  1.4095
 6848TIP3   OH241958   6.076   5.868  15.027  0.1139  0.3465  0.3215
 6848TIP3    H141959   6.100   5.929  14.957  3.1868 -0.6843  0.4056
 6848TIP3    H241960   6.038   5.924  15.095 -0.4115  1.7003 -1.0437
 6849TIP3   OH241961   3.082   3.716  12.592  0.7422 -0.3089 -0.0049
 6849TIP3    H141962   3.019   3.754  12.653  3.7328  0.0747  2.9682
 6849TIP3    H241963   3.044   3.632  12.567 -2.1625  1.0633 -0.3692
 6850TIP3   OH241964   2.468   0.280   1.654  0.9634  1.0006  0.3014
 6850TIP3    H141965   2.445   0.288   1.561 -0.5358 -1.2080  0.4432
 6850TIP3    H241966   2.403   0.333   1.699  0.3924  0.3573  0.2344
 6851TIP3   OH241967   0.308   0.462  11.611  0.1320 -0.1692 -0.3576
 6851TIP3    H141968   0.280   0.407  11.684 -1.7780  1.0564 -0.1295
 6851TIP3    H241969   0.259   0.429  11.536  0.4266 -0.0052 -0.6211
 6852TIP3   OH241970   1.426   5.962   4.286 -0.5254  0.2535 -0.0459
 6852TIP3    H141971   1.485   5.894   4.317 -1.5647 -0.2314  0.9054
 6852TIP3    H241972   1.383   5.923   4.210 -0.6998  0.0577  0.1525
 6853TIP3   OH241973   0.682   4.918   6.184 -0.3079  0.0588  0.4236
 6853TIP3    H141974   0.704   4.897   6.093  1.2012 -1.2756  1.0688
 6853TIP3    H241975   0.690   5.013   6.189 -0.6058  0.1675 -0.8843
 6854TIP3   OH241976   3.042   4.474   4.752  0.3860  0.4656 -0.4243
 6854TIP3    H141977   3.032   4.569   4.745  0.3474  0.4976  0.0284
 6854TIP3    H241978   2.985   4.439   4.684  0.4660  0.7670 -0.6504
 6855TIP3   OH241979   0.769   2.412   2.115 -0.0246 -0.3643  0.0633
 6855TIP3    H141980   0.825   2.490   2.109  1.0870 -1.0476  1.1708
 6855TIP3    H241981   0.722   2.409   2.032 -0.6883  1.9428  0.3206
 6856TIP3   OH241982   3.270   2.104   0.089 -0.0237 -0.0760  0.5349
 6856TIP3    H141983   3.333   2.174   0.074 -1.9015  1.7621  0.9712
 6856TIP3    H241984   3.321   2.024   0.078  3.0230  1.3125  3.5508
 6857TIP3   OH241985   4.136   2.163  11.479  0.5028  0.4248 -0.0723
 6857TIP3    H141986   4.231   2.148  11.475  0.4030 -0.3186  0.2981
 6857TIP3    H241987   4.109   2.125  11.563 -0.1844  0.2977 -0.3487
 6858TIP3   OH241988   4.815   3.222  11.095  0.4388  0.5564 -0.1711
 6858TIP3    H141989   4.867   3.259  11.024 -0.1980  0.2159 -0.8177
 6858TIP3    H241990   4.750   3.167  11.051  0.6557 -0.4354  0.7131
 6859TIP3   OH241991   5.681   3.338  15.528  0.0387 -0.0675 -0.5518
 6859TIP3    H141992   5.627   3.382  15.462  2.2240  2.3089 -0.8147
 6859TIP3    H241993   5.723   3.266  15.480  0.6346  0.8749 -1.4628
 6860TIP3   OH241994   0.216   4.266   3.797  0.3214 -0.5408 -0.0859
 6860TIP3    H141995   0.299   4.314   3.796  0.2222 -0.3700 -0.0568
 6860TIP3    H241996   0.150   4.331   3.772  0.2690 -0.8116 -0.6690
 6861TIP3   OH241997   5.104   6.611   4.364  0.1079  0.1412  0.0521
 6861TIP3    H141998   5.191   6.604   4.405  0.9671  0.4615 -1.6569
 6861TIP3    H241999   5.103   6.540   4.299 -0.7948  0.3272 -0.1357
 6862TIP3   OH242000   5.010   2.865  16.243  0.4101 -0.1034 -0.3096
 6862TIP3    H142001   5.102   2.894  16.248  0.8753 -1.9396  4.0205
 6862TIP3    H242002   5.016   2.770  16.234 -1.0867 -0.2021 -0.2877
 6863TIP3   OH242003   1.780   5.779  12.976  0.5235  0.3908 -0.5452
 6863TIP3    H142004   1.846   5.803  13.041  0.0017  0.1724  0.0674
 6863TIP3    H242005   1.703   5.830  13.000  0.0380 -0.3848 -0.4425
 6864TIP3   OH242006   0.598   4.859  14.517  0.1986 -0.4280  0.1411
 6864TIP3    H142007   0.678   4.904  14.491  0.4265 -0.7180  0.3343
 6864TIP3    H242008   0.545   4.927  14.560  0.5839 -0.3717  0.5264
 6865TIP3   OH242009   1.796   1.681   3.923 -0.4858  0.2553  0.5305
 6865TIP3    H142010   1.873   1.712   3.876 -0.1007 -2.5257 -0.7417
 6865TIP3    H242011   1.826   1.672   4.014  1.1565 -2.0829 -0.1817
 6866TIP3   OH242012   3.682   4.405  11.122 -0.0625 -0.3800  0.4379
 6866TIP3    H142013   3.720   4.318  11.107  0.5931 -0.1633  0.8359
 6866TIP3    H242014   3.624   4.393  11.197 -0.2719 -0.5588  0.2504
 6867TIP3   OH242015   1.989   5.329  13.396  0.2053 -0.3013  0.0976
 6867TIP3    H142016   2.015   5.314  13.305  0.5427  0.1151  0.1260
 6867TIP3    H242017   2.051   5.393  13.429  0.3816 -0.8009  0.7627
 6868TIP3   OH242018   2.625   1.219   0.306  0.1793  0.8510 -0.2046
 6868TIP3    H142019   2.588   1.204   0.219  0.1021  2.0126 -0.3741
 6868TIP3    H242020   2.701   1.274   0.290  0.4147  0.7131  0.4289
 6869TIP3   OH242021   0.074   5.529   6.339 -0.0922  0.0644 -0.0046
 6869TIP3    H142022   0.015   5.513   6.265  0.4638 -0.9519 -0.2383
 6869TIP3    H242023   0.018   5.570   6.405 -1.7264 -3.3287  0.8024
 6870TIP3   OH242024   3.919   4.419   0.236 -0.7152  0.8721 -0.3899
 6870TIP3    H142025   4.011   4.413   0.263 -0.6559 -1.7472 -1.0422
 6870TIP3    H242026   3.917   4.378   0.150 -2.4973  1.0397 -0.4375
 6871TIP3   OH242027   1.431   5.857   3.498 -0.1984  0.1701  0.1646
 6871TIP3    H142028   1.489   5.808   3.440  0.6534  1.6502 -0.2497
 6871TIP3    H242029   1.481   5.935   3.522 -1.4328  0.7080  1.0333
 6872TIP3   OH242030   0.486   3.272   3.338 -0.2841  0.2369 -0.4674
 6872TIP3    H142031   0.452   3.322   3.263 -0.4192  2.5940  1.1098
 6872TIP3    H242032   0.408   3.232   3.377 -0.5333  1.0178 -0.1556
 6873TIP3   OH242033   6.006   5.734   0.657 -0.3749 -0.1755  0.3420
 6873TIP3    H142034   5.911   5.737   0.645 -0.6083 -1.4277  1.7050
 6873TIP3    H242035   6.021   5.776   0.741  0.2996  0.2232  0.0222
 6874TIP3   OH242036   5.970   1.245   4.831 -0.8937 -0.1812  0.5622
 6874TIP3    H142037   6.051   1.293   4.852 -0.3553 -1.5574  1.7029
 6874TIP3    H242038   5.960   1.183   4.903 -1.5939 -1.7839 -0.8906
 6875TIP3   OH242039   2.302   5.788  16.461 -0.1003 -0.4320  0.1804
 6875TIP3    H142040   2.250   5.827  16.531  1.1016 -1.5550  1.7572
 6875TIP3    H242041   2.320   5.859  16.400 -2.1097  0.3150  0.4259
 6876TIP3   OH242042   2.501   5.363  12.729  0.3589 -0.3086  0.1200
 6876TIP3    H142043   2.426   5.306  12.707  0.9492 -1.4067  0.8790
 6876TIP3    H242044   2.474   5.407  12.810 -0.0204  0.3602 -0.3637
 6877TIP3   OH242045   5.447   3.714  15.144 -0.0163  0.3617  0.3014
 6877TIP3    H142046   5.527   3.764  15.155  0.1727 -0.0451  0.7625
 6877TIP3    H242047   5.404   3.716  15.230 -0.9593  1.3733 -0.1828
 6878TIP3   OH242048   3.870   5.841   3.580 -0.4839 -0.9751 -0.0736
 6878TIP3    H142049   3.800   5.835   3.645 -0.8772  0.3482 -0.3552
 6878TIP3    H242050   3.951   5.842   3.631 -0.8354  1.2619  0.4879
 6879TIP3   OH242051   0.901   5.512  17.203 -0.5095 -0.1664  0.0550
 6879TIP3    H142052   0.861   5.565  17.272 -1.0047  0.0681 -0.4072
 6879TIP3    H242053   0.842   5.522  17.128 -0.3420 -0.9748 -0.1864
 6880TIP3   OH242054   6.741   1.968  11.233  0.5752 -0.3700  0.1716
 6880TIP3    H142055   6.734   1.976  11.328  1.2452 -1.3485  0.3123
 6880TIP3    H242056   6.703   1.883  11.213  0.6893 -0.2874 -0.4069
 6881TIP3   OH242057   5.924   5.889  15.372 -0.1688  0.0203  0.0315
 6881TIP3    H142058   5.951   5.980  15.382 -0.2015  0.0477 -0.1407
 6881TIP3    H242059   5.937   5.851  15.459 -2.5753  0.8261  0.7921
 6882TIP3   OH242060   2.793   0.243  14.094  0.5533  0.0389  0.0653
 6882TIP3    H142061   2.760   0.333  14.092  2.1517  0.6401 -2.1900
 6882TIP3    H242062   2.770   0.208  14.008  0.5006 -1.5123  0.7044
 6883TIP3   OH242063   0.311   6.046  15.915 -0.2509 -0.0164  0.6301
 6883TIP3    H142064   0.330   6.129  15.958  1.4988  0.9132 -1.8005
 6883TIP3    H242065   0.251   6.069  15.844  1.7230 -0.4718 -1.2357
 6884TIP3   OH242066   5.701   0.602  11.634 -0.1217  0.3427  0.4799
 6884TIP3    H142067   5.751   0.644  11.704  0.3222  1.1998 -0.3254
 6884TIP3    H242068   5.706   0.509  11.653 -1.2128  0.6604  2.3621
 6885TIP3   OH242069   1.140   4.982  11.977 -0.3803 -0.1009 -0.5900
 6885TIP3    H142070   1.180   5.069  11.968  0.4781 -0.3461  0.7239
 6885TIP3    H242071   1.212   4.921  11.965 -0.6241 -0.5860  0.3665
 6886TIP3   OH242072   3.578   5.732   0.980 -0.1415  0.3933 -0.2028
 6886TIP3    H142073   3.485   5.753   0.968 -0.8534 -1.0308  2.4090
 6886TIP3    H242074   3.621   5.818   0.987 -1.5290  1.0465  0.4344
 6887TIP3   OH242075   3.281   5.903  13.255  0.0696 -0.7281 -0.1482
 6887TIP3    H142076   3.259   5.828  13.200 -4.0164  1.2147 -1.4591
 6887TIP3    H242077   3.222   5.896  13.330 -0.5639  1.1906 -0.4127
 6888TIP3   OH242078   5.140   6.701   0.708  0.2481  0.0121 -0.4128
 6888TIP3    H142079   5.166   6.615   0.675  1.3950  0.2618 -0.2011
 6888TIP3    H242080   5.197   6.762   0.661  0.0478  0.5808  0.0837
 6889TIP3   OH242081   1.280   5.197   0.585 -0.2816  0.3181 -0.9003
 6889TIP3    H142082   1.331   5.169   0.509 -1.9756  0.3666 -2.0829
 6889TIP3    H242083   1.318   5.281   0.610  1.1579 -0.3410 -0.8450
 6890TIP3   OH242084   4.209   4.312  11.563 -0.7203 -0.2592 -0.6937
 6890TIP3    H142085   4.115   4.305  11.582 -0.4337 -1.1008  0.4405
 6890TIP3    H242086   4.216   4.289  11.470 -1.5911 -0.6313 -0.6749
 6891TIP3   OH242087   5.666   4.663  12.393  0.1821  0.2859 -0.3883
 6891TIP3    H142088   5.644   4.616  12.312 -0.1531 -1.2178  0.5667
 6891TIP3    H242089   5.599   4.637  12.456  2.8036 -1.8591  1.6242
 6892TIP3   OH242090   3.171   3.345   5.861 -0.1485 -0.4854 -0.2783
 6892TIP3    H142091   3.155   3.436   5.838  2.6022 -0.2942 -1.6639
 6892TIP3    H242092   3.208   3.348   5.949 -2.1537 -0.4860  0.5966
 6893TIP3   OH242093   4.101   2.574  11.040  0.1583 -0.4092  0.0636
 6893TIP3    H142094   4.033   2.506  11.041  1.0629 -1.3294  2.0876
 6893TIP3    H242095   4.052   2.657  11.039 -0.9612 -1.0365 -2.1743
 6894TIP3   OH242096   0.276   1.258   1.938  0.0300 -0.1876  0.1100
 6894TIP3    H142097   0.213   1.230   1.872  0.2194 -0.7696  0.1779
 6894TIP3    H242098   0.279   1.353   1.929  0.3064 -0.2913 -0.9434
 6895TIP3   OH242099   2.753   6.262  11.454  0.2671  0.3852  0.5357
 6895TIP3    H142100   2.827   6.202  11.447  0.4122  0.4280  1.5985
 6895TIP3    H242101   2.676   6.205  11.448  0.4053  0.0230  1.9316
 6896TIP3   OH242102   6.010   1.487  15.089 -0.0058 -0.2533 -0.2606
 6896TIP3    H142103   5.959   1.538  15.027  1.2297 -0.6037 -1.5806
 6896TIP3    H242104   5.945   1.441  15.143 -1.0790 -1.7601 -2.7857
 6897TIP3   OH242105   5.998   3.388  15.038 -0.2871 -0.3249 -0.7654
 6897TIP3    H142106   6.030   3.318  14.981 -0.4303 -1.0268  0.0010
 6897TIP3    H242107   6.076   3.436  15.064 -0.0777 -0.7909 -0.5286
 6898TIP3   OH242108   0.092   2.186  15.278 -0.1799 -0.8236  0.2401
 6898TIP3    H142109  -0.000   2.200  15.255 -0.0550 -0.5502 -0.1140
 6898TIP3    H242110   0.094   2.192  15.373 -0.2406  1.0421  0.1531
 6899TIP3   OH242111   6.121   3.007  10.879 -0.2557  0.3064 -0.1240
 6899TIP3    H142112   6.174   3.072  10.926  0.3084  0.0925 -0.4595
 6899TIP3    H242113   6.179   2.975  10.810 -0.6656 -0.2832 -0.1911
 6900TIP3   OH242114   1.911   5.768   1.602 -0.6781  0.9991  0.0978
 6900TIP3    H142115   1.886   5.683   1.637 -0.9879  0.8321 -0.5462
 6900TIP3    H242116   1.831   5.820   1.604 -0.5217  1.2366  0.3568
 6901TIP3   OH242117   2.043   5.729   2.357 -0.4956 -0.5467  0.3125
 6901TIP3    H142118   2.065   5.776   2.437  0.1570 -0.0240 -0.1667
 6901TIP3    H242119   2.127   5.704   2.319 -0.8007 -0.8711 -0.1643
 6902TIP3   OH242120   4.302   2.885   3.280  0.1325 -0.1745  0.6438
 6902TIP3    H142121   4.220   2.934   3.283  0.9857  1.2777  0.3762
 6902TIP3    H242122   4.355   2.921   3.352  0.5558 -1.0879  0.8048
 6903TIP3   OH242123   4.415   2.382  12.993 -0.0895  0.5693  0.3699
 6903TIP3    H142124   4.481   2.378  13.062  1.7157 -0.5088 -1.3781
 6903TIP3    H242125   4.359   2.307  13.009 -1.6036  2.0683  2.4840
 6904TIP3   OH242126   0.842   2.837  15.711  0.2668 -0.2144 -0.0520
 6904TIP3    H142127   0.871   2.804  15.626 -0.4700 -1.3992  0.1380
 6904TIP3    H242128   0.921   2.837  15.765  0.4744 -0.7649 -0.3430
 6905TIP3   OH242129   2.557   4.778   5.148 -0.2505 -0.5376  0.0883
 6905TIP3    H142130   2.521   4.794   5.235 -0.9373  0.5553 -0.3811
 6905TIP3    H242131   2.584   4.687   5.149  0.1904 -0.4005  1.6063
 6906TIP3   OH242132   2.662   3.565  11.590  0.2662 -0.6560 -0.4384
 6906TIP3    H142133   2.645   3.658  11.606 -0.0050 -0.6676 -0.6486
 6906TIP3    H242134   2.677   3.527  11.677  1.5684 -0.1890 -0.4488
 6907TIP3   OH242135   6.424   5.526  14.023  0.3539  0.0262  0.0535
 6907TIP3    H142136   6.355   5.519  13.957  1.3545 -0.5489 -0.9519
 6907TIP3    H242137   6.399   5.603  14.075 -0.9612 -0.0871 -0.3833
 6908TIP3   OH242138   6.189   5.768  11.356  0.4543 -0.1780  0.3878
 6908TIP3    H142139   6.238   5.714  11.293  0.9622 -1.1610  1.6057
 6908TIP3    H242140   6.117   5.711  11.384  0.4587  0.1205  0.9939
 6909TIP3   OH242141   4.143   4.228   2.597  0.3951 -0.0625  0.0228
 6909TIP3    H142142   4.065   4.276   2.624  0.0841 -0.5465 -0.0017
 6909TIP3    H242143   4.133   4.217   2.503  1.0404  0.8438 -0.1586
 6910TIP3   OH242144   5.844   1.745   0.410 -0.2645 -0.3634  0.1556
 6910TIP3    H142145   5.767   1.763   0.357 -0.3591  0.4520  0.5595
 6910TIP3    H242146   5.809   1.736   0.499  0.2556  1.3181  0.5445
 6911TIP3   OH242147   3.825   2.367  12.533  0.1379  0.4909 -0.2653
 6911TIP3    H142148   3.814   2.272  12.530  0.3612  0.5089 -2.1546
 6911TIP3    H242149   3.752   2.398  12.587  0.1118 -0.7585  0.4259
 6912TIP3   OH242150   5.195   0.394  17.203 -0.0605  0.0424 -0.1354
 6912TIP3    H142151   5.177   0.458  17.272  1.3954 -0.2535  0.5374
 6912TIP3    H242152   5.201   0.446  17.123 -1.5065  0.4180 -0.0190
 6913TIP3   OH242153   1.619   1.343   6.344  0.2029 -0.2501  0.2959
 6913TIP3    H142154   1.597   1.273   6.282  1.1272  0.0318 -0.3661
 6913TIP3    H242155   1.713   1.332   6.361 -0.2902 -1.0582  2.6024
 6914TIP3   OH242156   0.276   2.669  11.765  0.2159 -0.2234 -0.2198
 6914TIP3    H142157   0.332   2.598  11.795  1.7546  0.6895 -0.8865
 6914TIP3    H242158   0.332   2.746  11.765 -1.3448  0.9455  0.1766
 6915TIP3   OH242159   5.144   0.955   5.385 -0.1682 -0.4287  0.4080
 6915TIP3    H142160   5.230   0.916   5.372  0.2198 -0.2719  2.3765
 6915TIP3    H242161   5.087   0.881   5.408 -0.3264 -0.3862  0.1540
 6916TIP3   OH242162   2.347   6.077  14.349 -0.2803 -0.6759  0.4207
 6916TIP3    H142163   2.403   6.124  14.411 -1.9484 -2.4721  3.3877
 6916TIP3    H242164   2.408   6.037  14.287  1.4688  0.7573  1.1668
 6917TIP3   OH242165   4.010   3.040  13.554  0.0877  0.0373 -0.2848
 6917TIP3    H142166   3.982   2.986  13.480  0.4800  1.5946 -1.6095
 6917TIP3    H242167   3.929   3.074  13.592 -0.0378  1.9439 -2.1268
 6918TIP3   OH242168   2.687   0.232  14.756  0.1495  0.3138 -0.0513
 6918TIP3    H142169   2.738   0.240  14.837 -2.3511 -0.6014  1.6762
 6918TIP3    H242170   2.733   0.167  14.704  1.0549 -0.0851  1.2392
 6919TIP3   OH242171   4.981   5.166   1.250  0.0922 -0.5517  0.0562
 6919TIP3    H142172   4.902   5.213   1.278  0.6316  0.1930  0.3436
 6919TIP3    H242173   5.048   5.191   1.313  0.3340 -1.8960  0.3300
 6920TIP3   OH242174   6.424   3.167  10.845  0.1971 -1.2936 -0.4414
 6920TIP3    H142175   6.504   3.213  10.818 -1.4308  0.8442 -1.7792
 6920TIP3    H242176   6.416   3.094  10.783  0.3767 -0.6772 -1.2050
 6921TIP3   OH242177   2.725   2.325  13.484 -0.2991 -0.6778  0.0273
 6921TIP3    H142178   2.685   2.410  13.499 -1.3891 -1.0112 -0.9383
 6921TIP3    H242179   2.810   2.344  13.445 -1.0566 -0.0579 -1.3542
 6922TIP3   OH242180   2.390   4.636  11.692  0.1736 -0.1945  0.1151
 6922TIP3    H142181   2.349   4.717  11.724 -0.6437 -0.0199 -1.3265
 6922TIP3    H242182   2.484   4.651  11.702  0.1971  2.1004 -2.7331
 6923TIP3   OH242183   0.374   5.914   0.600 -0.1440  0.2011  0.2257
 6923TIP3    H142184   0.282   5.924   0.625  0.2230  2.5082  0.7414
 6923TIP3    H242185   0.415   5.997   0.624  1.7706 -0.2283 -1.4214
 6924TIP3   OH242186   2.625   5.983   3.788 -0.0940  0.2057  0.2074
 6924TIP3    H142187   2.574   5.927   3.730 -0.4294  0.0237  0.6758
 6924TIP3    H242188   2.712   5.942   3.790 -0.8566 -1.4026  2.0524
 6925TIP3   OH242189   4.483   3.842  12.218 -0.1286 -0.7747  0.3372
 6925TIP3    H142190   4.542   3.802  12.154  0.5973 -0.2557  0.6895
 6925TIP3    H242191   4.506   3.800  12.301 -1.1618 -1.5466  0.2487
 6926TIP3   OH242192   0.198   3.473   1.575 -0.0311  0.8774  0.3067
 6926TIP3    H142193   0.116   3.515   1.550 -0.3094  0.9091  1.2829
 6926TIP3    H242194   0.251   3.544   1.612 -0.8316  0.2349  2.7742
 6927TIP3   OH242195   5.805   0.153   1.854 -0.3594 -0.1988 -0.3469
 6927TIP3    H142196   5.709   0.145   1.853 -0.4061  0.1553  0.8413
 6927TIP3    H242197   5.822   0.228   1.911  0.5880  0.4260 -1.4210
 6928TIP3   OH242198   6.012   6.671   0.737 -0.4422  0.1150 -0.1679
 6928TIP3    H142199   6.088   6.700   0.686 -0.6248 -0.2158 -0.6308
 6928TIP3    H242200   6.042   6.673   0.828  0.7678 -1.8794 -0.4765
 6929TIP3   OH242201   2.557   2.973  14.469 -0.2322  0.1562  0.0860
 6929TIP3    H142202   2.613   2.931  14.404  1.4886 -0.2767  1.8089
 6929TIP3    H242203   2.608   3.048  14.501 -0.5548 -0.3345  1.7922
 6930TIP3   OH242204   4.028   1.280  11.267  0.1542 -0.1947  0.1846
 6930TIP3    H142205   4.069   1.350  11.316 -1.5988  2.0369 -1.4262
 6930TIP3    H242206   3.951   1.256  11.319  0.9570 -1.2479  0.9265
 6931TIP3   OH242207   4.184   1.903   5.506  0.6801 -0.4045  0.1006
 6931TIP3    H142208   4.104   1.933   5.550 -0.0650 -2.4498  0.1820
 6931TIP3    H242209   4.251   1.965   5.534 -1.5005  3.4441 -2.6569
 6932TIP3   OH242210   3.537   4.743  13.982  0.9468 -0.0277 -0.1375
 6932TIP3    H142211   3.471   4.712  14.044 -1.3829  1.4581 -1.8032
 6932TIP3    H242212   3.572   4.663  13.942 -0.6661 -0.7834 -0.0650
 6933TIP3   OH242213   5.063   3.563  14.880  0.2326 -0.5725  0.6280
 6933TIP3    H142214   5.046   3.480  14.925  0.4102 -0.3687  1.0756
 6933TIP3    H242215   5.113   3.614  14.943  2.0108 -0.9441 -0.4391
 6934TIP3   OH242216   5.007   2.012  12.543 -0.2756  0.0665  0.1908
 6934TIP3    H142217   5.095   2.045  12.527  1.3285 -3.5805  0.8964
 6934TIP3    H242218   4.980   1.974  12.459  0.1537 -1.5935  0.7750
 6935TIP3   OH242219   3.609   0.612   0.773  0.0906 -0.1715  0.0477
 6935TIP3    H142220   3.617   0.679   0.840  0.4456  0.2807 -0.4469
 6935TIP3    H242221   3.699   0.595   0.744 -0.1282  0.2847 -0.9420
 6936TIP3   OH242222   5.520   6.371   1.605  0.0082  0.2768 -0.4527
 6936TIP3    H142223   5.494   6.435   1.671  2.3049  1.0545 -0.2567
 6936TIP3    H242224   5.523   6.287   1.652 -0.8277  0.4058 -0.1713
 6937TIP3   OH242225   3.851   5.835  10.800  0.1324  0.0492  0.6796
 6937TIP3    H142226   3.767   5.878  10.819 -0.4922 -0.8020 -0.1199
 6937TIP3    H242227   3.908   5.861  10.872 -1.5619 -1.3567  2.5930
 6938TIP3   OH242228   0.059   6.305   0.934 -0.0617  0.0916 -0.1408
 6938TIP3    H142229  -0.014   6.366   0.927  0.0932  0.2256 -0.5839
 6938TIP3    H242230   0.077   6.279   0.844  1.8240  1.6733 -0.2331
 6939TIP3   OH242231   4.397   4.924  12.242 -0.0140 -0.8309 -0.1342
 6939TIP3    H142232   4.406   4.957  12.331 -1.7258  0.0144 -0.2475
 6939TIP3    H242233   4.389   4.829  12.252 -3.1835 -0.5058  0.8970
 6940TIP3   OH242234   1.950   3.808  16.069 -0.2834  0.0921 -0.5621
 6940TIP3    H142235   1.993   3.758  16.138 -0.6409  0.3215 -0.1708
 6940TIP3    H242236   1.906   3.742  16.016  1.1317 -0.2071 -1.3805
 6941TIP3   OH242237   3.787   0.962   4.120 -0.0765  0.3268  0.1514
 6941TIP3    H142238   3.851   0.998   4.060 -0.8036  0.2345 -0.6972
 6941TIP3    H242239   3.753   0.884   4.075 -0.4220  0.0936  0.8013
 6942TIP3   OH242240   1.065   2.132  12.994 -0.2880 -0.4837  0.2128
 6942TIP3    H142241   0.989   2.086  13.030 -0.1248 -0.6760  0.3128
 6942TIP3    H242242   1.039   2.152  12.904 -0.7935  0.2236  0.5109
 6943TIP3   OH242243   1.959   6.499   0.129 -0.3919  0.7651 -0.3760
 6943TIP3    H142244   2.044   6.520   0.091 -0.4418 -0.0055 -0.9229
 6943TIP3    H242245   1.968   6.524   0.221  0.6716  0.0146 -0.2667
 6944TIP3   OH242246   6.674   1.222  11.792  0.0900  0.1122 -0.3336
 6944TIP3    H142247   6.766   1.242  11.775  0.3157  0.9118  1.7307
 6944TIP3    H242248   6.625   1.295  11.755  0.4417  0.8221  0.5933
 6945TIP3   OH242249   5.845   6.052  15.095 -0.0692 -0.4947  0.2551
 6945TIP3    H142250   5.820   6.088  15.180 -0.7734  0.5471 -0.3877
 6945TIP3    H242251   5.838   5.957  15.107 -0.0852 -0.3675  1.3773
 6946TIP3   OH242252   1.362   2.145  11.602 -0.0568 -0.6444 -0.6087
 6946TIP3    H142253   1.426   2.130  11.671 -0.7846 -1.0531 -0.0209
 6946TIP3    H242254   1.415   2.154  11.522  0.8337  0.7045  0.1250
 6947TIP3   OH242255   4.563   1.700  17.151 -0.5886  0.5723 -0.0793
 6947TIP3    H142256   4.592   1.679  17.062 -1.4636 -1.7585  0.1429
 6947TIP3    H242257   4.469   1.713  17.144 -0.6811  0.2642  0.5324
 6948TIP3   OH242258   4.872   3.743  14.814 -0.1895  0.1017 -0.2089
 6948TIP3    H142259   4.892   3.829  14.852 -2.0554  0.3951  0.1948
 6948TIP3    H242260   4.941   3.686  14.846  0.6015  1.2745  0.2225
 6949TIP3   OH242261   2.611   6.750   0.215  0.0718  0.7090  0.8762
 6949TIP3    H142262   2.616   6.846   0.221 -1.4366  0.7510  1.4812
 6949TIP3    H242263   2.519   6.731   0.203  0.7647 -0.5040 -3.0471
 6950TIP3   OH242264   1.146   0.255   2.922 -0.1033 -0.1258 -0.1524
 6950TIP3    H142265   1.062   0.289   2.951  1.2417  1.4292  2.1249
 6950TIP3    H242266   1.193   0.234   3.003  1.3510 -1.8886 -1.3955
 6951TIP3   OH242267   1.418   5.437   0.654 -0.8647  0.3522 -0.4742
 6951TIP3    H142268   1.331   5.475   0.660 -1.0296 -0.1414  0.3187
 6951TIP3    H242269   1.452   5.437   0.743  0.4491  1.6754 -0.9580
 6952TIP3   OH242270   0.649   6.379   1.830  0.2219 -0.4973 -0.5916
 6952TIP3    H142271   0.719   6.432   1.869 -0.6494  0.5238 -0.3829
 6952TIP3    H242272   0.658   6.394   1.736  0.3821 -0.4843 -0.5752
 6953TIP3   OH242273   4.069   6.416  13.826  0.5378  0.2974  0.1210
 6953TIP3    H142274   4.111   6.493  13.789 -1.5451  1.5941  0.3845
 6953TIP3    H242275   4.006   6.387  13.760  0.6438 -0.6329  0.4056
 6954TIP3   OH242276   3.641   6.577   1.286  0.3651 -0.8497 -0.3351
 6954TIP3    H142277   3.551   6.610   1.278 -0.1942 -2.3845 -0.5337
 6954TIP3    H242278   3.646   6.540   1.374  0.8027 -0.7637 -0.3209
 6955TIP3   OH242279   4.405   5.412   6.306 -0.0524  0.0192 -0.4293
 6955TIP3    H142280   4.345   5.412   6.381 -1.2169 -1.3501 -1.3495
 6955TIP3    H242281   4.445   5.499   6.308 -1.4829  0.6740  0.6708
 6956TIP3   OH242282   5.488   4.360   4.157  0.3479 -0.4331 -0.8021
 6956TIP3    H142283   5.448   4.295   4.213 -0.6363  0.0597 -0.9202
 6956TIP3    H242284   5.436   4.357   4.076  1.3227 -0.6605 -1.4333
 6957TIP3   OH242285   4.918   5.397  14.486  0.7946  0.2838 -0.1372
 6957TIP3    H142286   4.946   5.343  14.560  2.7984  0.7356 -0.5523
 6957TIP3    H242287   4.861   5.339  14.435  0.3532 -0.4133  1.1024
 6958TIP3   OH242288   0.050   4.490  14.462  0.3482  0.0715  0.3460
 6958TIP3    H142289   0.117   4.520  14.401  0.8781 -1.2793  0.2451
 6958TIP3    H242290   0.058   4.549  14.537  2.6867 -1.0110  0.9897
 6959TIP3   OH242291   2.814   1.131  15.620  0.0296 -0.3827 -0.2290
 6959TIP3    H142292   2.795   1.061  15.683  0.8851 -1.4046 -1.0578
 6959TIP3    H242293   2.907   1.118  15.598  0.3002  1.2655 -0.1085
 6960TIP3   OH242294   1.828   0.219  11.242  0.0996 -0.2331  0.2416
 6960TIP3    H142295   1.747   0.265  11.263  0.6702  0.6461  0.5070
 6960TIP3    H242296   1.811   0.179  11.157 -0.5033  0.2043  0.1536
 6961TIP3   OH242297   2.523   5.525  16.428  0.2699  0.7025 -0.3423
 6961TIP3    H142298   2.554   5.607  16.467  0.1822  1.7451 -2.4092
 6961TIP3    H242299   2.428   5.537  16.421  0.2434  0.3787 -0.5540
 6962TIP3   OH242300   2.014   1.956   0.563 -0.3841 -0.0331  0.1919
 6962TIP3    H142301   1.933   1.942   0.513  1.2104 -2.3172 -1.9228
 6962TIP3    H242302   2.000   1.909   0.645 -0.3974 -2.3953 -1.1141
 6963TIP3   OH242303   1.377   4.100   3.438 -0.5863  0.7410 -0.1888
 6963TIP3    H142304   1.384   4.005   3.443 -0.0216  0.7987  0.1738
 6963TIP3    H242305   1.404   4.131   3.524  0.7194  1.3105 -0.7838
 6964TIP3   OH242306   2.267   1.577   3.854  0.1924 -0.5721  0.2382
 6964TIP3    H142307   2.330   1.505   3.845  1.1240  0.1769  0.6808
 6964TIP3    H242308   2.312   1.653   3.817 -0.3158  0.0465  0.8812
 6965TIP3   OH242309   5.698   4.928   4.788 -0.0356  0.3861 -1.1007
 6965TIP3    H142310   5.751   4.945   4.710  0.7604  1.4517 -0.3467
 6965TIP3    H242311   5.729   4.992   4.852 -1.1194 -0.0619 -0.1152
 6966TIP3   OH242312   5.808   6.369   0.009 -0.1600  0.2412 -0.0250
 6966TIP3    H142313   5.744   6.300   0.025  1.1185 -1.2527 -1.1839
 6966TIP3    H242314   5.852   6.343  -0.072  1.3455  1.6747  0.2959
 6967TIP3   OH242315   5.572   1.638  11.272  0.1139  0.2464 -0.1581
 6967TIP3    H142316   5.530   1.709  11.223  1.5415  0.8545 -0.5224
 6967TIP3    H242317   5.609   1.680  11.349  0.2979 -0.2440  0.0207
 6968TIP3   OH242318   6.711   5.559  13.014  0.0899 -0.1492 -0.2484
 6968TIP3    H142319   6.803   5.584  13.024  0.1531 -1.0678  1.5556
 6968TIP3    H242320   6.663   5.619  13.070 -0.3753  0.0474 -0.8537
 6969TIP3   OH242321   1.138   6.043  13.109  0.2038  0.7007 -0.0519
 6969TIP3    H142322   1.188   5.987  13.049 -1.1939 -1.6723  0.9010
 6969TIP3    H242323   1.187   6.038  13.191 -0.7661 -0.4894  0.4839
 6970TIP3   OH242324   5.541   5.389   3.369  0.7629 -0.1196  0.0865
 6970TIP3    H142325   5.551   5.302   3.407 -0.4966 -0.3725 -0.1197
 6970TIP3    H242326   5.446   5.405   3.371  1.0846  1.8209  1.4010
 6971TIP3   OH242327   0.914   3.462  11.858  0.1374  0.2322 -0.0474
 6971TIP3    H142328   0.857   3.404  11.807 -0.0627 -0.8008  1.3163
 6971TIP3    H242329   0.909   3.546  11.813  0.9762 -0.9603 -2.4696
 6972TIP3   OH242330   0.007   6.457  16.738 -0.6379 -0.4992 -0.3893
 6972TIP3    H142331  -0.021   6.388  16.678 -0.1748  1.3896 -2.8898
 6972TIP3    H242332   0.053   6.519  16.682 -1.5344  2.1175  1.6693
 6973TIP3   OH242333   0.065   3.218   1.984  0.4749  0.3409 -0.0148
 6973TIP3    H142334   0.149   3.196   1.945  0.6239  1.0123 -0.0706
 6973TIP3    H242335   0.085   3.285   2.049  0.0927 -0.0574  0.5246
 6974TIP3   OH242336   4.883   3.026   5.282 -0.0016 -0.3158  0.0189
 6974TIP3    H142337   4.955   3.074   5.241  0.2873 -1.2356 -0.5763
 6974TIP3    H242338   4.804   3.067   5.246  0.2427 -0.2802 -0.4818
 6975TIP3   OH242339   5.836   0.701   5.905  0.0150 -0.7124 -0.0463
 6975TIP3    H142340   5.838   0.615   5.947 -2.8980 -0.9134 -0.2735
 6975TIP3    H242341   5.873   0.760   5.971  2.3969 -2.1374 -0.0287
 6976TIP3   OH242342   1.512   4.710  13.928  0.2872 -0.0567  0.5409
 6976TIP3    H142343   1.557   4.778  13.878 -0.4609 -0.7726 -1.1003
 6976TIP3    H242344   1.440   4.756  13.971 -1.2191 -0.0747 -1.8742
 6977TIP3   OH242345   3.645   1.793   2.117  0.2162 -0.0010  0.1521
 6977TIP3    H142346   3.624   1.843   2.039 -0.8406  0.2880  0.6110
 6977TIP3    H242347   3.644   1.856   2.188  0.4325 -0.3952  0.5125
 6978TIP3   OH242348   1.364   3.841   4.327  0.1137 -0.1155  0.1694
 6978TIP3    H142349   1.363   3.852   4.232  0.8279  1.0845  0.3007
 6978TIP3    H242350   1.435   3.778   4.342  1.0161  0.8485  0.0195
 6979TIP3   OH242351   4.539   1.020   0.513 -0.3293 -0.5470  0.7634
 6979TIP3    H142352   4.506   1.036   0.601 -2.3814  0.4620 -0.1477
 6979TIP3    H242353   4.477   0.958   0.475  0.6100 -1.0718  0.0629
 6980TIP3   OH242354   4.852   2.483  12.720 -0.8769 -0.3527 -0.1095
 6980TIP3    H142355   4.784   2.442  12.774 -1.2776 -0.1946 -0.4893
 6980TIP3    H242356   4.843   2.576  12.738  1.0516 -0.5153  1.9432
 6981TIP3   OH242357   6.730   1.397  14.972 -0.2870 -0.0505 -0.1168
 6981TIP3    H142358   6.788   1.409  15.047 -0.9778 -1.3455  0.6408
 6981TIP3    H242359   6.779   1.433  14.898  0.6773  0.6288  0.8338
 6982TIP3   OH242360   5.870   1.792   1.712 -0.5475  0.2167  0.1976
 6982TIP3    H142361   5.774   1.797   1.709 -0.7028 -1.3267  1.6899
 6982TIP3    H242362   5.891   1.708   1.672  0.1814  0.5859 -0.1933
 6983TIP3   OH242363   3.048   5.405  16.211  0.2387 -0.2204 -0.6748
 6983TIP3    H142364   3.140   5.409  16.235  0.5522 -1.6240 -1.6234
 6983TIP3    H242365   3.016   5.323  16.248 -0.5616  0.1080 -0.6100
 6984TIP3   OH242366   6.071   5.282   3.717 -0.1142 -0.7278  0.0871
 6984TIP3    H142367   6.118   5.245   3.642  1.6690 -0.4765  1.0618
 6984TIP3    H242368   6.136   5.335   3.762 -1.0947 -1.0779  1.9554
 6985TIP3   OH242369   2.919   3.816  12.811  0.3982  0.0455  0.2736
 6985TIP3    H142370   2.837   3.769  12.828  0.1719 -0.0030 -0.9176
 6985TIP3    H242371   2.950   3.843  12.898 -0.8968  0.0957  0.7304
 6986TIP3   OH242372   0.393   4.192   6.657  0.1481 -0.2816  0.4061
 6986TIP3    H142373   0.455   4.211   6.587  0.0518 -1.0348  0.1082
 6986TIP3    H242374   0.310   4.228   6.627 -0.4379 -2.6733 -0.9459
 6987TIP3   OH242375   1.417   2.770   6.417  0.1755  0.6860 -0.4595
 6987TIP3    H142376   1.486   2.799   6.476  0.3757  1.5323 -1.0874
 6987TIP3    H242377   1.357   2.845   6.413 -1.4344 -0.5151  1.0664
 6988TIP3   OH242378   1.544   4.777  11.337 -0.9503  0.9967  0.0372
 6988TIP3    H142379   1.474   4.820  11.289 -2.4698  0.6687  1.9151
 6988TIP3    H242380   1.591   4.848  11.380 -0.5039  1.1618 -0.7136
 6989TIP3   OH242381   3.921   1.699  14.487  0.0315  0.3052 -0.4675
 6989TIP3    H142382   3.954   1.672  14.401  0.0086 -0.9612 -0.0800
 6989TIP3    H242383   3.957   1.635  14.548 -1.5910  0.0278  0.2229
 6990TIP3   OH242384   6.158   0.998  13.014  0.4280  0.5834  0.3652
 6990TIP3    H142385   6.251   1.017  13.024  0.6453 -0.8127  1.0521
 6990TIP3    H242386   6.154   0.904  12.997 -0.7945  0.7921 -0.6244
 6991TIP3   OH242387   6.625   0.975   1.499  0.4102 -0.6011 -0.3539
 6991TIP3    H142388   6.581   1.061   1.496  1.9962  0.4329  3.4485
 6991TIP3    H242389   6.671   0.969   1.415  1.9649  3.2457  0.1201
 6992TIP3   OH242390   2.649   4.011   5.392  0.1299 -0.1336 -0.4230
 6992TIP3    H142391   2.662   4.038   5.483  1.3414  3.3010 -1.5507
 6992TIP3    H242392   2.716   3.944   5.377  0.5346 -0.0402  0.9011
 6993TIP3   OH242393   0.129   3.381   3.691  0.7584  0.0282 -0.0198
 6993TIP3    H142394   0.170   3.467   3.678  1.1159 -0.0558  0.5197
 6993TIP3    H242395   0.045   3.387   3.646  1.0753  0.4349 -0.5523
 6994TIP3   OH242396   1.083   2.968  13.924  0.2711  0.3498  0.6985
 6994TIP3    H142397   1.146   2.906  13.886 -0.5162 -1.3400  2.0828
 6994TIP3    H242398   1.128   3.004  14.000 -0.2437 -0.5143  1.4220
 6995TIP3   OH242399   6.667   4.207  14.844  0.1585  0.3212 -0.3931
 6995TIP3    H142400   6.750   4.224  14.889 -0.0837  2.4435 -0.7125
 6995TIP3    H242401   6.682   4.125  14.796  1.5546 -0.1199  0.7773
 6996TIP3   OH242402   5.372   3.706   0.988  0.0764  0.1048 -0.2843
 6996TIP3    H142403   5.354   3.667   0.903  1.0148 -0.5370 -0.1955
 6996TIP3    H242404   5.421   3.786   0.968  0.5656 -0.2051 -0.3437
 6997TIP3   OH242405   6.415   3.061   0.073  0.1315  0.0314  0.7641
 6997TIP3    H142406   6.410   3.156   0.075 -0.8227 -0.0257  1.3081
 6997TIP3    H242407   6.357   3.032   0.143 -0.7765 -0.9865 -0.3824
 6998TIP3   OH242408   3.630   1.742  16.839  0.5985 -0.6954 -0.2577
 6998TIP3    H142409   3.543   1.758  16.877  0.9785 -1.3564  0.9317
 6998TIP3    H242410   3.661   1.664  16.884  1.0134 -1.6121 -2.0984
 6999TIP3   OH242411   4.634   4.160  12.769  0.0127  0.2626  0.0342
 6999TIP3    H142412   4.693   4.123  12.703 -0.7949 -1.4464  0.2477
 6999TIP3    H242413   4.546   4.151  12.731 -0.3137  0.7075  0.6666
 7000TIP3   OH242414   1.943   0.067   4.839 -0.3742  0.5203 -0.3379
 7000TIP3    H142415   1.880   0.135   4.864 -1.0816 -0.4486  0.5018
 7000TIP3    H242416   1.949   0.076   4.743 -0.3488  1.8558 -0.2305
 7001TIP3   OH242417   2.714   0.316   1.496 -0.1582  0.3284 -0.1523
 7001TIP3    H142418   2.693   0.300   1.404  1.7074  3.6737 -1.2594
 7001TIP3    H242419   2.630   0.334   1.538 -0.8209  0.5955 -1.5865
 7002TIP3   OH242420   5.293   5.283  13.628  0.3705  0.3179  0.1536
 7002TIP3    H142421   5.288   5.188  13.620  0.4387  0.4325 -1.3595
 7002TIP3    H242422   5.254   5.316  13.548  0.4714  1.5701  0.6098
 7003TIP3   OH242423   5.667   3.747   3.256  0.4652 -0.5278 -0.9152
 7003TIP3    H142424   5.599   3.785   3.200  1.4064  2.2614 -0.2484
 7003TIP3    H242425   5.723   3.821   3.280  0.7746 -1.8365  2.7337
 7004TIP3   OH242426   5.495   2.717   5.977 -0.6849 -0.3239  0.3404
 7004TIP3    H142427   5.416   2.679   5.940 -0.1938  1.0066 -2.1867
 7004TIP3    H242428   5.511   2.796   5.925  1.8680 -0.1465  1.3084
 7005TIP3   OH242429   1.218   4.700  16.924 -0.4519  0.4603  0.0683
 7005TIP3    H142430   1.174   4.649  16.992  1.4710 -0.4055  0.6991
 7005TIP3    H242431   1.182   4.666  16.841 -1.3003  0.1018  0.5731
 7006TIP3   OH242432   6.303   6.731  11.316 -0.3644 -0.3406 -0.1270
 7006TIP3    H142433   6.243   6.804  11.300  0.8685  0.4769 -1.1827
 7006TIP3    H242434   6.294   6.712  11.409 -1.7382  0.2351 -0.1373
 7007TIP3   OH242435   3.094   1.155  11.902 -0.0609  0.7306 -0.0832
 7007TIP3    H142436   2.999   1.149  11.911  0.0731 -0.7552  0.3825
 7007TIP3    H242437   3.113   1.247  11.919 -1.2442  0.6955  1.5809
 7008TIP3   OH242438   3.957   1.338  16.326  0.1684  0.0527  0.0607
 7008TIP3    H142439   3.909   1.276  16.270  0.2672  0.6273 -0.6611
 7008TIP3    H242440   4.006   1.392  16.265  1.3313 -0.1773  0.7794
 7009TIP3   OH242441   4.643   1.017   1.317 -0.1964  0.5061  0.5724
 7009TIP3    H142442   4.571   0.962   1.347 -1.1844  1.7427  0.4765
 7009TIP3    H242443   4.704   1.020   1.390  0.6735 -2.0571  0.0156
 7010TIP3   OH242444   6.472   0.100  11.571 -0.1941 -0.0040 -0.1095
 7010TIP3    H142445   6.410   0.028  11.585 -0.3974  0.4652  1.4752
 7010TIP3    H242446   6.470   0.149  11.652  1.7039  0.4570 -0.3264
 7011TIP3   OH242447   5.843   0.684   3.437  0.3247  0.0816 -0.0770
 7011TIP3    H142448   5.882   0.735   3.365  0.4604  2.0044  1.3157
 7011TIP3    H242449   5.763   0.732   3.459  0.1813 -0.6159  0.9107
 7012TIP3   OH242450   4.218   2.523   2.634 -0.4550  0.0231 -0.3818
 7012TIP3    H142451   4.215   2.619   2.635 -0.0157  0.1362 -3.5723
 7012TIP3    H242452   4.137   2.496   2.678 -1.6932  1.8867 -1.4234
 7013TIP3   OH242453   0.747   5.840  12.817  0.0287 -0.0274  0.2359
 7013TIP3    H142454   0.692   5.918  12.824  0.4237  0.4466 -1.6831
 7013TIP3    H242455   0.685   5.767  12.814 -0.5134  0.4880 -1.6607
 7014TIP3   OH242456   5.885   1.637  13.650 -0.1648  0.1805 -0.1595
 7014TIP3    H142457   5.863   1.564  13.707 -1.2576 -0.4556 -1.3804
 7014TIP3    H242458   5.962   1.676  13.690  1.0441 -2.2452 -0.0448
 7015TIP3   OH242459   0.964   3.481   5.636 -0.3169  0.6207  0.1944
 7015TIP3    H142460   1.002   3.569   5.633  1.6393 -0.1622  1.1595
 7015TIP3    H242461   0.966   3.451   5.545  1.5882  0.5549  0.2259
 7016TIP3   OH242462   0.163   0.461   1.942  0.3463 -0.5075 -0.4608
 7016TIP3    H142463   0.104   0.533   1.960 -1.0065 -1.1302 -2.3494
 7016TIP3    H242464   0.251   0.500   1.946 -0.0476  0.2511  3.1915
 7017TIP3   OH242465   1.559   6.713   4.859  0.2726 -0.0677 -0.5033
 7017TIP3    H142466   1.564   6.786   4.920 -0.0752 -0.2081 -0.3090
 7017TIP3    H242467   1.488   6.735   4.800  0.2466 -0.1930 -0.5182
 7018TIP3   OH242468   2.831   1.502  10.518 -0.8993  0.7251  0.0658
 7018TIP3    H142469   2.859   1.457  10.438 -0.0036  1.2176  0.0907
 7018TIP3    H242470   2.751   1.457  10.545 -0.2749 -0.5415 -0.1725
 7019TIP3   OH242471   3.881   2.560   1.205 -0.4678  0.6901  0.9582
 7019TIP3    H142472   3.794   2.576   1.243 -0.0266  2.2873  1.3425
 7019TIP3    H242473   3.865   2.554   1.111 -1.0715  0.4529  1.0758
 7020TIP3   OH242474   0.141   0.223  15.037  0.1031 -0.2799 -0.1361
 7020TIP3    H142475   0.050   0.191  15.039 -1.1619  3.2043  0.7990
 7020TIP3    H242476   0.180   0.178  14.961 -2.5237 -1.5103 -0.8186
 7021TIP3   OH242477   3.349   2.255  10.921  0.0657  0.5233  0.3987
 7021TIP3    H142478   3.291   2.247  10.996 -0.8801 -0.6081 -0.4282
 7021TIP3    H242479   3.316   2.331  10.873  0.1658  0.7489  0.6844
 7022TIP3   OH242480   0.191   5.700  12.177  0.0755 -0.0159  0.5155
 7022TIP3    H142481   0.280   5.666  12.189  1.2852  2.3828 -1.2029
 7022TIP3    H242482   0.163   5.727  12.265  0.9644 -0.9656  1.0954
 7023TIP3   OH242483   2.902   0.096  14.612  0.2109 -0.0046  0.2817
 7023TIP3    H142484   2.983   0.147  14.606  0.9270 -1.3311 -2.4769
 7023TIP3    H242485   2.896   0.051  14.527 -2.1188 -1.8843  1.3744
 7024TIP3   OH242486   5.957   1.909   3.678  0.1003 -0.1029  0.0875
 7024TIP3    H142487   5.891   1.967   3.639 -0.0427  0.4315  1.0896
 7024TIP3    H242488   5.985   1.853   3.606 -0.8180  0.2463 -0.5633
 7025TIP3   OH242489   3.546   2.347  12.434  0.1732 -0.1720 -0.0271
 7025TIP3    H142490   3.536   2.378  12.524 -0.6029 -0.3491 -0.0526
 7025TIP3    H242491   3.478   2.393  12.384  0.9450  0.3386 -0.6311
 7026TIP3   OH242492   2.329   6.100   0.588 -0.2759 -0.5765  0.5727
 7026TIP3    H142493   2.396   6.038   0.558  0.8359 -0.1830  2.1632
 7026TIP3    H242494   2.247   6.053   0.580  0.2047 -1.1240 -1.2868
 7027TIP3   OH242495   6.692   1.683   3.261  0.0697 -0.5233  0.1254
 7027TIP3    H142496   6.669   1.664   3.352  1.4618 -1.0348  0.3836
 7027TIP3    H242497   6.745   1.608   3.234 -0.1709 -0.2784 -1.0407
 7028TIP3   OH242498   5.305   5.271   0.594 -0.5257 -0.2280 -0.8934
 7028TIP3    H142499   5.258   5.221   0.661  0.9438 -1.8860 -1.0522
 7028TIP3    H242500   5.337   5.349   0.639 -0.4062 -0.8430  0.0992
 7029TIP3   OH242501   1.908   1.220   2.791 -0.1205  0.1207  0.5974
 7029TIP3    H142502   1.827   1.270   2.782 -0.4617 -0.5986 -0.4245
 7029TIP3    H242503   1.905   1.185   2.880 -1.1135 -0.2097  0.4419
 7030TIP3   OH242504   5.475   3.059  13.748  0.5040 -0.6229 -0.0562
 7030TIP3    H142505   5.511   3.147  13.736 -1.3871  0.2484  0.5210
 7030TIP3    H242506   5.491   3.040  13.840  0.3267 -0.6331 -0.0290
 7031TIP3   OH242507   3.749   2.332   5.511 -0.0634 -0.5253 -0.5317
 7031TIP3    H142508   3.778   2.350   5.421 -1.3944 -1.2897 -1.1324
 7031TIP3    H242509   3.795   2.397   5.564  1.3239 -0.5482 -1.6702
 7032TIP3   OH242510   3.053   1.300  13.060 -0.0673  0.4857 -0.1347
 7032TIP3    H142511   3.092   1.246  12.991 -0.5541 -1.4901  1.1066
 7032TIP3    H242512   3.124   1.355  13.091  0.1411  1.4910 -2.2755
 7033TIP3   OH242513   0.914   3.935   1.696  0.3966  0.4688 -0.0713
 7033TIP3    H142514   0.840   3.985   1.662 -0.1697 -0.8082 -0.7591
 7033TIP3    H242515   0.968   3.916   1.618  1.3525  1.2140  0.3912
 7034TIP3   OH242516   1.440   2.631  10.995  0.3081  0.0098  0.1291
 7034TIP3    H142517   1.431   2.608  11.088  1.1155  2.2025  0.7690
 7034TIP3    H242518   1.533   2.647  10.983  0.5039 -2.1102 -1.5471
 7035TIP3   OH242519   1.896   0.604   5.777 -0.2979  0.1696  0.4006
 7035TIP3    H142520   1.894   0.515   5.814  1.2318 -0.4763 -0.9980
 7035TIP3    H242521   1.970   0.646   5.821  0.4079 -0.0121 -0.6049
 7036TIP3   OH242522   0.974   6.255  11.965  0.3250  0.0399  0.1499
 7036TIP3    H142523   0.994   6.232  11.874 -0.9485  0.7785 -0.3389
 7036TIP3    H242524   0.917   6.332  11.958 -0.0862 -0.1190  1.5685
 7037TIP3   OH242525   1.210   6.603  12.772  0.2788 -0.1038  0.4141
 7037TIP3    H142526   1.281   6.666  12.769 -0.2056  0.6273  3.3000
 7037TIP3    H242527   1.211   6.569  12.861 -2.2785 -0.8897  0.1879
 7038TIP3   OH242528   0.544   5.661  13.390 -0.3707 -0.1710 -0.2648
 7038TIP3    H142529   0.521   5.595  13.325  1.3106  1.9747 -3.1571
 7038TIP3    H242530   0.632   5.637  13.419 -1.2310 -1.2891  1.4802
 7039TIP3   OH242531   5.636   4.701   2.828 -0.0432  0.4063 -0.4046
 7039TIP3    H142532   5.721   4.710   2.871 -0.0570 -0.6892 -0.1200
 7039TIP3    H242533   5.586   4.776   2.858 -0.0255 -0.2993  1.4426
 7040TIP3   OH242534   4.245   4.121  12.120  0.7879 -0.1150  0.1268
 7040TIP3    H142535   4.332   4.159  12.121  0.4960  0.6176 -1.5876
 7040TIP3    H242536   4.208   4.147  12.036 -0.7523 -1.1658  0.4614
 7041TIP3   OH242537   1.766   2.837   0.956 -0.0268  0.0275  0.1758
 7041TIP3    H142538   1.683   2.870   0.991  0.6526  0.7404  1.1478
 7041TIP3    H242539   1.774   2.879   0.870 -0.8364 -0.3250 -0.0795
 7042TIP3   OH242540   4.208   4.464   0.350  0.3401  0.3989 -0.1322
 7042TIP3    H142541   4.229   4.371   0.343  0.3963  0.3304  0.8041
 7042TIP3    H242542   4.214   4.483   0.444  0.6809  1.4316 -0.3524
 7043TIP3   OH242543   1.116   3.376   3.301 -0.2808  0.1731 -0.6131
 7043TIP3    H142544   1.178   3.325   3.249 -0.5717  1.1795 -1.9571
 7043TIP3    H242545   1.143   3.361   3.392  0.3246 -1.4699 -1.0415
 7044TIP3   OH242546   3.776   2.642  14.772  0.0753  0.2160  0.0409
 7044TIP3    H142547   3.814   2.554  14.770 -2.4012 -0.9043 -0.0568
 7044TIP3    H242548   3.684   2.628  14.751 -0.0932  3.0081 -1.2395
 7045TIP3   OH242549   2.458   2.091   4.818 -0.3835  0.2156 -0.2684
 7045TIP3    H142550   2.448   2.185   4.829  0.5793  0.1964  0.9528
 7045TIP3    H242551   2.551   2.080   4.795 -0.2442 -0.4996  0.6040
 7046TIP3   OH242552   6.218   0.264   0.349  0.2901  0.2161 -0.4710
 7046TIP3    H142553   6.224   0.212   0.269 -0.1056  0.5601 -0.7279
 7046TIP3    H242554   6.225   0.355   0.319 -1.0110  0.4046 -0.2498
 7047TIP3   OH242555   1.034   5.504  15.835  0.4852  0.0754  0.3165
 7047TIP3    H142556   0.993   5.418  15.844  0.1955  0.1654 -0.1288
 7047TIP3    H242557   1.045   5.515  15.741 -0.1087  0.8234  0.3326
 7048TIP3   OH242558   2.126   1.440  12.843 -0.2252 -0.2106  0.5702
 7048TIP3    H142559   2.095   1.425  12.754 -0.3970 -1.5241  0.8471
 7048TIP3    H242560   2.126   1.535  12.852  0.5118 -0.0446 -1.0767
 7049TIP3   OH242561   1.050   3.104   0.303 -0.4846  0.3622 -0.1974
 7049TIP3    H142562   0.993   3.175   0.331  0.4387  1.1806 -0.3480
 7049TIP3    H242563   1.024   3.029   0.357 -0.9462  1.0308  0.5199
 7050TIP3   OH242564   4.038   3.225  12.731 -0.3010  0.2199  0.2554
 7050TIP3    H142565   3.954   3.209  12.772  0.0358  0.4822  1.0648
 7050TIP3    H242566   4.017   3.247  12.640 -1.0939  0.1977  0.4315
 7051TIP3   OH242567   4.639   5.956  16.767  0.1848 -0.5567  0.3509
 7051TIP3    H142568   4.558   5.906  16.766  0.5350 -1.1185 -0.3830
 7051TIP3    H242569   4.656   5.972  16.860 -0.8623 -0.2603  0.4925
 7052TIP3   OH242570   3.383   2.004   1.150 -0.0360 -0.4219 -0.1751
 7052TIP3    H142571   3.371   2.025   1.243 -0.3805  0.7570 -0.4814
 7052TIP3    H242572   3.477   2.019   1.135 -0.1780  0.3913 -0.2631
 7053TIP3   OH242573   2.557   2.927  14.043  0.0578 -1.0483 -0.6515
 7053TIP3    H142574   2.593   2.882  13.967  1.4721 -1.9712  0.5425
 7053TIP3    H242575   2.631   2.937  14.103 -0.8913  0.2453  0.3394
 7054TIP3   OH242576   2.671   3.785   0.075  0.3980 -0.1652  0.0332
 7054TIP3    H142577   2.658   3.820   0.164 -0.9746 -0.0171 -0.2216
 7054TIP3    H242578   2.618   3.706   0.072  1.9195 -1.1975 -0.0602
 7055TIP3   OH242579   0.197   0.988  12.920  0.8616  0.3180  0.6833
 7055TIP3    H142580   0.269   0.962  12.862  0.5247  0.2916  0.2700
 7055TIP3    H242581   0.139   0.912  12.920  0.0817  0.9059 -0.1951
 7056TIP3   OH242582   4.857   0.550  16.420  0.2904  0.8864  0.1458
 7056TIP3    H142583   4.821   0.481  16.364 -0.2296  2.6812 -1.7897
 7056TIP3    H242584   4.793   0.622  16.413  2.0831  2.5019  0.0933
 7057TIP3   OH242585   0.358   2.340   1.819 -0.1628  1.1174 -0.1660
 7057TIP3    H142586   0.427   2.385   1.867  0.5741  0.0028 -0.1679
 7057TIP3    H242587   0.379   2.354   1.727 -0.0020  0.8706 -0.1665
 7058TIP3   OH242588   2.974   0.331  16.101 -0.4028  0.1101 -0.2603
 7058TIP3    H142589   2.932   0.407  16.140  0.7198  1.1073 -0.9868
 7058TIP3    H242590   2.912   0.301  16.035 -1.0250  0.1332  0.3025
 7059TIP3   OH242591   4.319   4.808   1.852 -0.8113 -0.1327  0.4521
 7059TIP3    H142592   4.234   4.837   1.819 -0.1033  0.7121 -0.6705
 7059TIP3    H242593   4.356   4.756   1.781 -0.4132 -0.5340  0.9501
 7060TIP3   OH242594   6.112   4.757  12.211 -0.0280 -0.2426 -0.0133
 7060TIP3    H142595   6.195   4.712  12.227  1.3904  1.7929 -1.3359
 7060TIP3    H242596   6.098   4.748  12.116 -0.7265  0.4125  0.0247
 7061TIP3   OH242597   4.244   2.633   0.761  0.0007 -0.0984 -0.2091
 7061TIP3    H142598   4.265   2.574   0.688 -0.2142 -0.0378 -0.3204
 7061TIP3    H242599   4.312   2.701   0.757  0.4445 -0.5222  0.1253
 7062TIP3   OH242600   4.183   0.801   4.082 -0.0449 -0.1248 -0.5688
 7062TIP3    H142601   4.248   0.864   4.112 -0.0628 -0.6143  0.5414
 7062TIP3    H242602   4.209   0.779   3.993  0.5296  0.6928 -0.6046
 7063TIP3   OH242603   2.750   4.471   3.285  0.4724 -0.3128  0.1672
 7063TIP3    H142604   2.675   4.436   3.332  0.2875  0.4472  0.4563
 7063TIP3    H242605   2.820   4.475   3.350  1.4755 -3.2405 -0.6905
 7064TIP3   OH242606   6.405   2.675  11.735  0.5827 -0.0939  0.1778
 7064TIP3    H142607   6.327   2.619  11.743  1.6110 -1.8925 -1.8672
 7064TIP3    H242608   6.455   2.658  11.815  0.9271 -2.2326 -0.4527
 7065TIP3   OH242609   1.319   2.010  15.244  0.0608  0.6467  0.3453
 7065TIP3    H142610   1.229   2.041  15.236  0.5135  1.9104  0.0413
 7065TIP3    H242611   1.366   2.082  15.286  0.4066 -0.9987  2.9092
 7066TIP3   OH242612   4.014   5.245   2.527 -0.0927  0.3666  0.1387
 7066TIP3    H142613   4.045   5.205   2.609 -0.4663  0.8122  0.4990
 7066TIP3    H242614   4.075   5.213   2.461  1.5578  1.7471  0.9504
 7067TIP3   OH242615   6.387   5.814   0.725 -0.3369 -0.0514  0.4113
 7067TIP3    H142616   6.464   5.870   0.716  0.7415 -1.5676 -0.0188
 7067TIP3    H242617   6.410   5.752   0.794 -0.6586 -1.3136 -0.5788
 7068TIP3   OH242618   2.632   4.216  15.529 -0.1802 -0.5247  0.3254
 7068TIP3    H142619   2.567   4.170  15.477 -0.6670 -0.7690  1.1404
 7068TIP3    H242620   2.675   4.148  15.580  0.3015 -0.2900  0.2339
 7069TIP3   OH242621   4.105   4.809  16.042  0.4297 -0.4295  0.0907
 7069TIP3    H142622   4.010   4.803  16.030  0.2470  1.1847  0.5616
 7069TIP3    H242623   4.122   4.903  16.050  2.1060 -0.6838 -0.2607
 7070TIP3   OH242624   5.488   3.768  13.654 -0.3201 -0.1357 -0.2302
 7070TIP3    H142625   5.563   3.753  13.712  0.6404  1.6356 -0.9791
 7070TIP3    H242626   5.526   3.808  13.576 -2.0274  0.6597 -0.6771
 7071TIP3   OH242627   4.255   3.165  13.102  0.5817 -0.5387 -0.4624
 7071TIP3    H142628   4.282   3.191  13.190  0.5086 -0.7739 -0.3690
 7071TIP3    H242629   4.251   3.247  13.053 -0.4004 -0.2858  0.0298
 7072TIP3   OH242630   3.596   6.519  14.616  0.4112 -0.1649 -0.5998
 7072TIP3    H142631   3.617   6.508  14.708  0.9847  0.0394 -0.7050
 7072TIP3    H242632   3.594   6.430  14.581  3.2310 -0.0829 -1.0540
 7073TIP3   OH242633   6.149   5.289  14.320  0.0764  0.2973 -0.2661
 7073TIP3    H142634   6.085   5.306  14.389 -2.4712 -2.7013 -1.7929
 7073TIP3    H242635   6.115   5.336  14.244  1.0066  0.7077 -0.4340
 7074TIP3   OH242636   6.052   5.508   3.213 -0.0820 -0.9128  0.5436
 7074TIP3    H142637   6.052   5.443   3.143  0.3186 -0.4597  0.1155
 7074TIP3    H242638   5.967   5.551   3.205  0.0518 -0.7100  0.1887
 7075TIP3   OH242639   4.029   5.086   4.099  0.8392 -0.9102 -0.1075
 7075TIP3    H142640   4.019   5.172   4.059 -0.2482  0.0075  2.0775
 7075TIP3    H242641   4.054   5.029   4.026  2.2963  1.3702 -1.4475
 7076TIP3   OH242642   0.771   0.684   5.837 -0.5392  0.1271 -0.3207
 7076TIP3    H142643   0.775   0.614   5.902  0.4650 -0.0076 -0.5113
 7076TIP3    H242644   0.700   0.741   5.866 -2.8643 -2.1496 -1.3448
 7077TIP3   OH242645   0.724   0.745   5.299 -0.0378 -0.1011 -0.4437
 7077TIP3    H142646   0.787   0.744   5.226  1.2353  0.9273  0.6152
 7077TIP3    H242647   0.690   0.656   5.302  1.3405 -0.6728 -1.0784
 7078TIP3   OH242648   5.168   1.091  16.993 -0.3973 -0.2931 -0.9277
 7078TIP3    H142649   5.261   1.089  17.014  0.1159  1.2213 -2.8620
 7078TIP3    H242650   5.159   1.032  16.918 -0.6742  0.9004 -1.8450
 7079TIP3   OH242651   1.448   3.581   0.408 -0.0042 -0.3710  0.4350
 7079TIP3    H142652   1.456   3.552   0.499  0.2501 -0.4626  0.3850
 7079TIP3    H242653   1.492   3.666   0.406  2.5211 -1.6357 -0.2113
 7080TIP3   OH242654   1.494   2.294   4.629 -0.4678 -0.1919  0.2832
 7080TIP3    H142655   1.507   2.222   4.568 -0.9931 -0.2394  0.2285
 7080TIP3    H242656   1.408   2.330   4.606 -0.6344 -0.1647  0.9491
 7081TIP3   OH242657   1.846   4.507   4.109 -0.6689 -0.0456 -0.5449
 7081TIP3    H142658   1.888   4.592   4.099 -0.6986  0.0617  0.2101
 7081TIP3    H242659   1.886   4.452   4.041 -0.7521  0.6048 -1.1272
 7082TIP3   OH242660   4.450   3.520  15.193  0.1531  0.0583  0.0159
 7082TIP3    H142661   4.447   3.606  15.151  0.0345  0.8630  1.6597
 7082TIP3    H242662   4.531   3.521  15.244  0.4979 -1.0631 -0.4929
 7083TIP3   OH242663   2.265   1.660  16.292 -0.3172 -0.4477  0.0016
 7083TIP3    H142664   2.238   1.600  16.222 -1.9027 -0.7988  0.8866
 7083TIP3    H242665   2.269   1.605  16.370 -0.7777  0.3854  0.6192
 7084TIP3   OH242666   3.251   0.523  16.720 -0.4567 -0.6527 -0.8682
 7084TIP3    H142667   3.301   0.472  16.783 -0.6526  0.8078  0.5157
 7084TIP3    H242668   3.303   0.521  16.640 -0.2387 -2.5942 -0.7065
 7085TIP3   OH242669   1.087   0.365   3.861  0.5897  0.5282 -0.2698
 7085TIP3    H142670   1.054   0.278   3.883  0.8688  0.1556 -1.3120
 7085TIP3    H242671   1.010   0.422   3.872 -0.0444 -0.1176 -1.3069
 7086TIP3   OH242672   0.978   2.062   2.467 -0.6021 -1.1099  0.3763
 7086TIP3    H142673   0.890   2.091   2.495 -0.1724 -0.3436  0.9718
 7086TIP3    H242674   1.009   2.007   2.539 -0.6751 -1.5542  0.0703
 7087TIP3   OH242675   4.600   4.219  10.869  0.7262 -0.7432  0.0423
 7087TIP3    H142676   4.639   4.305  10.857 -0.4753 -0.0337  1.0417
 7087TIP3    H242677   4.612   4.174  10.786  1.4660  0.3558 -0.4430
 7088TIP3   OH242678   4.074   4.400   3.213 -0.1334  0.1010  0.3006
 7088TIP3    H142679   4.079   4.316   3.259 -0.2381 -0.3032 -0.4137
 7088TIP3    H242680   3.983   4.427   3.224 -0.2114 -0.0985  0.1512
 7089TIP3   OH242681   4.997   1.318  13.390  0.4526 -0.4861 -0.0177
 7089TIP3    H142682   4.992   1.334  13.484  0.4392  2.3834 -0.4823
 7089TIP3    H242683   4.913   1.278  13.368 -0.1237  0.1831  0.9375
 7090TIP3   OH242684   6.051   5.193  16.567 -0.4057  0.3019  0.1479
 7090TIP3    H142685   6.097   5.149  16.639  0.2620  0.6544 -0.0650
 7090TIP3    H242686   6.121   5.223  16.509 -0.9756 -0.6283 -1.0329
 7091TIP3   OH242687   2.294   0.325   4.409 -0.0651 -0.2599 -0.6558
 7091TIP3    H142688   2.329   0.268   4.341  0.2302 -0.9783  0.0817
 7091TIP3    H242689   2.344   0.406   4.401  1.8215 -1.2846  0.4039
 7092TIP3   OH242690   3.590   3.706  14.207  0.0654 -0.2662  0.3547
 7092TIP3    H142691   3.587   3.742  14.296  0.8988  0.9209 -0.0830
 7092TIP3    H242692   3.660   3.641  14.210 -0.5074 -0.8688  0.7946
 7093TIP3   OH242693   4.096   2.284   3.923  0.0113 -0.5412  0.2872
 7093TIP3    H142694   4.062   2.232   3.850  0.8209  0.5384 -0.8804
 7093TIP3    H242695   4.025   2.345   3.944 -0.5895 -1.4811  1.0584
 7094TIP3   OH242696   4.148   4.162  10.711  0.6633 -0.2397  0.2836
 7094TIP3    H142697   4.132   4.147  10.618 -0.4772 -0.8501  0.5753
 7094TIP3    H242698   4.138   4.076  10.751  1.6854 -0.0795  0.9107
 7095TIP3   OH242699   5.442   4.917  12.461  0.1183  0.0829  0.4552
 7095TIP3    H142700   5.525   4.954  12.431  0.3391  0.5255  1.5911
 7095TIP3    H242701   5.460   4.886  12.550 -1.0449  0.5680  0.8718
 7096TIP3   OH242702   0.894   2.813  13.493 -0.6273  0.1245  0.6078
 7096TIP3    H142703   0.872   2.894  13.448 -1.3256 -0.6395 -0.4278
 7096TIP3    H242704   0.975   2.834  13.541  0.0762  0.9756 -0.9140
 7097TIP3   OH242705   2.797   0.934   6.035 -0.1410 -0.4753  0.4048
 7097TIP3    H142706   2.834   0.862   6.086 -0.9144 -0.6577  0.7010
 7097TIP3    H242707   2.818   0.912   5.944  1.0903 -0.2335  0.6161
 7098TIP3   OH242708   6.473   6.193   4.881 -0.1839 -0.4690  0.4180
 7098TIP3    H142709   6.402   6.242   4.840 -0.2507 -0.4277  0.5802
 7098TIP3    H242710   6.533   6.261   4.914  0.2519 -0.5122 -0.2768
 7099TIP3   OH242711   3.661   0.910  15.463 -0.2592  0.5241  0.1257
 7099TIP3    H142712   3.724   0.979  15.481 -1.3820  2.1117 -1.8483
 7099TIP3    H242713   3.714   0.830  15.456  1.0600  1.1640  2.3208
 7100TIP3   OH242714   2.346   3.739   2.479  0.5501 -0.0924 -0.3976
 7100TIP3    H142715   2.258   3.760   2.449  0.4692  0.1828  0.0289
 7100TIP3    H242716   2.399   3.738   2.399  0.1932 -0.1067 -0.6353
 7101TIP3   OH242717   0.895   4.560   2.079  0.4226 -0.2445 -0.0279
 7101TIP3    H142718   0.875   4.553   1.986  2.3456 -1.3975 -0.3706
 7101TIP3    H242719   0.839   4.493   2.121  0.1909 -0.3121 -0.4448
 7102TIP3   OH242720   5.408   6.030   3.032 -0.3920 -0.2820  0.7431
 7102TIP3    H142721   5.490   5.991   3.062  1.3077  0.4994 -2.7051
 7102TIP3    H242722   5.343   5.960   3.044  1.1090 -1.5578  1.7278
 7103TIP3   OH242723   1.873   2.252   4.342  0.2064  0.3970 -0.2101
 7103TIP3    H142724   1.786   2.250   4.304  0.9230 -0.1888 -1.8913
 7103TIP3    H242725   1.865   2.306   4.420 -1.7502 -0.0228 -0.1099
 7104TIP3   OH242726   6.113   3.820   5.676  0.2180  0.3611 -0.5041
 7104TIP3    H142727   6.152   3.801   5.591  1.6581  0.3561  0.1374
 7104TIP3    H242728   6.019   3.805   5.664  0.5078 -0.4218 -1.8579
 7105TIP3   OH242729   3.599   2.519  16.607  0.3783 -0.2700 -0.0142
 7105TIP3    H142730   3.576   2.604  16.569  1.5416  0.0079 -0.1159
 7105TIP3    H242731   3.515   2.481  16.634 -0.1772  0.7676 -0.2599
 7106TIP3   OH242732   5.776   3.195   0.043  0.0941  0.0565 -0.1542
 7106TIP3    H142733   5.847   3.223   0.102 -0.1913  0.9798 -0.2446
 7106TIP3    H242734   5.737   3.119   0.087 -0.1414  0.7636  0.8749
 7107TIP3   OH242735   4.933   4.770   1.654  0.0111  0.0119  0.3142
 7107TIP3    H142736   5.026   4.763   1.633  0.8815  1.2077  3.4851
 7107TIP3    H242737   4.904   4.849   1.608  0.4126 -0.6295 -1.0834
 7108TIP3   OH242738   0.568   6.605   3.697  0.0792  0.7081  0.6487
 7108TIP3    H142739   0.519   6.676   3.656 -0.7205  0.7391  1.6219
 7108TIP3    H242740   0.538   6.606   3.789  0.0542 -0.8729  0.6668
 7109TIP3   OH242741   0.408   0.273  11.185  0.8111 -0.1557 -0.5441
 7109TIP3    H142742   0.448   0.355  11.154  0.2740  0.3099 -0.0167
 7109TIP3    H242743   0.317   0.280  11.157  0.8830 -0.8071 -0.9422
 7110TIP3   OH242744   4.386   4.513  17.238  0.5701  0.2095 -0.1406
 7110TIP3    H142745   4.369   4.481  17.326 -1.4818  2.2241  0.2578
 7110TIP3    H242746   4.315   4.477  17.185  0.2106  1.2377 -0.3765
 7111TIP3   OH242747   6.293   0.984   0.351 -0.4233 -0.1236 -0.1050
 7111TIP3    H142748   6.342   1.050   0.401 -1.1744  0.1869  0.2219
 7111TIP3    H242749   6.224   1.034   0.308 -1.1125 -0.7283  0.2935
 7112TIP3   OH242750   1.822   4.107  15.278 -0.4594 -0.4874 -0.4065
 7112TIP3    H142751   1.887   4.074  15.216 -0.5822 -0.5167 -0.5214
 7112TIP3    H242752   1.773   4.172  15.228 -0.5568 -0.5074 -0.3372
 7113TIP3   OH242753   5.724   0.676   4.583  0.0224  0.4286 -0.3339
 7113TIP3    H142754   5.811   0.670   4.544  0.6215  1.1350  0.8625
 7113TIP3    H242755   5.665   0.692   4.509  0.7789 -1.0118 -1.2615
 7114TIP3   OH242756   2.006   0.696   5.358 -0.5021 -0.2336 -0.2380
 7114TIP3    H142757   1.994   0.790   5.345 -0.6925 -0.0918  0.9310
 7114TIP3    H242758   1.933   0.670   5.415  0.5845 -0.7257  0.9536
 7115TIP3   OH242759   5.373   5.654  11.802 -0.1513 -0.4037 -0.5528
 7115TIP3    H142760   5.305   5.718  11.822 -2.4511 -3.0810  0.5162
 7115TIP3    H242761   5.352   5.579  11.858  1.6779 -2.5827 -2.7037
 7116TIP3   OH242762   6.479   1.804   2.669 -0.0698 -0.2680 -0.4214
 7116TIP3    H142763   6.411   1.824   2.733  2.0764 -0.5974  1.9942
 7116TIP3    H242764   6.472   1.710   2.656  1.2889 -0.6436  1.4405
 7117TIP3   OH242765   6.279   3.580  15.747 -0.1630 -0.3435 -0.2013
 7117TIP3    H142766   6.333   3.659  15.747 -0.9557  0.2010 -0.3110
 7117TIP3    H242767   6.339   3.510  15.721  0.4316  0.3001 -0.5784
 7118TIP3   OH242768   4.184   4.102   4.764  0.0332  0.1281  0.4262
 7118TIP3    H142769   4.278   4.103   4.745 -0.0343  1.2150  0.0745
 7118TIP3    H242770   4.150   4.180   4.720 -1.2157 -0.8171 -0.3168
 7119TIP3   OH242771   5.204   1.604   3.835  0.0379 -0.0581  0.1684
 7119TIP3    H142772   5.226   1.682   3.784  0.2905 -0.9702 -1.1550
 7119TIP3    H242773   5.198   1.534   3.770 -1.5317 -0.8805  1.1757
 7120TIP3   OH242774   0.061   2.170   0.698  0.3213  0.2092  0.0347
 7120TIP3    H142775  -0.012   2.227   0.677  0.0175  0.0715  0.7063
 7120TIP3    H242776   0.064   2.107   0.625  0.6461  1.0555 -0.6924
 7121TIP3   OH242777   6.154   6.561   3.713 -0.0059 -0.1870  0.2688
 7121TIP3    H142778   6.115   6.641   3.676 -1.6434 -0.4889  1.3026
 7121TIP3    H242779   6.211   6.593   3.783  1.6801  0.2587 -1.2647
 7122TIP3   OH242780   4.407   4.656   4.294 -0.1139  0.1588  0.3245
 7122TIP3    H142781   4.452   4.709   4.228 -0.8012  0.0572 -0.2356
 7122TIP3    H242782   4.343   4.716   4.333  0.4866  0.2994  1.1073
 7123TIP3   OH242783   5.942   3.455   5.464  0.0011  0.0518 -0.2879
 7123TIP3    H142784   6.022   3.421   5.504 -1.3104 -1.1476  1.4115
 7123TIP3    H242785   5.912   3.384   5.408 -0.6992 -0.1339  0.3073
 7124TIP3   OH242786   4.389   2.328  14.651 -0.5898  0.1753 -0.4812
 7124TIP3    H142787   4.342   2.408  14.676  0.9021  0.3562  1.9293
 7124TIP3    H242788   4.476   2.338  14.690 -0.3117 -2.5174 -0.2944
 7125TIP3   OH242789   6.372   2.145   5.472 -0.1594  0.0510  0.0419
 7125TIP3    H142790   6.285   2.125   5.507  0.1824 -1.7069 -0.1052
 7125TIP3    H242791   6.419   2.062   5.474  1.1576  0.7547 -0.9538
 7126TIP3   OH242792   2.799   5.454   1.921 -0.0906 -0.0661 -0.3438
 7126TIP3    H142793   2.880   5.403   1.929 -0.7492 -0.8732  1.3711
 7126TIP3    H242794   2.780   5.454   1.827  1.9953  0.2984 -0.8010
 7127TIP3   OH242795   4.270   1.121  12.209  0.0577  0.0332  0.0439
 7127TIP3    H142796   4.298   1.180  12.279  0.1149  0.4444 -0.3263
 7127TIP3    H242797   4.203   1.170  12.161  1.1715  0.3941 -1.1810
 7128TIP3   OH242798   3.670   1.997   5.089 -0.0192 -0.5387 -0.7844
 7128TIP3    H142799   3.626   1.922   5.127 -0.7494 -0.8053 -2.1124
 7128TIP3    H242800   3.605   2.067   5.091  1.0041  0.3941  1.4343
 7129TIP3   OH242801   0.190   0.099   3.332 -0.0113 -0.2342 -0.3529
 7129TIP3    H142802   0.236   0.169   3.285  0.1671  0.7352  1.2322
 7129TIP3    H242803   0.259   0.049   3.375 -0.2775 -0.0947  0.2428
 7130TIP3   OH242804   3.473   0.386  16.832  0.2914 -0.2183  0.2525
 7130TIP3    H142805   3.532   0.398  16.758  1.2947 -3.9894  0.3565
 7130TIP3    H242806   3.524   0.414  16.908  0.7348 -0.2186 -0.0440
 7131TIP3   OH242807   0.498   4.567  17.119  0.1766 -0.2963  0.6028
 7131TIP3    H142808   0.505   4.657  17.151  1.8121 -0.6994  1.4544
 7131TIP3    H242809   0.587   4.532  17.126 -0.4645 -2.0355  0.4424
 7132TIP3   OH242810   2.326   0.832  14.837  0.2352  0.1826  0.2051
 7132TIP3    H142811   2.419   0.811  14.833 -0.2480 -2.3200  1.2622
 7132TIP3    H242812   2.299   0.811  14.926 -1.6542 -0.5842 -0.5049
 7133TIP3   OH242813   5.151   3.047   2.823 -0.2756 -0.0117 -0.3970
 7133TIP3    H142814   5.160   3.107   2.897 -1.3311 -2.7287  2.0622
 7133TIP3    H242815   5.210   3.081   2.756  0.7600  2.5071  1.7237
 7134TIP3   OH242816   4.421   6.320  14.806 -0.4028 -0.2981  0.2004
 7134TIP3    H142817   4.438   6.397  14.753  0.5756 -0.8124 -0.2336
 7134TIP3    H242818   4.401   6.251  14.743  1.0026 -0.9715  0.4754
 7135TIP3   OH242819   5.858   3.219  11.752 -0.4070 -0.6277  0.3858
 7135TIP3    H142820   5.784   3.187  11.700 -0.4514  0.0958 -0.0009
 7135TIP3    H242821   5.934   3.207  11.695 -0.5321  0.6863 -0.0697
 7136TIP3   OH242822   4.982   5.185   2.340 -0.7063 -0.1067  0.3934
 7136TIP3    H142823   4.928   5.121   2.293 -0.8155 -0.0068  0.3812
 7136TIP3    H242824   5.011   5.139   2.419 -1.1959 -0.0134  0.6346
 7137TIP3   OH242825   4.941   3.018   3.837  0.4357  0.2882 -0.4601
 7137TIP3    H142826   4.925   2.950   3.771  1.2416  1.8728 -2.3746
 7137TIP3    H242827   5.026   3.054   3.813 -0.4877  2.7317 -0.1867
 7138TIP3   OH242828   2.089   4.032  11.280  0.8730 -0.6558  0.1328
 7138TIP3    H142829   2.125   4.115  11.250 -1.1572 -0.7377 -2.6616
 7138TIP3    H242830   2.155   3.966  11.256  1.0818 -0.2295 -0.4480
 7139TIP3   OH242831   5.752   5.798   3.764  0.5781 -0.3559  0.7273
 7139TIP3    H142832   5.657   5.806   3.752  0.5204 -0.6068  1.0027
 7139TIP3    H242833   5.762   5.747   3.844  0.9514 -0.0386  0.8862
 7140TIP3   OH242834   4.951   3.214  15.850 -0.3142 -0.0770 -0.0652
 7140TIP3    H142835   4.920   3.281  15.911 -0.9948 -1.1139  0.7511
 7140TIP3    H242836   4.929   3.249  15.763 -0.2712  0.9460  0.3275
 7141TIP3   OH242837   3.747   2.776  16.438 -0.4701 -0.1519 -0.0855
 7141TIP3    H142838   3.746   2.840  16.367  0.3227  1.6551  1.4439
 7141TIP3    H242839   3.691   2.815  16.506  2.4439  0.4930  2.0873
 7142TIP3   OH242840   0.962   1.092   0.213  0.3510  0.1684 -0.0513
 7142TIP3    H142841   0.952   1.074   0.307 -1.1810  0.1299 -0.2075
 7142TIP3    H242842   0.906   1.027   0.171  0.3360  0.7536 -0.9411
 7143TIP3   OH242843   2.240   0.601   0.253  0.1735  0.3212  0.1525
 7143TIP3    H142844   2.196   0.543   0.315  0.6229 -0.4246 -0.2208
 7143TIP3    H242845   2.229   0.689   0.290  0.1148 -0.0804  1.0992
 7144TIP3   OH242846   0.858   3.331   4.488 -0.6004  0.2396  0.1005
 7144TIP3    H142847   0.880   3.360   4.576  1.3536 -0.2470 -0.2171
 7144TIP3    H242848   0.836   3.238   4.498 -2.4197  0.6859  0.3919
 7145TIP3   OH242849   5.184   4.816   4.058  0.4157 -0.2921  0.0019
 7145TIP3    H142850   5.196   4.904   4.021  0.1955 -0.0612  0.4772
 7145TIP3    H242851   5.089   4.803   4.057  0.4065 -0.2822  0.4844
 7146TIP3   OH242852   4.905   4.287  11.704  0.4360 -0.3362 -0.0969
 7146TIP3    H142853   4.921   4.211  11.760  1.0788  0.0116  0.1898
 7146TIP3    H242854   4.917   4.254  11.615 -0.5950 -0.8933 -0.0444
 7147TIP3   OH242855   3.321   1.252   5.790 -0.0293 -0.2139 -0.3074
 7147TIP3    H142856   3.390   1.313   5.813 -0.0470 -0.5852  0.7513
 7147TIP3    H242857   3.300   1.207   5.872 -0.9278 -0.7049 -0.7978
 7148TIP3   OH242858   4.675   5.897  16.497 -0.1458  0.4572  0.5300
 7148TIP3    H142859   4.681   5.801  16.497  5.1287  0.6273 -0.5912
 7148TIP3    H242860   4.661   5.920  16.589  0.7196 -1.3619  1.1502
 7149TIP3   OH242861   0.987   0.883   5.979  0.4207 -0.0275 -0.3822
 7149TIP3    H142862   0.943   0.966   5.964 -1.1630 -0.6099  0.9085
 7149TIP3    H242863   0.925   0.816   5.950  0.4070 -0.8602  1.4944
 7150TIP3   OH242864   4.827   4.744  15.335 -0.3453 -0.0542 -0.0729
 7150TIP3    H142865   4.913   4.702  15.326 -0.2711  0.0388  0.1853
 7150TIP3    H242866   4.846   4.838  15.340 -0.7270  0.2663 -3.7667
 7151TIP3   OH242867   4.639   0.910   3.300  0.0826  0.1549 -0.1560
 7151TIP3    H142868   4.595   0.857   3.366 -0.2725  0.5470 -0.0775
 7151TIP3    H242869   4.732   0.899   3.319 -0.0495  1.3426  1.2578
 7152TIP3   OH242870   2.395   4.467  14.855  0.4518  0.0874  0.6310
 7152TIP3    H142871   2.404   4.555  14.819 -0.8705  0.0200  0.1226
 7152TIP3    H242872   2.456   4.465  14.929  1.5350  0.9633 -0.2046
 7153TIP3   OH242873   4.908   0.881  11.969 -0.0436 -0.4402  0.3293
 7153TIP3    H142874   4.944   0.793  11.973  1.2264  0.0968  1.1544
 7153TIP3    H242875   4.832   0.879  12.028 -1.8756 -1.7775 -1.9854
 7154TIP3   OH242876   0.877   4.706  11.579 -0.1662  0.3698  0.0089
 7154TIP3    H142877   0.941   4.714  11.508  0.8478 -0.5663  0.8109
 7154TIP3    H242878   0.871   4.795  11.616 -0.2525  0.7253 -0.8584
 7155TIP3   OH242879   4.807   3.890   4.391 -0.1774 -0.4171 -0.1596
 7155TIP3    H142880   4.830   3.832   4.463  0.5222 -1.3025 -1.0718
 7155TIP3    H242881   4.716   3.914   4.408 -0.2044 -1.0922  0.7032
 7156TIP3   OH242882   4.771   4.929   0.075 -0.6941  0.1436 -0.3603
 7156TIP3    H142883   4.718   5.004   0.103 -2.0329 -0.4548 -1.2454
 7156TIP3    H242884   4.714   4.853   0.088  0.4557 -0.6827  0.0007
 7157TIP3   OH242885   2.737   5.998   1.167 -0.1390  0.3177 -0.5010
 7157TIP3    H142886   2.812   6.057   1.173  0.7886 -1.0738  3.0088
 7157TIP3    H242887   2.699   5.998   1.255 -1.7596 -2.1749 -1.1249
 7158TIP3   OH242888   6.121   6.707  16.648  0.3548 -0.0210 -0.5254
 7158TIP3    H142889   6.073   6.752  16.580  0.9547 -0.0159 -0.9526
 7158TIP3    H242890   6.107   6.614  16.631 -0.3978 -0.0077  0.0043
 7159TIP3   OH242891   1.576   2.035   4.417 -0.1916  0.7581 -0.3133
 7159TIP3    H142892   1.570   1.944   4.446 -2.4178  0.6433 -1.0972
 7159TIP3    H242893   1.658   2.038   4.367 -0.4979 -1.0031 -0.9632
 7160TIP3   OH242894   4.288   3.373   3.226 -0.0694 -0.3950 -0.3333
 7160TIP3    H142895   4.292   3.415   3.140 -0.8520  1.4549  0.5104
 7160TIP3    H242896   4.374   3.332   3.236  0.6491  0.8380 -1.2902
 7161TIP3   OH242897   4.594   3.353  10.992 -0.5250 -0.0434 -0.5800
 7161TIP3    H142898   4.668   3.370  11.050 -1.8231  1.7214  0.5996
 7161TIP3    H242899   4.589   3.258  10.987  2.4871 -0.2103 -1.5710
 7162TIP3   OH242900   0.999   4.583   4.503  0.2816 -1.0279 -0.5201
 7162TIP3    H142901   1.049   4.659   4.534 -1.2765 -0.1916 -0.0048
 7162TIP3    H242902   0.986   4.599   4.410  1.0995 -1.3382 -0.6968
 7163TIP3   OH242903   2.268   3.152   4.842  0.2495  0.3363  0.0890
 7163TIP3    H142904   2.274   3.241   4.878  0.5964  0.7734 -1.0327
 7163TIP3    H242905   2.205   3.108   4.899 -0.7457  1.6214  0.0049
 7164TIP3   OH242906   3.325   4.407   4.838  0.7622  0.4131  0.5099
 7164TIP3    H142907   3.386   4.418   4.765  0.6961 -0.0316  0.3848
 7164TIP3    H242908   3.239   4.427   4.801  0.4156 -2.1529 -0.1733
 7165TIP3   OH242909   2.352   0.706   6.024  0.9147 -0.3853 -0.4600
 7165TIP3    H142910   2.369   0.782   5.968  2.6293  0.3092  0.9656
 7165TIP3    H242911   2.395   0.633   5.978  2.3957  0.1993 -0.0264
 7166TIP3   OH242912   4.079   4.854   3.287  0.3581  0.1883 -0.0861
 7166TIP3    H142913   4.019   4.786   3.258 -1.9573  2.2559 -0.2800
 7166TIP3    H242914   4.115   4.821   3.369 -0.9761 -1.0995 -0.0060
 7167TIP3   OH242915   3.379   2.282   4.534  0.1269 -0.4925 -0.6737
 7167TIP3    H142916   3.322   2.205   4.539  0.7645 -0.8688  0.7558
 7167TIP3    H242917   3.465   2.251   4.562 -0.0972  1.2247  2.1015
 7168TIP3   OH242918   2.547   3.199   3.144 -0.1818 -0.4107  0.1452
 7168TIP3    H142919   2.580   3.288   3.136 -0.3019 -0.2424  1.4486
 7168TIP3    H242920   2.549   3.164   3.055  1.5723  0.2855 -0.0936
 7169TIP3   OH242921   1.962   1.256   1.321 -0.3301 -0.2432  0.2941
 7169TIP3    H142922   1.996   1.210   1.398  1.0861 -1.2126 -0.8727
 7169TIP3    H242923   2.040   1.293   1.279 -1.0733  0.2354 -0.6917
 7170TIP3   OH242924   3.041   3.064   4.673  0.3667  0.0697 -0.2842
 7170TIP3    H142925   3.128   3.060   4.713 -0.0720 -2.1523  0.4877
 7170TIP3    H242926   3.040   2.991   4.611  0.3060  2.2541 -2.9423
 7171TIP3   OH242927   5.120   6.723  10.481 -0.0923 -0.4439  0.3765
 7171TIP3    H142928   5.066   6.744  10.405 -1.6258  1.1793  1.8240
 7171TIP3    H242929   5.085   6.640  10.514  0.3550 -0.9759 -0.4825
 7172TIP3   OH242930   2.088   4.041   3.249 -0.1532 -0.0939  0.1913
 7172TIP3    H142931   2.069   4.093   3.172  1.5169 -1.7404 -1.3832
 7172TIP3    H242932   2.027   3.967   3.244 -0.7768  0.3591  1.0353
 7173TIP3   OH242933   6.332   1.273  11.664 -0.0652  0.3675  0.3607
 7173TIP3    H142934   6.412   1.323  11.654  0.3172 -0.4444 -0.7713
 7173TIP3    H242935   6.295   1.269  11.576 -0.4069 -0.8232  0.5518
 7174TIP3   OH242936   2.267   2.092   0.254  0.0442 -0.2101 -0.1394
 7174TIP3    H142937   2.313   2.009   0.243 -0.8848 -0.4923 -2.2083
 7174TIP3    H242938   2.174   2.070   0.250 -0.2411  0.7411  0.8940
 7175TIP3   OH242939   4.422   1.318   1.303 -0.3787  0.4281 -0.2499
 7175TIP3    H142940   4.392   1.409   1.312 -0.2398  0.6120 -1.5214
 7175TIP3    H242941   4.341   1.266   1.302 -0.5247  0.6622 -0.8389
 7176TIP3   OH242942   6.261   1.774   1.841 -0.2010 -0.5756  0.5426
 7176TIP3    H142943   6.193   1.841   1.849  0.8374  0.5161  0.4084
 7176TIP3    H242944   6.217   1.699   1.802 -1.2782  0.1926  0.2644
 7177TIP3   OH242945   6.417   4.941   3.068  0.2343 -0.9498  0.4051
 7177TIP3    H142946   6.490   4.902   3.115 -0.1495 -2.6538 -0.3922
 7177TIP3    H242947   6.353   4.963   3.136  1.5534  0.7992  1.1402
 7178TIP3   OH242948   4.529   0.600   0.554  0.1040  0.0886 -0.1398
 7178TIP3    H142949   4.527   0.528   0.491  1.3471 -0.4937  0.4719
 7178TIP3    H242950   4.577   0.670   0.510  0.6679 -0.1931  0.0195
 7179TIP3   OH242951   3.715   5.993   0.969  0.0257 -0.1719  0.3202
 7179TIP3    H142952   3.659   6.049   1.024  0.9901  1.0409  0.0795
 7179TIP3    H242953   3.766   6.054   0.916 -0.4578 -1.3320 -1.5096
 7180TIP3   OH242954   4.418   1.929  11.462  0.1256 -0.0262 -0.0752
 7180TIP3    H142955   4.505   1.889  11.460  1.0291  1.7349  1.8305
 7180TIP3    H242956   4.424   2.004  11.403  0.4873  1.1927  1.4886
 7181TIP3   OH242957   4.351   4.467   2.440 -0.7843  0.1326 -0.0023
 7181TIP3    H142958   4.414   4.446   2.371  0.1641  2.9332 -0.0397
 7181TIP3    H242959   4.319   4.554   2.418 -2.7731 -0.1967  1.4417
 7182TIP3   OH242960   3.325   1.876  13.164  0.1929  0.4983  0.5265
 7182TIP3    H142961   3.322   1.800  13.106 -0.9452  2.1134 -1.6211
 7182TIP3    H242962   3.395   1.856  13.226  0.1547 -2.1320 -0.2070
 7183TIP3   OH242963   6.128   0.741   2.964  0.3954  0.7468  0.7059
 7183TIP3    H142964   6.177   0.660   2.961 -0.1587  0.3988  0.8713
 7183TIP3    H242965   6.108   0.753   3.057 -0.1591  0.6836  0.5970
 7184TIP3   OH242966   6.222   1.409  15.744  0.0278 -0.0480  0.0521
 7184TIP3    H142967   6.142   1.363  15.718  1.0544 -1.9537  0.2397
 7184TIP3    H242968   6.232   1.389  15.837  0.9715 -0.1761 -0.0775
 7185TIP3   OH242969   1.652   1.574  11.774 -0.1438 -0.3105 -0.2028
 7185TIP3    H142970   1.587   1.644  11.772 -0.0321 -0.1755  0.5001
 7185TIP3    H242971   1.602   1.495  11.796  0.0794  0.0013  1.5533
 7186TIP3   OH242972   2.567   6.225   5.761  0.8039  0.2063  0.1635
 7186TIP3    H142973   2.488   6.212   5.709 -0.2729  0.7129  1.6637
 7186TIP3    H242974   2.599   6.137   5.779  0.3381 -0.0042 -0.0501
 7187TIP3   OH242975   0.225   2.645   4.521 -0.0334 -0.0627  0.5279
 7187TIP3    H142976   0.154   2.620   4.463  0.3519  1.8317 -0.8029
 7187TIP3    H242977   0.209   2.595   4.602 -1.2990 -1.7146 -0.7185
 7188TIP3   OH242978   6.122   4.962  15.935 -0.0777  0.6021 -0.2683
 7188TIP3    H142979   6.134   4.870  15.956  0.8813  0.5524 -1.0048
 7188TIP3    H242980   6.029   4.969  15.912 -0.2777 -0.0663  0.3263
 7189TIP3   OH242981   0.540   4.141  11.340  0.1303 -0.2268  0.1192
 7189TIP3    H142982   0.497   4.227  11.337 -0.1744  0.0548  5.6915
 7189TIP3    H242983   0.634   4.161  11.337  0.1789  0.7534  4.1950
 7190TIP3   OH242984   0.634   4.743   5.675  0.8020  0.0849  0.0008
 7190TIP3    H142985   0.712   4.783   5.713 -0.4688 -0.0328  2.8311
 7190TIP3    H242986   0.562   4.775   5.728 -0.7060 -2.5191 -0.3996
 7191TIP3   OH242987   6.183   2.908  12.231 -0.2642 -0.0910  0.0099
 7191TIP3    H142988   6.132   2.979  12.269  1.3713  2.0200 -1.5439
 7191TIP3    H242989   6.252   2.953  12.181  0.5440 -2.7742 -1.3952
 7192TIP3   OH242990   4.536   4.537  12.649 -0.2316 -0.0463 -0.0053
 7192TIP3    H142991   4.606   4.592  12.685  0.1500 -1.0042  0.7533
 7192TIP3    H242992   4.581   4.462  12.611 -0.7717 -0.0268 -0.6913
 7193TIP3   OH242993   4.998   1.712   3.583  0.2125  0.0371 -0.0481
 7193TIP3    H142994   4.945   1.780   3.625 -0.3183 -0.4996  0.1665
 7193TIP3    H242995   4.956   1.630   3.610 -0.8342 -0.2935 -2.5319
 7194TIP3   OH242996   4.073   4.932  12.458  0.2555 -0.2588 -0.6485
 7194TIP3    H142997   3.984   4.934  12.490 -0.7453 -3.5288 -2.9441
 7194TIP3    H242998   4.122   4.883  12.524 -0.5188 -1.7877 -1.1741
 7195TIP3   OH242999   3.721   1.281   1.832  0.1761 -0.0096  0.3881
 7195TIP3    H143000   3.704   1.361   1.882  2.8710  0.2140  1.0250
 7195TIP3    H243001   3.708   1.307   1.741  0.5253  1.0263  0.6260
 7196TIP3   OH243002   2.554   0.899   1.946 -0.4018  0.4690  0.1426
 7196TIP3    H143003   2.623   0.948   1.901  0.0927  1.3541  1.7981
 7196TIP3    H243004   2.598   0.821   1.980 -0.4104  0.5946  0.4447
 7197TIP3   OH243005   6.645   1.978  14.285  0.2798 -0.0567 -0.0879
 7197TIP3    H143006   6.736   1.948  14.284  0.2998 -0.1312  1.6230
 7197TIP3    H243007   6.639   2.040  14.213  1.7847  0.1972 -0.0022
 7198TIP3   OH243008   1.275   2.811  16.050 -0.3798  0.3985 -0.7509
 7198TIP3    H143009   1.270   2.796  16.145  1.2439 -1.2572 -0.9060
 7198TIP3    H243010   1.344   2.877  16.040  0.6566 -0.6976 -0.8945
 7199TIP3   OH243011   0.543   4.119   2.262 -0.4834 -0.0941 -0.3885
 7199TIP3    H143012   0.457   4.101   2.300  0.7293 -1.7182  1.6666
 7199TIP3    H243013   0.567   4.205   2.295 -1.2497  0.2982 -0.8469
 7200TIP3   OH243014   4.963   3.508  16.962  0.1033  0.0244 -0.5413
 7200TIP3    H143015   4.963   3.415  16.980  0.5210  0.6708  3.1411
 7200TIP3    H243016   4.872   3.529  16.939 -0.5678 -0.8207  1.2866
 7201TIP3   OH243017   3.018   4.390   5.019  0.0474 -0.3357  0.2150
 7201TIP3    H143018   3.043   4.435   4.938  1.7875  0.0426  0.9434
 7201TIP3    H243019   2.923   4.384   5.015  0.0693  0.3053 -1.5353
 7202TIP3   OH243020   2.729   3.229  14.082 -0.5528  0.0687 -0.3990
 7202TIP3    H143021   2.673   3.295  14.122 -1.5755 -0.7639 -0.4293
 7202TIP3    H243022   2.746   3.167  14.153  1.4660  1.0129 -0.0113
 7203TIP3   OH243023   6.427   1.296   4.377 -0.3470 -0.1235  0.5740
 7203TIP3    H143024   6.348   1.309   4.429 -0.4937 -0.6508  0.4869
 7203TIP3    H243025   6.459   1.385   4.360 -0.9674  0.1009  0.5394
 7204TIP3   OH243026   0.927   1.169  15.963  0.0753 -0.0049 -0.2153
 7204TIP3    H143027   0.972   1.200  15.884  0.9766  0.0156  0.2942
 7204TIP3    H243028   0.969   1.085  15.982  0.1798  0.2126  0.5095
 7205TIP3   OH243029   2.806   5.348   6.006  0.4544 -0.6076  0.1010
 7205TIP3    H143030   2.820   5.443   6.015  1.7279 -0.8106  0.3654
 7205TIP3    H243031   2.720   5.333   6.043 -0.2818  0.6308 -1.0405
 7206TIP3   OH243032   4.966   3.462  14.061  0.3899  0.3858  0.2504
 7206TIP3    H143033   4.962   3.503  14.147  1.2669  1.7959 -0.3643
 7206TIP3    H243034   5.045   3.407  14.064  0.5459  0.6089  0.2873
 7207TIP3   OH243035   5.761   3.006  13.006  0.2565 -0.0499  0.0294
 7207TIP3    H143036   5.678   3.008  12.958  1.1948  0.3895 -1.6183
 7207TIP3    H243037   5.802   3.090  12.987  1.8353 -0.9307 -0.5377
 7208TIP3   OH243038   2.839   3.074   5.071 -0.2216 -0.6060 -0.0474
 7208TIP3    H143039   2.909   3.129   5.034  0.3275 -0.1487  1.6352
 7208TIP3    H243040   2.869   2.984   5.058 -0.9084 -0.5300 -2.3985
 7209TIP3   OH243041   5.691   5.435  16.053  0.0422  0.0551  0.0334
 7209TIP3    H143042   5.759   5.468  16.112  1.2407 -1.3586 -0.5421
 7209TIP3    H243043   5.714   5.472  15.967 -1.1422  1.3089  0.2376
 7210TIP3   OH243044   6.260   3.208  11.039 -0.0354 -0.1785  0.2950
 7210TIP3    H143045   6.226   3.297  11.052 -0.8129 -0.6565  1.6976
 7210TIP3    H243046   6.328   3.217  10.973 -2.5414  0.8943 -2.2206
 7211TIP3   OH243047   2.693   1.595   3.235  0.4675  0.6531 -0.5251
 7211TIP3    H143048   2.627   1.577   3.302  1.8415 -1.4053  0.3321
 7211TIP3    H243049   2.765   1.636   3.283  1.2565 -0.3870 -0.7981
 7212TIP3   OH243050   2.905   3.611  11.193  0.3749 -0.0520 -0.5813
 7212TIP3    H143051   2.954   3.679  11.238 -0.3029  0.5389 -0.7184
 7212TIP3    H243052   2.852   3.570  11.261  0.8275 -0.4802 -0.4888
 7213TIP3   OH243053   4.476   1.449   0.911  0.5032 -0.1901 -0.2442
 7213TIP3    H143054   4.399   1.472   0.860  0.8186 -1.0341 -1.1070
 7213TIP3    H243055   4.527   1.392   0.854  2.9238  2.2348 -0.5691
 7214TIP3   OH243056   2.757   5.151  14.035  0.4541  0.0894 -0.1877
 7214TIP3    H143057   2.733   5.135  13.944  0.3044 -0.0092 -0.1296
 7214TIP3    H243058   2.745   5.066  14.078  1.7491 -0.1985 -0.3471
 7215TIP3   OH243059   6.465   4.316  15.038 -0.7843 -0.3313 -0.0090
 7215TIP3    H143060   6.383   4.268  15.039 -0.5766 -0.7155 -1.2901
 7215TIP3    H243061   6.502   4.301  14.951  0.4127  0.2232  0.3817
 7216TIP3   OH243062   1.251   4.962   0.173  0.3205 -0.1723  0.1583
 7216TIP3    H143063   1.306   4.953   0.095 -0.4563  0.0904 -0.4295
 7216TIP3    H243064   1.281   5.043   0.214 -0.3342  0.5555 -0.7522
 7217TIP3   OH243065   3.818   2.891  17.084 -0.7498 -0.4033  0.3709
 7217TIP3    H143066   3.790   2.983  17.086 -0.6788 -0.2815 -2.2786
 7217TIP3    H243067   3.905   2.894  17.043 -0.9132 -1.6836 -0.0894
 7218TIP3   OH243068   4.589   3.710  15.976  0.4661  0.1228  0.5382
 7218TIP3    H143069   4.643   3.761  15.915  0.2802  0.0008  0.2667
 7218TIP3    H243070   4.602   3.619  15.947 -0.6733  0.1736 -0.1640
 7219TIP3   OH243071   2.733   4.262  14.516  0.2861 -0.0292  0.5438
 7219TIP3    H143072   2.721   4.232  14.606 -1.3361 -0.2720  0.2629
 7219TIP3    H243073   2.667   4.330  14.504  0.9834  0.5271 -0.2382
 7220TIP3   OH243074   6.649   5.906   4.319  0.0175  0.2490 -0.1458
 7220TIP3    H143075   6.629   5.961   4.243 -1.1564  0.4275  0.2837
 7220TIP3    H243076   6.606   5.822   4.299 -0.4149  0.3439  0.3829
 7221TIP3   OH243077   4.546   0.864  13.174 -1.0397  0.3478 -0.0279
 7221TIP3    H143078   4.502   0.784  13.145 -2.3492  0.7618  0.7835
 7221TIP3    H243079   4.519   0.931  13.112  0.4914  0.0663 -1.0312
 7222TIP3   OH243080   6.542   3.885   6.049 -0.3699  0.3309 -0.1296
 7222TIP3    H143081   6.529   3.951   6.117  0.2369  0.1024  0.2182
 7222TIP3    H243082   6.612   3.830   6.083 -1.4168 -0.9681 -0.0653
 7223TIP3   OH243083   4.703   0.988  10.196  0.8215 -0.5234  0.7138
 7223TIP3    H143084   4.732   1.018  10.282 -2.3919  0.9924  1.3442
 7223TIP3    H243085   4.711   1.065  10.139  0.1312 -0.6947  0.3756
 7224TIP3   OH243086   1.230   1.727   0.143  0.0194 -0.1075  0.2223
 7224TIP3    H143087   1.181   1.798   0.101 -0.9800 -0.3061  1.0274
 7224TIP3    H243088   1.317   1.731   0.103 -0.0438  1.5172  0.1987
 7225TIP3   OH243089   4.440   6.579  14.285  0.0569 -0.4201  0.5841
 7225TIP3    H143090   4.496   6.561  14.209 -0.0229  1.2825  0.1034
 7225TIP3    H243091   4.453   6.503  14.342  1.1492 -1.0977 -0.5197
 7226TIP3   OH243092   5.704   5.677   1.589 -0.1824  0.2198  0.1613
 7226TIP3    H143093   5.613   5.692   1.562  0.6103  1.1914 -2.0350
 7226TIP3    H243094   5.725   5.753   1.643 -0.7771 -0.1993  1.0047
 7227TIP3   OH243095   1.954   4.979  15.187  0.3711 -0.2882  0.3724
 7227TIP3    H143096   1.971   5.065  15.226  0.5569  0.0368 -0.4216
 7227TIP3    H243097   2.033   4.959  15.137  0.3497 -0.9439  0.5951
 7228TIP3   OH243098   6.129   4.755   4.668  0.0743 -0.0220 -0.0748
 7228TIP3    H143099   6.110   4.694   4.598  1.5113 -2.3909  1.5155
 7228TIP3    H243100   6.044   4.778   4.705 -0.5960  0.4279 -1.8843
 7229TIP3   OH243101   1.184   6.611  11.992  0.1311 -0.3280  0.0121
 7229TIP3    H143102   1.090   6.627  11.985 -0.0078 -0.7724  0.8531
 7229TIP3    H243103   1.192   6.535  12.050  1.0069 -0.2579 -0.0045
 7230TIP3   OH243104   2.444   1.447   0.863  0.2707 -0.1449 -0.1446
 7230TIP3    H143105   2.385   1.419   0.934 -0.5085  2.6010  0.3927
 7230TIP3    H243106   2.532   1.432   0.898 -0.0825 -2.5396 -0.2039
 7231TIP3   OH243107   1.532   4.480   3.073  0.5233 -0.3047  0.0867
 7231TIP3    H143108   1.529   4.559   3.127  0.2042 -0.6509  0.5767
 7231TIP3    H243109   1.547   4.409   3.135  1.2172 -0.5881 -0.3967
 7232TIP3   OH243110   2.683   6.641  11.148  0.4112 -0.7808 -0.1315
 7232TIP3    H143111   2.607   6.624  11.093  0.8799 -1.0552 -0.7057
 7232TIP3    H243112   2.758   6.618  11.093  1.0426  2.1119 -0.5290
 7233TIP3   OH243113   2.015   6.145   4.393 -0.5382 -0.8537  0.4867
 7233TIP3    H143114   2.097   6.137   4.443  0.4423 -0.9740 -1.1246
 7233TIP3    H243115   1.984   6.055   4.385 -0.7972 -0.8158  1.0369
 7234TIP3   OH243116   5.381   0.845  12.533 -0.4089 -0.6537  0.5821
 7234TIP3    H143117   5.336   0.761  12.542  0.2121 -1.0355  0.1629
 7234TIP3    H243118   5.445   0.831  12.463 -1.6846  0.7794 -0.9133
 7235TIP3   OH243119   5.768   4.792  11.603  0.4012  0.8280 -0.7636
 7235TIP3    H143120   5.821   4.719  11.635  0.5621  0.8824 -0.9112
 7235TIP3    H243121   5.754   4.773  11.511 -0.7218  0.2736 -0.4818
 7236TIP3   OH243122   0.688   4.334  15.696 -0.4448  0.9279  0.8202
 7236TIP3    H143123   0.729   4.414  15.663  0.7638 -0.0296 -0.0694
 7236TIP3    H243124   0.762   4.278  15.721 -1.2359 -0.3429  0.3643
 7237TIP3   OH243125   6.657   2.352  13.370 -1.1333 -0.2197  0.2212
 7237TIP3    H143126   6.692   2.417  13.309 -1.7373 -0.0915  0.0025
 7237TIP3    H243127   6.731   2.295  13.391 -0.5703  0.6102  0.5050
 7238TIP3   OH243128   0.165   4.967  12.919  0.3900 -0.3359  0.1505
 7238TIP3    H143129   0.221   4.894  12.945 -0.2880 -1.2865 -1.0242
 7238TIP3    H243130   0.082   4.952  12.963  0.3879 -0.0414  0.2504
 7239TIP3   OH243131   4.324   1.939   5.885 -0.2474  0.4204  0.0515
 7239TIP3    H143132   4.314   1.986   5.802 -3.0858  0.4745  0.3756
 7239TIP3    H243133   4.306   2.005   5.952  1.4554  0.2302  0.7233
 7240TIP3   OH243134   2.303   4.863   0.463  0.1711 -0.2220 -0.2260
 7240TIP3    H143135   2.220   4.911   0.467 -0.4930 -1.4576  0.7277
 7240TIP3    H243136   2.363   4.914   0.518 -0.0381  0.4838 -0.6432
 7241TIP3   OH243137   1.462   0.007   4.448  0.0056  1.0818  0.0130
 7241TIP3    H143138   1.470  -0.070   4.392  1.3180  0.3946  1.1038
 7241TIP3    H243139   1.399  -0.018   4.515  0.0497  1.1289  0.0724
 7242TIP3   OH243140   1.092   6.315   4.523 -1.1318 -0.1457  0.0534
 7242TIP3    H143141   1.112   6.241   4.465  0.9721  0.5637 -0.1367
 7242TIP3    H243142   1.121   6.392   4.475  0.6783  0.4540  2.0312
 7243TIP3   OH243143   0.672   1.712  15.517  0.1470 -0.1872  0.2727
 7243TIP3    H143144   0.698   1.804  15.505 -0.8051 -0.2923 -2.9148
 7243TIP3    H243145   0.755   1.664  15.520  0.5607  0.2211 -3.2549
 7244TIP3   OH243146   3.165   5.570  10.810 -0.2870  0.3700  0.3856
 7244TIP3    H143147   3.207   5.600  10.730 -1.1078  0.5678  0.0199
 7244TIP3    H243148   3.155   5.475  10.798 -1.5202  0.5736 -0.2821
 7245TIP3   OH243149   3.951   2.819  12.326  0.6614 -0.2382 -0.3644
 7245TIP3    H143150   4.003   2.869  12.388  0.4184 -0.9812  0.4544
 7245TIP3    H243151   4.016   2.780  12.266  0.8804  0.6216 -0.6924
 7246TIP3   OH243152   3.246   4.302   0.374 -0.6575  0.1514 -0.0161
 7246TIP3    H143153   3.154   4.329   0.371  0.1426  2.8332 -1.3551
 7246TIP3    H243154   3.270   4.288   0.282  0.3074 -0.4122  0.3129
 7247TIP3   OH243155   5.063   1.350  11.626 -0.6307  0.2783  0.2319
 7247TIP3    H143156   5.079   1.276  11.684 -0.7167  0.7182  0.8229
 7247TIP3    H243157   5.148   1.393  11.617 -0.6568  0.3219  0.1894
 7248TIP3   OH243158   6.628   1.825  16.191 -0.0394 -0.0740  0.3728
 7248TIP3    H143159   6.721   1.835  16.175  0.1105 -1.6103  0.2325
 7248TIP3    H243160   6.586   1.886  16.130  0.8031 -0.7113 -0.8502
 7249TIP3   OH243161   4.725   1.776   0.334 -0.0045  0.3656  0.4748
 7249TIP3    H143162   4.679   1.854   0.365  0.7633  0.4586  1.4234
 7249TIP3    H243163   4.775   1.747   0.410 -0.1660 -0.9704  0.0802
 7250TIP3   OH243164   2.820   5.706   5.308 -0.1393 -0.5089 -0.5879
 7250TIP3    H143165   2.864   5.775   5.357  0.7483 -2.3463  1.3312
 7250TIP3    H243166   2.727   5.722   5.321  0.0798 -1.1494  2.0965
 7251TIP3   OH243167   1.562   3.143   1.577 -0.7930  0.0055 -0.2735
 7251TIP3    H143168   1.484   3.195   1.558  0.5489  1.7375 -1.1188
 7251TIP3    H243169   1.553   3.065   1.522 -1.4252  0.6705 -1.1153
 7252TIP3   OH243170   5.785   5.852   2.508 -0.0400  0.3711 -0.0177
 7252TIP3    H143171   5.736   5.916   2.457 -0.2511  1.3929  1.4115
 7252TIP3    H243172   5.814   5.901   2.585  3.1628 -0.2257 -0.7754
 7253TIP3   OH243173   6.746   1.272  14.575 -0.3576 -0.3229 -0.1665
 7253TIP3    H143174   6.756   1.217  14.652  1.6333  1.2586  0.7480
 7253TIP3    H243175   6.786   1.356  14.599 -0.1985  0.3993 -2.7183
 7254TIP3   OH243176   0.732   5.785   1.718 -0.7553 -0.5922 -0.2296
 7254TIP3    H143177   0.784   5.746   1.788  0.0256 -0.2550 -0.6179
 7254TIP3    H243178   0.666   5.718   1.697  0.2025 -1.4721 -0.4798
 7255TIP3   OH243179   5.242   2.228   5.855  0.4115 -0.5979  0.0001
 7255TIP3    H143180   5.307   2.274   5.800  0.1399 -0.3674 -0.1279
 7255TIP3    H243181   5.291   2.203   5.933  0.0619  1.6800  0.9717
 7256TIP3   OH243182   3.989   0.300  11.292 -0.5620  0.1116 -0.4950
 7256TIP3    H143183   4.015   0.228  11.349  0.1718  0.5964 -0.2197
 7256TIP3    H243184   3.926   0.261  11.231 -0.4515 -0.6726 -0.1059
 7257TIP3   OH243185   0.868   3.316   4.048  0.0362 -0.6410 -1.1118
 7257TIP3    H143186   0.926   3.344   3.977  0.3375  0.0840 -0.5894
 7257TIP3    H243187   0.875   3.386   4.113  0.7595 -1.9256  0.1960
 7258TIP3   OH243188   1.648   4.223  15.978 -0.6155 -0.0145  0.3094
 7258TIP3    H143189   1.702   4.283  15.926  0.4946  1.2098  2.7508
 7258TIP3    H243190   1.699   4.142  15.982  0.1435  0.4833  0.9566
 7259TIP3   OH243191   1.224   5.851  11.621 -0.3942 -0.1536 -0.3085
 7259TIP3    H143192   1.278   5.929  11.634  0.0507 -0.7640  1.7675
 7259TIP3    H243193   1.199   5.854  11.529 -1.3942  3.0769  0.0206
 7260TIP3   OH243194   1.922   4.030   4.569  0.2199 -0.1016  0.6084
 7260TIP3    H143195   1.938   4.123   4.585  1.2941 -0.2449  0.4197
 7260TIP3    H243196   1.832   4.026   4.536  1.2138  1.2309 -2.4450
 7261TIP3   OH243197   1.496   6.225   4.317 -0.3843  0.0013  0.2776
 7261TIP3    H143198   1.581   6.231   4.273 -0.5280 -1.8977 -0.2923
 7261TIP3    H243199   1.482   6.131   4.328 -0.3817  0.3778  4.3111
 7262TIP3   OH243200   0.929   3.888   6.283  0.4716 -0.9388  0.0505
 7262TIP3    H143201   0.950   3.969   6.236 -0.6554 -2.7985 -3.8585
 7262TIP3    H243202   0.845   3.906   6.326 -0.2988 -0.3509 -1.6526
 7263TIP3   OH243203   6.735   4.899   2.197  0.0527  0.5484  0.2512
 7263TIP3    H143204   6.686   4.849   2.130 -1.6186  1.2449  0.9222
 7263TIP3    H243205   6.823   4.908   2.160 -0.2751 -0.8631 -0.9360
 7264TIP3   OH243206   5.255   5.100  12.392  0.3320 -0.4326  0.2172
 7264TIP3    H143207   5.305   5.181  12.381  0.0526 -0.5354 -2.0464
 7264TIP3    H243208   5.318   5.038  12.429  0.4136  0.9219  2.4547
 7265TIP3   OH243209   5.834   6.071   0.191 -0.3047  0.6711 -0.4384
 7265TIP3    H143210   5.741   6.074   0.168 -0.4307 -0.8522 -0.1726
 7265TIP3    H243211   5.864   5.986   0.160  1.4017  1.7719 -1.9505
 7266TIP3   OH243212   4.339   3.450  10.833  0.5225  0.3330 -0.0251
 7266TIP3    H143213   4.269   3.480  10.774 -0.5471  0.5262  1.3314
 7266TIP3    H243214   4.330   3.355  10.833  1.2051  0.2598 -0.9934
 7267TIP3   OH243215   0.492   3.896   0.039 -1.1868 -0.2584  0.1002
 7267TIP3    H143216   0.477   3.958  -0.032  1.6020 -0.0127 -0.3349
 7267TIP3    H243217   0.421   3.913   0.102 -3.9936 -0.8409 -2.7978
 7268TIP3   OH243218   5.549   0.154   4.876  0.0969 -0.1766 -0.5247
 7268TIP3    H143219   5.625   0.203   4.907 -0.5452  1.4795 -1.5208
 7268TIP3    H243220   5.477   0.187   4.930 -0.5501  0.8472 -1.9878
 7269TIP3   OH243221   1.703   2.010   5.355  0.2245 -0.0894  0.0997
 7269TIP3    H143222   1.669   1.944   5.294  1.3740 -1.3484  0.8073
 7269TIP3    H243223   1.643   2.084   5.345 -1.0061 -1.1781 -0.8022
 7270TIP3   OH243224   5.471   3.087  12.445 -0.3858  0.0546  0.3747
 7270TIP3    H143225   5.505   3.014  12.497 -0.3575 -0.5894 -0.5357
 7270TIP3    H243226   5.549   3.130  12.410 -0.4416 -0.1215  0.0382
 7271TIP3   OH243227   1.542   1.650  16.985 -0.2932 -0.3297 -0.4506
 7271TIP3    H143228   1.510   1.559  16.988 -0.1612 -0.3475  0.7392
 7271TIP3    H243229   1.637   1.641  16.981 -0.3153 -0.2493 -1.1655
 7272TIP3   OH243230   1.382   1.047   2.424 -0.1854 -0.1721  0.0053
 7272TIP3    H143231   1.467   1.005   2.441 -0.3273 -0.8485 -0.9081
 7272TIP3    H243232   1.379   1.056   2.329 -2.3162 -2.6987 -0.2346
 7273TIP3   OH243233   4.392   1.406   2.023  0.4408 -0.2730 -0.1776
 7273TIP3    H143234   4.379   1.471   2.091  0.2570 -0.8900  0.3800
 7273TIP3    H243235   4.444   1.451   1.956  1.0679  0.1760  0.6047
 7274TIP3   OH243236   6.712   6.416   2.127 -0.7585 -0.3401 -0.0543
 7274TIP3    H143237   6.807   6.405   2.130 -0.2024  3.7630 -0.0566
 7274TIP3    H243238   6.691   6.417   2.034 -0.2696  2.2613 -0.1735
 7275TIP3   OH243239   2.758   3.398  17.144  0.4302  0.2021  0.2639
 7275TIP3    H143240   2.767   3.309  17.111  1.9110  0.5959 -0.4455
 7275TIP3    H243241   2.671   3.425  17.116  1.4746  0.3548 -2.9813
 7276TIP3   OH243242   6.561   5.716  15.975  0.6341 -0.1643  0.0499
 7276TIP3    H143243   6.479   5.715  16.024  1.4263  0.6006  1.4193
 7276TIP3    H243244   6.542   5.767  15.897 -0.5725 -1.1648 -0.3200
 7277TIP3   OH243245   0.099   2.525  15.351 -0.4354  0.6142 -0.3743
 7277TIP3    H143246   0.024   2.582  15.369 -0.1182  1.0424 -0.3980
 7277TIP3    H243247   0.089   2.452  15.412 -0.7962  0.7426 -0.2788
 7278TIP3   OH243248   3.536   2.697   1.648 -0.0135  0.6847  0.1297
 7278TIP3    H143249   3.447   2.733   1.643  0.1324  1.0130 -0.0772
 7278TIP3    H243250   3.532   2.618   1.595 -0.4551  0.1463  0.9493
 7279TIP3   OH243251   1.049   3.259  16.540  0.1277 -0.5990  0.0982
 7279TIP3    H143252   1.040   3.210  16.459  0.0811 -1.1032  0.4072
 7279TIP3    H243253   1.060   3.192  16.608  4.4673 -0.1211  0.0040
 7280TIP3   OH243254   5.124   4.146   4.587 -0.1391 -0.0331 -0.3369
 7280TIP3    H143255   5.120   4.182   4.499  1.3361 -0.4821 -0.6078
 7280TIP3    H243256   5.191   4.198   4.631  0.0768 -0.6668  0.0947
 7281TIP3   OH243257   3.239   6.545  11.812  0.3535 -0.2757 -0.0382
 7281TIP3    H143258   3.292   6.552  11.892  0.9736  0.4599 -0.5145
 7281TIP3    H243259   3.181   6.621  11.815 -0.8618 -1.1983  0.5947
 7282TIP3   OH243260   1.770   5.943  14.521  0.5935 -0.1257  0.0755
 7282TIP3    H143261   1.814   5.925  14.438  0.4099  0.6659 -0.1983
 7282TIP3    H243262   1.729   5.860  14.544  1.3472 -0.5799 -0.1977
 7283TIP3   OH243263   5.767   0.318   2.738  0.3638  0.0454  0.3268
 7283TIP3    H143264   5.770   0.239   2.791 -1.7018 -0.1795  0.1702
 7283TIP3    H243265   5.751   0.287   2.649  0.0848  0.5873  0.1810
 7284TIP3   OH243266   3.901   5.377  11.066 -0.5443  0.4075  0.0212
 7284TIP3    H143267   3.954   5.450  11.095  1.3257 -1.4656  1.5065
 7284TIP3    H243268   3.811   5.403  11.085  0.1742  1.9162  1.4292
 7285TIP3   OH243269   1.491   2.453   0.688  0.4943 -0.3641 -0.4253
 7285TIP3    H143270   1.545   2.462   0.766 -0.7009 -0.1847  0.4041
 7285TIP3    H243271   1.413   2.506   0.706 -0.3395 -1.2630 -1.2502
 7286TIP3   OH243272   0.634   6.613   5.757 -0.4352 -0.0578  0.4635
 7286TIP3    H143273   0.726   6.635   5.749 -0.6624 -0.0394 -2.4556
 7286TIP3    H243274   0.596   6.684   5.809  0.8628  0.7734  0.2768
 7287TIP3   OH243275   4.371   5.623   2.031 -0.3139 -0.2425 -0.2156
 7287TIP3    H143276   4.315   5.566   1.978  0.0010 -0.0014 -0.8083
 7287TIP3    H243277   4.415   5.564   2.092 -3.7971 -0.0957  2.6412
 7288TIP3   OH243278   4.328   5.744   0.269  0.2757  0.1910 -0.0658
 7288TIP3    H143279   4.242   5.762   0.230 -0.5470 -1.2019  1.0541
 7288TIP3    H243280   4.378   5.824   0.252 -1.9251  1.9061  1.1072
 7289TIP3   OH243281   0.490   4.179  12.754 -0.4201  0.4898 -0.2963
 7289TIP3    H143282   0.530   4.266  12.748  0.7624 -0.0794 -0.9534
 7289TIP3    H243283   0.565   4.119  12.758 -1.1955 -0.6188 -1.8839
 7290TIP3   OH243284   0.291   0.397   3.564  0.3568  0.3404  0.2058
 7290TIP3    H143285   0.202   0.418   3.590 -0.6072 -2.1628 -0.8483
 7290TIP3    H243286   0.302   0.305   3.591  1.8260 -0.0612 -1.6869
 7291TIP3   OH243287   5.094   3.832   1.338  0.8755  0.0630 -0.3555
 7291TIP3    H143288   5.058   3.907   1.292 -0.5989 -0.2348  0.2820
 7291TIP3    H243289   5.080   3.758   1.279 -0.1986 -0.1707  0.1961
 7292TIP3   OH243290   2.376   6.127   0.855  0.4902 -0.4309  0.0897
 7292TIP3    H143291   2.295   6.146   0.903  1.7267  0.3525  1.9431
 7292TIP3    H243292   2.349   6.126   0.763 -1.5478  0.2355  0.6348
 7293TIP3   OH243293   3.927   0.386  16.657  0.3918  0.4319 -0.2663
 7293TIP3    H143294   3.977   0.427  16.727 -2.4142 -0.1742  2.1611
 7293TIP3    H243295   3.881   0.459  16.615  1.1823  0.6503 -0.7629
 7294TIP3   OH243296   3.806   0.728   0.490  0.3602  0.0698  0.2553
 7294TIP3    H143297   3.771   0.690   0.410  0.4790 -0.0352  0.2536
 7294TIP3    H243298   3.899   0.706   0.489  0.4787  0.5629  0.1351
 7295TIP3   OH243299   3.966   5.063  11.184 -0.5156 -0.1548  0.0878
 7295TIP3    H143300   3.967   5.089  11.276 -0.6880  1.0384 -0.2385
 7295TIP3    H243301   3.937   5.141  11.137 -3.0201 -1.5260 -0.7396
 7296TIP3   OH243302   5.335   2.497  11.611 -0.0045 -0.3138 -0.4129
 7296TIP3    H143303   5.317   2.466  11.522  0.3426 -0.7746 -0.3235
 7296TIP3    H243304   5.293   2.583  11.615  1.2787  0.3852 -1.5297
 7297TIP3   OH243305   0.743   1.998   3.289  0.3721  0.1058 -0.1379
 7297TIP3    H143306   0.709   1.984   3.377 -1.4400 -1.5347 -1.0372
 7297TIP3    H243307   0.697   2.076   3.257  1.7251  1.2529  0.6867
 7298TIP3   OH243308   0.775   0.007  13.605  0.2939  0.4293 -0.5665
 7298TIP3    H143309   0.754   0.091  13.647 -0.1819 -0.2088  0.5153
 7298TIP3    H243310   0.786  -0.053  13.679  0.9815 -0.3775 -1.3263
 7299TIP3   OH243311   2.726   1.143  12.238  0.1934 -0.0474  0.0193
 7299TIP3    H143312   2.814   1.135  12.203  0.6957  0.8828  1.0571
 7299TIP3    H243313   2.726   1.090  12.318 -0.9033 -2.0386 -1.2578
 7300TIP3   OH243314   3.720   1.503   0.971 -0.0391  0.9160  0.3766
 7300TIP3    H143315   3.705   1.578   0.913  1.8555  2.1017  1.3767
 7300TIP3    H243316   3.657   1.515   1.042 -0.0842  1.3035  0.2758
 7301TIP3   OH243317   0.543   1.348   2.346  0.1113 -0.1014 -0.5864
 7301TIP3    H143318   0.488   1.411   2.299 -0.9456 -0.2906  0.3688
 7301TIP3    H243319   0.546   1.272   2.288 -0.1800  0.1206 -0.8983
 7302TIP3   OH243320   2.982   0.650  15.968 -0.4130  0.2021 -0.4005
 7302TIP3    H143321   2.988   0.686  15.879 -0.9541  2.0309  0.2695
 7302TIP3    H243322   3.058   0.685  16.014 -2.0272  2.2349  0.8350
 7303TIP3   OH243323   1.246   0.673  11.305  0.2006 -0.2598 -0.0672
 7303TIP3    H143324   1.319   0.720  11.346 -1.7517  1.1081  1.9514
 7303TIP3    H243325   1.232   0.718  11.222 -0.1549  1.2833  0.8165
 7304TIP3   OH243326   0.585   4.366   2.420 -0.1237  0.2330 -0.0166
 7304TIP3    H143327   0.558   4.318   2.498  3.1880  1.1020  1.7319
 7304TIP3    H243328   0.540   4.450   2.426 -1.0776 -0.2809  0.1298
 7305TIP3   OH243329   2.540   4.349   5.683 -0.1373  0.4692 -0.0142
 7305TIP3    H143330   2.624   4.310   5.658 -0.0727  0.8602 -0.4243
 7305TIP3    H243331   2.521   4.313   5.769  1.0516  1.3228  0.6135
 7306TIP3   OH243332   0.294   6.450   5.164 -0.0676  0.4245 -0.0117
 7306TIP3    H143333   0.267   6.539   5.184 -2.4120 -0.2900  0.2011
 7306TIP3    H243334   0.237   6.395   5.218  0.6785 -1.2413 -0.8733
 7307TIP3   OH243335   6.442   6.084   1.837 -0.0376 -0.2868  1.0846
 7307TIP3    H143336   6.404   6.172   1.841  0.6595  0.0364  0.6087
 7307TIP3    H243337   6.472   6.068   1.927 -0.1183 -0.0231  1.1623
 7308TIP3   OH243338   3.370   3.476   1.874  0.6800 -0.6610  0.1148
 7308TIP3    H143339   3.367   3.566   1.907 -2.6500  0.1290 -1.9961
 7308TIP3    H243340   3.324   3.424   1.940  1.4296 -0.5757  0.7039
 7309TIP3   OH243341   0.579   5.541   1.575  0.4381  0.0635 -0.4681
 7309TIP3    H143342   0.650   5.510   1.518 -0.4496  0.6574 -1.9483
 7309TIP3    H243343   0.504   5.551   1.516 -1.0102 -0.9605  1.1435
 7310TIP3   OH243344   0.219   1.816   1.759  0.3642  0.0766 -0.8229
 7310TIP3    H143345   0.158   1.766   1.812  0.3417  1.5554  0.5943
 7310TIP3    H243346   0.206   1.784   1.669 -1.0550 -1.0028 -0.2381
 7311TIP3   OH243347   4.254   6.610  13.793 -0.3675  0.6588  0.1097
 7311TIP3    H143348   4.263   6.671  13.720 -0.7434 -0.2737 -0.7298
 7311TIP3    H243349   4.179   6.642  13.843 -1.9632 -0.3665 -1.5786
 7312TIP3   OH243350   4.947   6.239  12.050  0.6213 -0.2177 -0.0081
 7312TIP3    H143351   5.017   6.175  12.063  1.6155  0.9347  0.4073
 7312TIP3    H243352   4.889   6.227  12.126  0.3415 -1.1860 -0.3654
 7313TIP3   OH243353   2.648   3.315   1.361 -0.1872 -0.1962 -0.5405
 7313TIP3    H143354   2.688   3.236   1.326 -0.3212  0.0407 -1.2349
 7313TIP3    H243355   2.554   3.302   1.347 -0.5102 -1.3723  2.3338
 7314TIP3   OH243356   3.295   4.082  11.308  0.2640  0.0253  0.1335
 7314TIP3    H143357   3.318   4.090  11.401  0.0089 -0.5946  0.2529
 7314TIP3    H243358   3.227   4.015  11.306  1.0263 -0.7342 -0.6162
 7315TIP3   OH243359   1.162   3.624   1.622 -0.0912  0.0178 -0.1616
 7315TIP3    H143360   1.151   3.711   1.582 -0.7473  1.2823  2.6461
 7315TIP3    H243361   1.252   3.600   1.603 -0.0515  1.0748 -1.4120
 7316TIP3   OH243362   1.009   2.891   6.269  0.0449 -0.5129 -0.7549
 7316TIP3    H143363   1.084   2.949   6.276  0.0311 -0.3192 -2.1023
 7316TIP3    H243364   0.933   2.949   6.272 -0.3126 -0.9713  4.6691
 7317TIP3   OH243365   4.783   6.291   3.871 -0.6724 -0.2115  0.2432
 7317TIP3    H143366   4.802   6.309   3.963 -0.6260 -0.4826  0.2858
 7317TIP3    H243367   4.838   6.216   3.849 -0.3144  0.1578 -0.1401
 7318TIP3   OH243368   5.839   2.610   1.661  0.3357 -0.5060 -0.2721
 7318TIP3    H143369   5.814   2.623   1.569  0.6507 -0.6152 -0.3730
 7318TIP3    H243370   5.819   2.518   1.677 -0.5521 -0.2696  0.0275
 7319TIP3   OH243371   0.830   1.389   0.978  0.0411  0.6024  0.4604
 7319TIP3    H143372   0.908   1.417   0.929 -1.0978  0.4626 -1.4679
 7319TIP3    H243373   0.859   1.311   1.026  1.0239  0.3658 -0.4874
 7320TIP3   OH243374   1.169   3.309   1.794 -0.4420 -0.0844 -0.5738
 7320TIP3    H143375   1.158   3.215   1.808 -2.0686 -0.0976 -1.8777
 7320TIP3    H243376   1.081   3.346   1.805  0.2901  1.3890  0.6118
 7321TIP3   OH243377   5.662   4.361   0.562  0.0274  0.0343  0.1865
 7321TIP3    H143378   5.690   4.346   0.472 -0.3462 -1.1526  0.2514
 7321TIP3    H243379   5.592   4.425   0.555 -2.3109 -2.4970 -0.7423
 7322TIP3   OH243380   1.278   0.047   5.587 -0.4205 -0.3537 -0.1086
 7322TIP3    H143381   1.228   0.100   5.649 -0.9875 -0.5609 -0.3796
 7322TIP3    H243382   1.359   0.026   5.633  0.1319  1.3765 -0.2844
 7323TIP3   OH243383   6.752   3.385  16.060 -0.1425  0.0739 -0.1725
 7323TIP3    H143384   6.770   3.474  16.027 -0.0707 -0.0850 -0.5651
 7323TIP3    H243385   6.803   3.379  16.141 -1.0413  0.7860  0.4575
 7324TIP3   OH243386   5.329   3.630   2.291  0.2903 -0.0871  0.0465
 7324TIP3    H143387   5.371   3.545   2.309  3.4011  1.1514 -0.9272
 7324TIP3    H243388   5.356   3.650   2.201 -0.4381  1.9193  0.2736
 7325TIP3   OH243389   4.398   1.474  11.468 -0.0088 -0.0374  0.4369
 7325TIP3    H143390   4.348   1.555  11.466  1.2748  0.7599 -0.3576
 7325TIP3    H243391   4.389   1.437  11.380  0.8495  0.1587  0.2570
 7326TIP3   OH243392   3.539   4.298  10.812  0.2353 -0.7588 -0.3273
 7326TIP3    H143393   3.633   4.281  10.802 -0.0515 -2.4593 -0.3936
 7326TIP3    H243394   3.534   4.386  10.848  1.9576 -1.5832  2.0373
 7327TIP3   OH243395   0.015   5.352   5.347  0.0030 -0.1858 -0.0571
 7327TIP3    H143396  -0.002   5.429   5.402  0.2387 -0.7298  0.7855
 7327TIP3    H243397   0.109   5.337   5.357  0.0819 -0.1729 -0.7659
 7328TIP3   OH243398   2.006   0.330  16.186  0.7653  0.6663  0.7263
 7328TIP3    H143399   1.971   0.282  16.111  2.6051  0.2288  0.1044
 7328TIP3    H243400   2.018   0.419  16.155  3.0384  0.1254 -0.0393
 7329TIP3   OH243401   2.077   5.149   1.405  0.6357 -0.0606 -0.3328
 7329TIP3    H143402   2.107   5.174   1.318  3.5818  0.4709  0.7643
 7329TIP3    H243403   2.055   5.232   1.448 -0.8451 -0.3233 -0.5548
 7330TIP3   OH243404   4.549   1.549   1.827  0.1992  0.7234  0.0476
 7330TIP3    H143405   4.525   1.552   1.734 -0.9824  1.0705  0.3638
 7330TIP3    H243406   4.620   1.484   1.831  1.9155  2.4427 -1.4612
 7331TIP3   OH243407   6.624   3.714  14.932  0.3542  0.5691  0.6593
 7331TIP3    H143408   6.551   3.691  14.989  1.5878 -1.4758  1.4949
 7331TIP3    H243409   6.651   3.801  14.961 -0.1058  0.2483  2.0749
 7332TIP3   OH243410   3.463   6.441   0.349 -0.5976  0.3373 -0.1776
 7332TIP3    H143411   3.526   6.465   0.417 -0.5607  0.5938 -0.3044
 7332TIP3    H243412   3.398   6.387   0.395  0.3760 -0.9552 -0.2965
 7333TIP3   OH243413   4.077   6.262  15.627 -0.2154  0.7074  0.0186
 7333TIP3    H143414   4.049   6.171  15.631  1.6328  0.1749  0.9818
 7333TIP3    H243415   4.152   6.262  15.568  0.6759  1.3753  1.1446
 7334TIP3   OH243416   0.480   3.637   4.476 -0.1740 -0.2618  0.5174
 7334TIP3    H143417   0.556   3.694   4.488 -0.7144  0.7880 -0.9097
 7334TIP3    H243418   0.404   3.694   4.491 -0.7250 -0.4440 -1.4450
 7335TIP3   OH243419   1.497   6.514   4.371  0.4496  0.4893  0.0181
 7335TIP3    H143420   1.506   6.435   4.318  1.1945  1.1540 -0.8717
 7335TIP3    H243421   1.518   6.486   4.460  1.2303 -0.2063 -0.3825
 7336TIP3   OH243422   3.479   5.756  17.088  0.5882 -0.2705 -0.3445
 7336TIP3    H143423   3.448   5.681  17.138  3.3863 -1.1687  0.1202
 7336TIP3    H243424   3.505   5.720  17.004  1.6279  0.1990 -0.2377
 7337TIP3   OH243425   2.749   2.815   5.948 -0.1399  0.0223 -0.0635
 7337TIP3    H143426   2.664   2.844   5.914 -0.6927 -0.7500  0.6449
 7337TIP3    H243427   2.747   2.720   5.938  0.3845 -0.0530  0.5397
 7338TIP3   OH243428   2.320   6.459   1.859  0.2072 -0.0867  0.6366
 7338TIP3    H143429   2.354   6.475   1.771  0.0975 -2.3651  0.1359
 7338TIP3    H243430   2.284   6.543   1.887 -0.0769  0.5789 -1.6264
 7339TIP3   OH243431   4.471   1.171  16.877 -0.4876 -0.1003 -0.2980
 7339TIP3    H143432   4.380   1.143  16.888 -0.3210  0.3890  2.6494
 7339TIP3    H243433   4.512   1.152  16.961  1.3860  2.4970 -0.5770
 7340TIP3   OH243434   1.210   4.269   2.368 -0.0970 -0.6983  0.2247
 7340TIP3    H143435   1.294   4.241   2.331  0.3966  1.0610 -0.0051
 7340TIP3    H243436   1.229   4.289   2.459  0.1238  1.3273 -0.2401
 7341TIP3   OH243437   2.322   4.125  15.635  0.5878  0.0958  0.0303
 7341TIP3    H143438   2.313   4.100  15.543 -0.2428 -1.1584  0.4438
 7341TIP3    H243439   2.383   4.062  15.672  1.2170  0.8306  0.2590
 7342TIP3   OH243440   0.443   4.475   6.118 -0.4630  0.4112  0.4996
 7342TIP3    H143441   0.456   4.386   6.083 -0.0808  0.3997  0.6693
 7342TIP3    H243442   0.428   4.461   6.211 -1.6985  0.4265  0.3142
 7343TIP3   OH243443   2.766   4.211   5.549  0.3505 -0.0651  0.0595
 7343TIP3    H143444   2.840   4.150   5.545 -0.2039 -0.7419  0.2902
 7343TIP3    H243445   2.805   4.296   5.525  1.0279 -0.5770 -0.6875
 7344TIP3   OH243446   4.280   0.008   0.351 -0.1990 -0.5592  0.4736
 7344TIP3    H143447   4.355  -0.031   0.396  0.8088 -0.5491 -1.1442
 7344TIP3    H243448   4.213  -0.060   0.353  0.4726 -1.2418  0.3958
 7345TIP3   OH243449   3.698   5.277  14.170  0.3861  0.9782  0.2861
 7345TIP3    H143450   3.777   5.316  14.208  0.5604  2.4623 -1.5533
 7345TIP3    H243451   3.730   5.228  14.094 -0.6203  2.8650 -1.3894
 7346TIP3   OH243452   0.100   4.079  16.111  0.1862  0.5167  0.0910
 7346TIP3    H143453   0.182   4.103  16.155 -0.3267  0.4980  1.0855
 7346TIP3    H243454   0.125   4.057  16.022  1.1151  1.5986  0.0832
 7347TIP3   OH243455   4.759   1.620   4.061 -0.1351 -0.0602 -0.0033
 7347TIP3    H143456   4.776   1.707   4.097 -0.0457  0.7856 -2.0451
 7347TIP3    H243457   4.841   1.594   4.022 -0.6778 -0.2822 -0.9989
 7348TIP3   OH243458   5.490   2.188  15.563  0.1318 -0.4425  0.2558
 7348TIP3    H143459   5.419   2.229  15.613 -1.9610 -1.7206 -1.5450
 7348TIP3    H243460   5.480   2.095  15.580 -0.2988 -0.8601 -2.0533
 7349TIP3   OH243461   4.091   4.267  14.397  0.1344  0.4680  0.4720
 7349TIP3    H143462   4.004   4.271  14.356 -0.1955  0.8368  1.1938
 7349TIP3    H243463   4.150   4.244  14.325 -0.6837 -0.7120  0.1672
 7350TIP3   OH243464   5.305   0.767  16.853 -0.6891  0.5269  0.5328
 7350TIP3    H143465   5.210   0.772  16.844 -0.8673 -0.3836  1.7005
 7350TIP3    H243466   5.339   0.839  16.800 -2.0377  0.9100  0.1838
 7351TIP3   OH243467   3.270   6.292  16.265 -0.3815 -0.0830  0.3658
 7351TIP3    H143468   3.223   6.375  16.265 -0.0659  0.0940  0.2384
 7351TIP3    H243469   3.213   6.232  16.216  0.3463  0.5954 -1.3435
 7352TIP3   OH243470   0.408   3.216  12.108 -0.5481 -0.2209 -0.3428
 7352TIP3    H143471   0.334   3.163  12.078 -2.0794  0.3148  2.3700
 7352TIP3    H243472   0.432   3.178  12.193  0.3948  1.4307  0.1390
 7353TIP3   OH243473   6.717   2.005   1.257 -0.6575  0.3297  0.1816
 7353TIP3    H143474   6.671   2.062   1.195  0.4302  0.3624 -0.6144
 7353TIP3    H243475   6.686   1.917   1.236 -1.4072  0.4942  0.5839
 7354TIP3   OH243476   1.450   0.327   5.684  0.1145 -0.5206  0.4379
 7354TIP3    H143477   1.379   0.349   5.744 -0.8053 -0.6361 -0.5840
 7354TIP3    H243478   1.462   0.233   5.693 -2.5861 -1.1946 -2.2456
 7355TIP3   OH243479   0.884   2.007  12.708 -0.6059  0.3625  0.0980
 7355TIP3    H143480   0.806   1.992  12.761 -1.8659  0.5293 -1.6548
 7355TIP3    H243481   0.871   2.094  12.669 -0.4874 -0.4067 -1.7332
 7356TIP3   OH243482   2.016   5.148  16.436  0.3264  0.1649  0.3932
 7356TIP3    H143483   1.947   5.108  16.383  0.4598  0.6207 -0.1387
 7356TIP3    H243484   1.988   5.134  16.526  0.1938 -0.8019  0.2089
 7357TIP3   OH243485   3.462   1.950  14.968 -0.3026 -0.0600  0.4506
 7357TIP3    H143486   3.495   1.900  15.042  0.1767  0.8338  0.8471
 7357TIP3    H243487   3.433   1.884  14.905  1.3660 -0.8410  0.4916
 7358TIP3   OH243488   2.932   3.697   4.673 -0.4377  0.1072  0.1159
 7358TIP3    H143489   3.000   3.650   4.626 -1.7056 -0.6137 -1.0236
 7358TIP3    H243490   2.894   3.632   4.732  0.1116  0.6126  1.0482
 7359TIP3   OH243491   5.115   3.108  13.821 -0.1422  0.0493  0.3250
 7359TIP3    H143492   5.028   3.077  13.799  0.2892  0.3755 -1.9450
 7359TIP3    H243493   5.169   3.029  13.824  0.1884  0.1630 -1.7865
 7360TIP3   OH243494   3.150   6.039  15.850  0.3352 -0.2283  0.0537
 7360TIP3    H143495   3.223   6.073  15.901  0.6910 -2.3361  0.9943
 7360TIP3    H243496   3.152   5.944  15.864 -2.4583 -0.3518 -0.0290
 7361TIP3   OH243497   3.791   5.304   6.029  0.6254 -0.0022  0.1859
 7361TIP3    H143498   3.837   5.385   6.050 -0.8434  0.8921  0.0131
 7361TIP3    H243499   3.761   5.270   6.113 -0.6728  0.7938  0.0425
 7362TIP3   OH243500   0.972   4.560   3.994 -0.0369 -0.5439 -0.3032
 7362TIP3    H143501   0.940   4.630   3.937 -1.6273 -0.0478  1.1677
 7362TIP3    H243502   0.919   4.484   3.969  0.3964 -0.7571 -0.5937
 7363TIP3   OH243503   1.319   2.701   4.810  0.6054 -0.0682  0.1166
 7363TIP3    H143504   1.403   2.673   4.772 -0.0278 -1.2659 -0.4350
 7363TIP3    H243505   1.259   2.700   4.736 -0.0484  0.1681  0.6443
 7364TIP3   OH243506   5.018   0.274   2.406 -0.5472 -0.2553  0.0247
 7364TIP3    H143507   5.095   0.323   2.379 -0.6127 -0.2501 -0.1535
 7364TIP3    H243508   4.984   0.322   2.482 -1.0333  0.3952 -0.5959
 7365TIP3   OH243509   3.200   6.239  12.311 -0.3741  0.3174 -0.2470
 7365TIP3    H143510   3.290   6.214  12.331 -0.8834 -2.4354 -1.1599
 7365TIP3    H243511   3.167   6.277  12.392  1.0721 -0.3027  0.6535
 7366TIP3   OH243512   5.961   2.084  11.478  0.1667 -0.3810 -0.4030
 7366TIP3    H143513   5.918   2.161  11.441  0.7231  0.1318  0.0037
 7366TIP3    H243514   5.938   2.086  11.571 -0.2413 -0.9957 -0.4872
 7367TIP3   OH243515   2.731   0.256   3.065 -0.3022  0.1545 -0.1646
 7367TIP3    H143516   2.711   0.255   2.971 -2.0542  1.3522  0.1767
 7367TIP3    H243517   2.760   0.346   3.082 -0.7820  0.1670  0.6030
 7368TIP3   OH243518   2.234   0.974  15.077 -0.1913 -0.1428  0.4349
 7368TIP3    H143519   2.141   0.989  15.060 -0.0693 -0.0967 -0.1958
 7368TIP3    H243520   2.279   1.014  15.003  0.3497  0.1387  0.9125
 7369TIP3   OH243521   6.121   5.127   5.401 -0.0243  0.4870  0.1559
 7369TIP3    H143522   6.035   5.096   5.373  0.0165  0.0414  0.5222
 7369TIP3    H243523   6.112   5.142   5.495  0.5799 -0.5261  0.3869
 7370TIP3   OH243524   0.469   6.736   4.058  0.5086 -0.2248  0.1030
 7370TIP3    H143525   0.466   6.826   4.091  0.9234 -0.0327 -0.3793
 7370TIP3    H243526   0.474   6.682   4.137  1.0498  0.2129  0.3706
 7371TIP3   OH243527   6.139   6.410  14.031 -0.1203  0.4103 -0.3720
 7371TIP3    H143528   6.139   6.440  14.122  1.1729 -1.3068  0.2123
 7371TIP3    H243529   6.218   6.356  14.024 -0.3428  0.3330 -2.4502
 7372TIP3   OH243530   2.394   5.798   3.724  0.3528  0.8217 -0.0925
 7372TIP3    H143531   2.304   5.829   3.711 -0.1603 -0.2911  0.7156
 7372TIP3    H243532   2.409   5.806   3.818  0.9243  0.5104 -0.1544
 7373TIP3   OH243533   2.615   1.689  12.655 -0.3020  0.0090  0.3978
 7373TIP3    H143534   2.589   1.770  12.698  1.1711  0.5381  0.3148
 7373TIP3    H243535   2.541   1.629  12.669 -1.8473  1.6719 -0.4245
 7374TIP3   OH243536   0.786   1.374   3.362 -0.0497 -0.3619  0.1453
 7374TIP3    H143537   0.824   1.292   3.393  2.2757  0.0006 -1.6226
 7374TIP3    H243538   0.820   1.441   3.421  1.5187 -0.1299 -1.0067
 7375TIP3   OH243539   3.680   0.893   0.692  0.2631  0.5561 -0.2270
 7375TIP3    H143540   3.647   0.958   0.631 -0.7970 -0.4306 -0.7267
 7375TIP3    H243541   3.732   0.833   0.638  0.6090  0.5570  0.0987
 7376TIP3   OH243542   1.151   4.433   5.331 -0.0786  0.5114  0.1251
 7376TIP3    H143543   1.192   4.490   5.266  1.1166 -0.8248 -0.3511
 7376TIP3    H243544   1.131   4.353   5.282  2.5178 -1.2282  1.7443
 7377TIP3   OH243545   5.004   1.407  12.450  0.1579 -0.4745  0.1688
 7377TIP3    H143546   5.070   1.338  12.449  0.7462 -0.0983  4.4252
 7377TIP3    H243547   5.048   1.482  12.491 -1.5671  1.2627 -1.0561
 7378TIP3   OH243548   0.876   0.674  16.373 -0.0471  0.6528  0.0031
 7378TIP3    H143549   0.905   0.758  16.407  1.4130  0.7106 -1.2937
 7378TIP3    H243550   0.926   0.609  16.423  0.4174  0.6583 -0.4388
 7379TIP3   OH243551   0.324   5.232  15.281  0.0905 -0.5254 -0.0820
 7379TIP3    H143552   0.382   5.300  15.245 -0.7253  1.1933  1.6991
 7379TIP3    H243553   0.374   5.197  15.355  0.9500 -2.6574 -1.6331
 7380TIP3   OH243554   0.361   4.607  16.857 -0.3624  0.5182 -0.4751
 7380TIP3    H143555   0.411   4.584  16.936  0.8783  0.9250 -1.1176
 7380TIP3    H243556   0.392   4.545  16.791  0.0307  1.4090 -1.1426
 7381TIP3   OH243557   1.857   6.629   6.104  0.2469 -0.0375 -0.1165
 7381TIP3    H143558   1.899   6.545   6.120  0.8857  0.7918  2.8958
 7381TIP3    H243559   1.930   6.691   6.096 -0.1985  0.2039 -2.6944
 7382TIP3   OH243560   2.225   0.093   6.234 -0.0631 -0.2984  0.4058
 7382TIP3    H143561   2.204   0.011   6.278 -2.3416  0.2044  0.3186
 7382TIP3    H243562   2.180   0.160   6.285  1.5236  0.8907  0.2984
 7383TIP3   OH243563   5.954   1.448   6.572 -0.0934  0.3661 -0.3502
 7383TIP3    H143564   6.010   1.478   6.501  0.4889  0.8729  0.3181
 7383TIP3    H243565   5.986   1.494   6.650  0.3081 -1.3634  0.5492
 7384TIP3   OH243566   5.520   4.453   5.885  0.1020  0.1306  0.3187
 7384TIP3    H143567   5.594   4.481   5.831 -1.1411  1.4648 -0.7430
 7384TIP3    H243568   5.515   4.519   5.955 -0.4027  0.3426  0.0852
 7385TIP3   OH243569   2.767   4.399   3.827  0.1098  0.0615  0.2530
 7385TIP3    H143570   2.705   4.460   3.787 -2.3038 -1.8596  0.9489
 7385TIP3    H243571   2.803   4.349   3.753 -0.9380 -0.4047  0.0512
 7386TIP3   OH243572   6.144   2.058   5.641 -0.0394 -0.2088  0.0949
 7386TIP3    H143573   6.087   2.131   5.621 -1.9812 -1.6144  0.3925
 7386TIP3    H243574   6.195   2.087   5.717 -0.7169  0.8630  0.1427
 7387TIP3   OH243575   2.639   3.703  15.626  0.3848  0.3267 -0.0204
 7387TIP3    H143576   2.648   3.649  15.704 -1.2079 -1.3069 -0.9324
 7387TIP3    H243577   2.672   3.648  15.555 -1.7663  0.3069 -1.0445
 7388TIP3   OH243578   2.216   1.966  14.365  0.1708 -0.2173 -0.4281
 7388TIP3    H143579   2.190   2.034  14.428 -0.0638 -0.0332 -0.7250
 7388TIP3    H243580   2.216   2.010  14.280  4.1229  0.5631 -0.1445
 7389TIP3   OH243581   5.589   6.554  12.990 -0.5852 -0.0379 -0.1367
 7389TIP3    H143582   5.659   6.580  12.931  0.4886 -0.9456  0.7040
 7389TIP3    H243583   5.509   6.567  12.940 -0.0131  3.4039 -0.2634
 7390TIP3   OH243584   6.393   2.036   4.552  0.1370  0.2921  0.8292
 7390TIP3    H143585   6.428   2.040   4.641 -0.7889  0.7960  1.1744
 7390TIP3    H243586   6.303   2.003   4.564  0.8228 -2.0455 -0.1331
 7391TIP3   OH243587   6.170   0.333  10.562  0.4380  0.5910  0.6460
 7391TIP3    H143588   6.200   0.417  10.596 -0.2246  0.0457  2.6636
 7391TIP3    H243589   6.248   0.294  10.522  1.2052  1.3540  1.3653
 7392TIP3   OH243590   4.815   6.556   5.327  0.6754 -0.0297  0.2922
 7392TIP3    H143591   4.905   6.587   5.331  0.5850  0.0834  2.1481
 7392TIP3    H243592   4.808   6.513   5.242  2.6793 -0.6223  0.3886
 7393TIP3   OH243593   0.645   3.138  16.132 -0.7910 -0.0774 -0.0513
 7393TIP3    H143594   0.596   3.109  16.055  1.5324  0.0532 -1.6330
 7393TIP3    H243595   0.695   3.061  16.159 -0.5785  0.2577  0.5072
 7394TIP3   OH243596   0.072   6.566   4.707 -0.2091 -0.2258  0.5645
 7394TIP3    H143597   0.034   6.480   4.723 -1.1157 -0.0587 -0.6169
 7394TIP3    H243598   0.163   6.548   4.683 -0.1258 -0.7789  1.2828
 7395TIP3   OH243599   4.180   4.118   0.611 -0.4805  0.1784 -0.1399
 7395TIP3    H143600   4.097   4.165   0.615 -1.1855 -0.8944 -1.5094
 7395TIP3    H243601   4.211   4.131   0.521  0.9794  0.7870  0.4298
 7396TIP3   OH243602   5.092   4.644   3.304 -0.0527  0.0773  0.4396
 7396TIP3    H143603   5.057   4.673   3.389  0.7626  0.1538  0.7526
 7396TIP3    H243604   5.024   4.669   3.241 -0.9505 -0.5512  1.1366
 7397TIP3   OH243605   4.467   3.556   4.044  0.0332 -0.2751  0.6196
 7397TIP3    H143606   4.539   3.521   4.095  0.9360 -4.7711 -3.3116
 7397TIP3    H243607   4.505   3.573   3.958 -2.9363 -0.1042 -0.7301
 7398TIP3   OH243608   5.289   3.313  12.151 -0.2242  0.9075 -0.3091
 7398TIP3    H143609   5.225   3.318  12.080 -0.9096 -1.0548  0.1492
 7398TIP3    H243610   5.288   3.222  12.179  2.6303  0.8706 -0.1406
 7399TIP3   OH243611   3.591   5.333  16.371 -0.2565 -0.0119 -0.1879
 7399TIP3    H143612   3.587   5.420  16.410 -0.7841  0.1233 -0.5503
 7399TIP3    H243613   3.574   5.274  16.445  2.6512  0.0528  0.6024
 7400TIP3   OH243614   5.786   5.674  11.988 -0.0397 -0.3291  0.5802
 7400TIP3    H143615   5.811   5.729  11.914 -1.5554  0.2327  0.4736
 7400TIP3    H243616   5.853   5.691  12.054 -1.5749  3.1757  1.2982
 7401TIP3   OH243617   5.868   4.848   1.431 -0.7870 -0.0401 -0.0652
 7401TIP3    H143618   5.784   4.807   1.412 -0.5015 -1.9861  2.4923
 7401TIP3    H243619   5.870   4.855   1.526  1.7263  0.4204 -0.1146
 7402TIP3   OH243620   2.549   4.801   1.112  0.5189  0.3715 -0.4297
 7402TIP3    H143621   2.566   4.872   1.050 -0.2165  1.4920  0.6447
 7402TIP3    H243622   2.601   4.823   1.189 -1.4179  0.9114  0.7553
 7403TIP3   OH243623   3.787   1.964  15.734 -0.0535  0.6199 -0.2096
 7403TIP3    H143624   3.816   2.041  15.686  2.9066 -0.2965 -0.0111
 7403TIP3    H243625   3.837   1.965  15.816 -1.5627 -0.3644  0.7727
 7404TIP3   OH243626   4.701   4.323   3.768 -0.1510 -0.6553 -0.6613
 7404TIP3    H143627   4.691   4.312   3.862 -0.7386  1.1131 -0.4882
 7404TIP3    H243628   4.618   4.291   3.731  0.6414 -2.6893 -0.7099
 7405TIP3   OH243629   2.346   2.847   4.885  0.2038 -0.2512 -0.3562
 7405TIP3    H143630   2.358   2.913   4.953  3.0392 -1.2185  0.1394
 7405TIP3    H243631   2.322   2.897   4.807 -1.1772  1.0305  0.8579
 7406TIP3   OH243632   0.180   4.552  11.442 -0.0627  0.8261  0.8065
 7406TIP3    H143633   0.119   4.598  11.499  1.4007  1.6695  1.7047
 7406TIP3    H243634   0.238   4.620  11.408 -1.1418  0.4159 -2.0429
 7407TIP3   OH243635   1.793   0.420   1.431  0.5543  0.0500 -0.1751
 7407TIP3    H143636   1.828   0.486   1.371  0.8790  1.3823  1.4576
 7407TIP3    H243637   1.713   0.460   1.466 -0.5583 -1.4208 -0.9962
 7408TIP3   OH243638   3.886   3.194  10.364 -0.0687 -0.2747 -0.2761
 7408TIP3    H143639   3.934   3.263  10.409  0.1585  1.1235 -2.5721
 7408TIP3    H243640   3.952   3.127  10.345  0.1093 -0.2523  0.2618
 7409TIP3   OH243641   4.100   2.308   4.462 -0.4343  0.4339 -0.0704
 7409TIP3    H143642   4.133   2.331   4.549  1.2816 -1.4450 -0.2077
 7409TIP3    H243643   4.034   2.241   4.479  2.2563 -2.3899 -0.3918
 7410TIP3   OH243644   0.811   2.491  15.647 -0.0173  0.2108  0.1597
 7410TIP3    H143645   0.797   2.401  15.618  1.3870 -0.4089  1.3231
 7410TIP3    H243646   0.796   2.544  15.569  1.3933 -1.2204 -1.1321
 7411TIP3   OH243647   4.848   3.861  10.705 -0.0782  0.3804 -0.4621
 7411TIP3    H143648   4.873   3.780  10.750 -1.2699  1.6632  2.6639
 7411TIP3    H243649   4.932   3.904  10.685  0.4873  0.3776  1.7497
 7412TIP3   OH243650   2.097   2.680  13.982  0.4781  0.2944  0.7117
 7412TIP3    H143651   2.179   2.730  13.988  0.1521  0.7361  1.5370
 7412TIP3    H243652   2.084   2.666  13.888  1.0775  0.9231  0.5330
 7413TIP3   OH243653   2.859   4.556  11.778  0.8568  0.2432 -0.5021
 7413TIP3    H143654   2.887   4.567  11.869 -0.7546  1.5708 -0.1386
 7413TIP3    H243655   2.814   4.471  11.776 -0.8050  1.0851  0.3992
 7414TIP3   OH243656   3.846   1.472  13.761 -0.1680  0.3097 -0.2655
 7414TIP3    H143657   3.837   1.423  13.843  0.4905  0.3172 -0.1877
 7414TIP3    H243658   3.881   1.409  13.698  2.4036  1.1040  0.2987
 7415TIP3   OH243659   2.870   5.945  12.336 -0.4325  0.0768 -0.0610
 7415TIP3    H143660   2.805   6.014  12.327 -0.4109 -0.0126 -0.9602
 7415TIP3    H243661   2.900   5.929  12.247  0.2868 -0.3953  0.2636
 7416TIP3   OH243662   4.942   5.812  14.115 -0.1566 -0.2037  0.0416
 7416TIP3    H143663   4.895   5.730  14.098  1.5091 -1.1078 -0.3752
 7416TIP3    H243664   4.999   5.823  14.039  0.3189  0.8493  0.5424
 7417TIP3   OH243665   4.236   5.072   5.426  0.1380  0.1018  0.2222
 7417TIP3    H143666   4.206   4.981   5.417  0.4771 -0.0496  0.6176
 7417TIP3    H243667   4.285   5.073   5.508 -0.8735  0.9300  0.8103
 7418TIP3   OH243668   2.045   3.738   1.911 -0.0258 -0.4117 -0.6035
 7418TIP3    H143669   1.986   3.806   1.944  0.7358 -0.4751  0.9272
 7418TIP3    H243670   1.989   3.682   1.858 -1.5762 -0.9820  1.5451
 7419TIP3   OH243671   0.095   1.085  10.767  0.5007 -0.0211 -0.3880
 7419TIP3    H143672   0.181   1.126  10.778  0.5111 -0.6668  2.3908
 7419TIP3    H243673   0.037   1.158  10.744  1.4624  0.7064 -0.5779
 7420TIP3   OH243674   0.122   5.461  12.413 -0.0531  0.2346 -0.2805
 7420TIP3    H143675   0.074   5.426  12.337 -1.3468  1.0012  0.1639
 7420TIP3    H243676   0.184   5.392  12.436 -0.6913 -0.6340 -1.1020
 7421TIP3   OH243677   6.692   1.169   0.266  0.4146  0.6035 -0.1783
 7421TIP3    H143678   6.634   1.135   0.334  1.4359  1.8054  1.3452
 7421TIP3    H243679   6.764   1.106   0.260 -1.3003 -1.1980 -2.4912
 7422TIP3   OH243680   3.245   5.820   5.941 -0.5535 -0.4924 -0.1305
 7422TIP3    H143681   3.208   5.829   5.853  0.1311  0.0889 -0.3654
 7422TIP3    H243682   3.338   5.802   5.926 -0.9102 -3.0549  0.4223
 7423TIP3   OH243683   1.717   0.588  16.410 -0.3552 -0.1529  0.0115
 7423TIP3    H143684   1.694   0.507  16.364  0.6332 -0.4141 -0.0480
 7423TIP3    H243685   1.799   0.567  16.455  1.5022  1.6669 -2.3959
 7424TIP3   OH243686   2.984   1.530   1.585 -0.3853  0.4762 -0.1599
 7424TIP3    H143687   2.941   1.615   1.593 -2.0675 -0.2856 -0.8789
 7424TIP3    H243688   3.050   1.530   1.655 -0.4477  2.3044 -0.0739
 7425TIP3   OH243689   6.778   1.611   1.169  0.3146 -0.6571 -0.1816
 7425TIP3    H143690   6.812   1.654   1.091 -0.4486 -1.2046 -0.8189
 7425TIP3    H243691   6.705   1.666   1.197  0.1048 -0.8756 -0.2973
 7426TIP3   OH243692   3.324   1.076   4.523  0.1587 -0.8488  0.4064
 7426TIP3    H143693   3.381   1.041   4.454  0.0983 -2.0794  0.9726
 7426TIP3    H243694   3.303   1.001   4.578 -0.8459 -0.1260  1.0392
 7427TIP3   OH243695   4.786   5.731   3.633  0.9297  0.4060  0.1890
 7427TIP3    H143696   4.777   5.642   3.598  0.3082 -0.0921  1.6025
 7427TIP3    H243697   4.876   5.735   3.665 -0.1669 -1.0533  3.7018
 7428TIP3   OH243698   1.985   6.389  16.347 -0.3102 -0.4220  0.8421
 7428TIP3    H143699   1.932   6.462  16.379 -0.7759 -0.5547  0.3682
 7428TIP3    H243700   1.964   6.316  16.406  1.7773  0.3891  2.6929
 7429TIP3   OH243701   6.625   0.103  12.292  0.5504 -0.0645 -0.3554
 7429TIP3    H143702   6.645   0.196  12.299  0.6434 -0.0938 -0.2232
 7429TIP3    H243703   6.562   0.086  12.362  0.3505 -0.0510 -0.5329
 7430TIP3   OH243704   2.313   6.660   3.576 -0.2295 -0.0509 -0.2716
 7430TIP3    H143705   2.263   6.714   3.638 -0.0089  0.8670 -0.8891
 7430TIP3    H243706   2.248   6.628   3.514 -0.2329  0.1532 -0.3718
 7431TIP3   OH243707   4.491   5.720   6.569  0.5290  0.7532  0.1585
 7431TIP3    H143708   4.579   5.749   6.594  2.4849 -4.0427 -0.4482
 7431TIP3    H243709   4.456   5.680   6.648  0.4954 -0.7089 -0.5685
 7432TIP3   OH243710   6.108   0.654  13.622  0.2331  0.1175 -0.2242
 7432TIP3    H143711   6.033   0.672  13.678  0.5248  1.9660 -0.3688
 7432TIP3    H243712   6.173   0.615  13.681 -0.1859  0.1968  0.2955
 7433TIP3   OH243713   3.710   1.225  12.520  1.0583  0.0747 -0.1474
 7433TIP3    H143714   3.618   1.225  12.547  1.4020 -0.4290  1.0581
 7433TIP3    H243715   3.717   1.300  12.460 -0.2756 -0.2701 -0.7616
 7434TIP3   OH243716   4.921   6.011  12.413  0.3883  0.2474 -0.8271
 7434TIP3    H143717   4.949   6.102  12.413  1.7539 -0.1373  0.7426
 7434TIP3    H243718   4.908   5.989  12.321  0.3685  1.9235 -1.2289
 7435TIP3   OH243719   1.854   4.874   0.161 -0.4903  0.3546  0.0965
 7435TIP3    H143720   1.852   4.876   0.257  0.2639 -0.6763  0.1395
 7435TIP3    H243721   1.932   4.925   0.138  0.2972 -0.8541  0.0901
 7436TIP3   OH243722   3.828   3.746  15.453  0.5614  0.2700  0.0855
 7436TIP3    H143723   3.907   3.797  15.468  1.0747  0.2650 -2.4056
 7436TIP3    H243724   3.847   3.695  15.374 -1.3014 -0.9977  0.4318
 7437TIP3   OH243725   2.843   0.034  13.346  0.5412 -0.5860  0.2191
 7437TIP3    H143726   2.817   0.118  13.309 -0.3065 -1.3191 -0.8430
 7437TIP3    H243727   2.793   0.027  13.427  0.2911 -0.2672  0.0925
 7438TIP3   OH243728   6.378   4.765  15.987  0.4288 -0.3771  0.5524
 7438TIP3    H143729   6.459   4.717  15.971  1.3908  1.8537 -1.4833
 7438TIP3    H243730   6.395   4.814  16.068  0.1848 -1.8030  1.4901
 7439TIP3   OH243731   0.900   2.422  13.244  0.1990  0.1260 -0.2709
 7439TIP3    H143732   0.903   2.492  13.179  0.0380  0.6110  0.2475
 7439TIP3    H243733   0.966   2.359  13.214  0.4133  0.5438 -0.6806
 7440TIP3   OH243734   2.486   5.910   0.441 -0.5695 -0.0913 -0.0523
 7440TIP3    H143735   2.564   5.902   0.496  0.6320 -1.0843 -1.8389
 7440TIP3    H243736   2.517   5.888   0.353 -1.8943  3.7006 -1.5805
 7441TIP3   OH243737   4.927   6.245  14.073  0.1881  0.3345 -0.0370
 7441TIP3    H143738   4.881   6.325  14.049 -0.8421 -0.1928  0.1760
 7441TIP3    H243739   4.900   6.180  14.008  0.9198  0.1142 -0.1342
 7442TIP3   OH243740   0.032   1.352  15.264  0.1096  0.1051 -0.4600
 7442TIP3    H143741   0.037   1.373  15.358 -1.4714  0.5858 -0.4777
 7442TIP3    H243742   0.085   1.420  15.222  0.4396  0.1623  0.0407
 7443TIP3   OH243743   5.950   5.459   5.017  0.1041  0.3495 -0.1830
 7443TIP3    H143744   5.946   5.364   5.029 -1.9104  0.4913  0.4998
 7443TIP3    H243745   5.983   5.471   4.928  2.3537 -0.9333  0.4268
 7444TIP3   OH243746   1.141   2.265  12.181  0.5405  0.0992 -0.3325
 7444TIP3    H143747   1.167   2.347  12.139  0.2872 -0.1732 -1.0347
 7444TIP3    H243748   1.220   2.234  12.223  0.8589  0.2711 -0.7947
 7445TIP3   OH243749   6.084   4.713  15.531 -0.0543 -0.2291 -0.4034
 7445TIP3    H143750   6.134   4.792  15.510 -0.0739  0.4889  2.0848
 7445TIP3    H243751   6.093   4.703  15.626 -0.4976 -2.9326 -0.5823
 7446TIP3   OH243752   5.266   5.611   6.314 -0.8733  0.2650  0.0665
 7446TIP3    H143753   5.322   5.668   6.263 -0.4246 -0.6986 -0.5341
 7446TIP3    H243754   5.319   5.532   6.329 -1.1354  0.3856  1.6941
 7447TIP3   OH243755   5.301   2.708   6.187 -0.2406 -0.2353 -0.1170
 7447TIP3    H143756   5.364   2.663   6.130  1.3457 -2.5135  3.2463
 7447TIP3    H243757   5.219   2.662   6.173  0.1748 -0.8698 -0.4851
 7448TIP3   OH243758   6.567   0.986   2.841 -0.6255  0.0956 -0.2504
 7448TIP3    H143759   6.475   1.009   2.849 -0.3117  1.8116 -1.2704
 7448TIP3    H243760   6.614   1.054   2.889  0.0408 -1.8440  1.9492
 7449TIP3   OH243761   3.578   0.611   4.962 -0.4235 -0.0204  0.6761
 7449TIP3    H143762   3.498   0.585   5.008 -0.5519  0.4523  0.7270
 7449TIP3    H243763   3.628   0.530   4.952 -0.3523 -0.1058  1.7203
 7450TIP3   OH243764   3.741   3.239   3.946  0.5048  0.6648  0.7080
 7450TIP3    H143765   3.647   3.234   3.959  0.0854  2.9015 -1.0594
 7450TIP3    H243766   3.779   3.204   4.027 -1.8335  0.3861  1.7148
 7451TIP3   OH243767   4.275   0.168  14.688  0.2845  0.2036  0.6974
 7451TIP3    H143768   4.207   0.112  14.726  3.2368 -2.3034  2.4921
 7451TIP3    H243769   4.319   0.112  14.624 -0.9175  2.6221 -2.3574
 7452TIP3   OH243770   4.930   4.593   2.872  0.0219  0.6021  0.5299
 7452TIP3    H143771   4.973   4.524   2.820  0.9619  1.2783  0.3975
 7452TIP3    H243772   4.860   4.625   2.816 -0.7655 -0.6188  0.8057
 7453TIP3   OH243773   1.599   6.185  12.885  0.3322 -0.0529 -0.1539
 7453TIP3    H143774   1.679   6.186  12.832  0.0875  1.1796 -0.5266
 7453TIP3    H243775   1.543   6.250  12.844  0.6239  1.8397  2.3386
 7454TIP3   OH243776   4.158   3.767  13.049  1.1382  0.0065  0.1479
 7454TIP3    H143777   4.111   3.844  13.082 -1.0120 -0.3102 -1.9953
 7454TIP3    H243778   4.238   3.802  13.010  0.9945  0.9736  0.7179
 7455TIP3   OH243779   0.281   1.706   2.699 -0.5098 -0.3493  0.1969
 7455TIP3    H143780   0.274   1.748   2.613 -2.7411 -0.9754  0.0558
 7455TIP3    H243781   0.371   1.671   2.701 -0.8616 -1.5449 -2.4606
 7456TIP3   OH243782   2.624   0.254  13.794  0.3405  0.6795  0.1556
 7456TIP3    H143783   2.576   0.175  13.771  1.7145 -0.1112 -0.0555
 7456TIP3    H243784   2.568   0.299  13.857 -0.6077 -0.2808  0.0071
 7457TIP3   OH243785   5.660   4.168  14.072 -0.3782  0.1926  0.1350
 7457TIP3    H143786   5.598   4.170  14.145  1.4022  0.4480  1.6931
 7457TIP3    H243787   5.702   4.082  14.080 -1.0867 -0.3011 -1.3892
 7458TIP3   OH243788   3.380   4.278  17.114 -0.2114  0.2550  0.2277
 7458TIP3    H143789   3.448   4.223  17.074  1.5114  1.8342  0.9538
 7458TIP3    H243790   3.399   4.366  17.083 -3.9475  0.3170 -2.2728
 7459TIP3   OH243791   2.236   1.199   0.568 -0.0839 -0.7034  0.0258
 7459TIP3    H143792   2.204   1.240   0.649  0.8065  0.3518 -0.1455
 7459TIP3    H243793   2.170   1.132   0.548 -0.8671 -0.2606  1.0453
 7460TIP3   OH243794   3.084   1.471   3.365  0.6052  0.1852  0.8809
 7460TIP3    H143795   3.138   1.499   3.439  0.3383  0.0812  1.1188
 7460TIP3    H243796   3.001   1.445   3.405  0.0106  1.3227  0.4123
 7461TIP3   OH243797   1.231   0.185  13.416 -0.9431 -0.0800 -0.0582
 7461TIP3    H143798   1.246   0.188  13.510  3.4847  1.3201 -0.6914
 7461TIP3    H243799   1.198   0.273  13.394 -1.1535 -0.1299  0.0556
 7462TIP3   OH243800   4.197   3.380  13.599  0.2797  0.2548  0.0969
 7462TIP3    H143801   4.266   3.327  13.558 -0.8384 -1.0438 -0.1877
 7462TIP3    H243802   4.120   3.364  13.543 -0.4913  0.8719  0.9788
 7463TIP3   OH243803   5.164   1.535  16.050  0.0863 -0.3178  0.0350
 7463TIP3    H143804   5.078   1.548  16.009 -0.4571 -1.4019  0.7973
 7463TIP3    H243805   5.225   1.526  15.977 -0.6603 -0.8741 -0.5189
 7464TIP3   OH243806   0.585   3.274   0.758 -0.1720  0.3247  0.5078
 7464TIP3    H143807   0.519   3.251   0.823 -0.4282 -0.7820 -0.1391
 7464TIP3    H243808   0.535   3.302   0.681  0.0597 -2.0350 -0.5380
 7465TIP3   OH243809   4.994   2.096  16.592 -0.4072 -0.0875  0.3060
 7465TIP3    H143810   5.021   2.156  16.662 -1.7990  1.1239 -0.1719
 7465TIP3    H243811   5.051   2.117  16.518  1.1656 -1.4689  1.0990
 7466TIP3   OH243812   0.837   2.114  11.894 -0.4594 -0.2066 -0.1171
 7466TIP3    H143813   0.906   2.098  11.959 -0.5368 -1.3725 -0.3147
 7466TIP3    H243814   0.769   2.049  11.915 -0.0702 -1.2280 -1.9547
 7467TIP3   OH243815   4.602   1.435  11.640 -0.5131  0.5644  1.3408
 7467TIP3    H143816   4.523   1.463  11.595 -0.0620 -0.2854  0.0066
 7467TIP3    H243817   4.656   1.395  11.572  1.0957  1.1882  2.2177
 7468TIP3   OH243818   2.273   3.284  16.113  0.1888 -0.2869 -0.1854
 7468TIP3    H143819   2.233   3.342  16.049  0.0649 -0.7972 -0.5756
 7468TIP3    H243820   2.255   3.196  16.080  1.9033 -0.5271 -0.5494
 7469TIP3   OH243821   5.045   5.913   3.290 -0.1597  0.2661 -0.0158
 7469TIP3    H143822   4.966   5.939   3.338  0.7507 -0.2853  1.8197
 7469TIP3    H243823   5.094   5.995   3.278  0.8123  0.0502  2.2590
 7470TIP3   OH243824   1.676   2.175   0.571  0.0470  0.3768  0.1410
 7470TIP3    H143825   1.770   2.184   0.557  0.2476 -0.2672  1.0148
 7470TIP3    H243826   1.637   2.250   0.526  0.9095  0.1670 -0.9821
 7471TIP3   OH243827   6.303   0.168  12.323  0.1461 -0.2823  0.6127
 7471TIP3    H143828   6.251   0.127  12.254 -0.5046  1.5483 -0.0217
 7471TIP3    H243829   6.368   0.220  12.276  2.2936 -2.1433  1.3946
 7472TIP3   OH243830   5.636   6.150  13.930  0.0912  0.3761  0.0323
 7472TIP3    H143831   5.616   6.057  13.938  1.1389  0.0747 -0.7481
 7472TIP3    H243832   5.611   6.187  14.015  0.7119 -0.8172  0.7610
 7473TIP3   OH243833   5.699   1.120  15.611  0.1154 -0.0262  0.2278
 7473TIP3    H143834   5.792   1.134  15.591 -0.4217 -0.2964 -2.8421
 7473TIP3    H243835   5.662   1.208  15.618  0.3634  0.0949  0.0433
 7474TIP3   OH243836   4.278   1.328  15.550  0.4815  0.2748  0.6156
 7474TIP3    H143837   4.346   1.376  15.598  0.2311 -2.0356  3.4176
 7474TIP3    H243838   4.325   1.256  15.508  0.2512  0.6266 -0.2496
 7475TIP3   OH243839   0.780   2.938  14.880  0.6922  0.9821 -0.9538
 7475TIP3    H143840   0.740   2.857  14.848 -0.6468  1.5661 -0.8052
 7475TIP3    H243841   0.706   2.993  14.904  1.6079  1.9826 -0.3753
 7476TIP3   OH243842   4.213   3.528  12.214 -0.4294  0.3809  0.3252
 7476TIP3    H143843   4.307   3.511  12.207 -0.5482 -0.4800  0.8322
 7476TIP3    H243844   4.184   3.543  12.124  0.0699  0.0206  0.1064
 7477TIP3   OH243845   3.329   6.086   2.672 -0.1338  0.2130 -0.5807
 7477TIP3    H143846   3.234   6.085   2.682 -0.0097  1.1928  0.8918
 7477TIP3    H243847   3.354   5.995   2.660 -1.3352  0.0340 -1.8158
 7478TIP3   OH243848   0.835   0.129   3.203 -0.0299 -0.4418  0.9701
 7478TIP3    H143849   0.749   0.164   3.175  1.9609  4.5643  0.4811
 7478TIP3    H243850   0.874   0.096   3.122  0.1415  1.2570  0.3190
 7479TIP3   OH243851   3.825   3.038  15.040  0.3568  0.0786  0.1501
 7479TIP3    H143852   3.795   2.947  15.037  0.1532  0.1719 -0.7845
 7479TIP3    H243853   3.774   3.078  15.111  1.0336 -0.7390  1.0937
 7480TIP3   OH243854   5.309   3.545  12.874 -0.0697 -0.4678 -0.0585
 7480TIP3    H143855   5.351   3.462  12.893 -1.0092 -0.4596  2.1738
 7480TIP3    H243856   5.313   3.553  12.778  3.7790 -1.0469 -0.0039
 7481TIP3   OH243857   5.755   0.741  15.346 -0.4267  0.2630 -0.2063
 7481TIP3    H143858   5.807   0.779  15.417 -2.1900 -1.5077  2.0593
 7481TIP3    H243859   5.820   0.699  15.289  0.8493  0.1771  1.2764
 7482TIP3   OH243860   2.442   5.272  10.799  0.6920  0.4559 -0.2990
 7482TIP3    H143861   2.468   5.304  10.712  0.3592  1.2846 -0.1032
 7482TIP3    H243862   2.407   5.185  10.783  0.0366  0.8589 -1.0874
 7483TIP3   OH243863   6.516   2.181   0.794 -0.6124  0.1517  0.2010
 7483TIP3    H143864   6.448   2.221   0.847 -0.6540  0.2447  0.0786
 7483TIP3    H243865   6.558   2.255   0.750 -1.6538 -0.0670 -1.1769
 7484TIP3   OH243866   5.071   4.235  13.284  0.2476  0.5152 -0.3702
 7484TIP3    H143867   5.055   4.141  13.292  1.9077  0.2930  0.7228
 7484TIP3    H243868   5.120   4.244  13.202 -1.4201  0.6439 -1.3603
 7485TIP3   OH243869   1.245   3.834   3.091 -0.0712  0.0179 -0.2859
 7485TIP3    H143870   1.224   3.760   3.034  3.0499 -2.2274  1.3637
 7485TIP3    H243871   1.210   3.809   3.176 -0.3118  1.1047 -0.0656
 7486TIP3   OH243872   1.599   6.522   3.009  0.2500 -0.4955  0.1418
 7486TIP3    H143873   1.601   6.569   2.926 -1.5245  0.2918  0.5240
 7486TIP3    H243874   1.653   6.444   2.994  0.4887 -0.0242 -1.5217
 7487TIP3   OH243875   0.649   1.073  16.006  0.1188 -0.2079 -0.7253
 7487TIP3    H143876   0.666   0.980  15.990 -1.6710 -0.5420 -0.7362
 7487TIP3    H243877   0.718   1.118  15.956  1.2502 -1.5205 -0.3825
 7488TIP3   OH243878   2.351   1.421   4.576  0.1424 -0.6800  0.1726
 7488TIP3    H143879   2.421   1.442   4.637  0.6755 -3.1631  0.4403
 7488TIP3    H243880   2.271   1.424   4.629 -0.0439  2.2495 -0.1577
 7489TIP3   OH243881   0.255   6.088   0.289 -0.6926  0.5629  0.0231
 7489TIP3    H143882   0.240   6.025   0.217 -0.7370  1.0109 -0.3619
 7489TIP3    H243883   0.284   6.034   0.362 -0.6205  0.1017 -0.3415
 7490TIP3   OH243884   1.239   5.118  15.371 -0.5246  0.1609 -0.5114
 7490TIP3    H143885   1.231   5.085  15.461 -0.8910  0.4556 -0.4376
 7490TIP3    H243886   1.328   5.155  15.368 -1.0579  1.5176  0.1818
 7491TIP3   OH243887   3.222   3.540  14.713 -0.3720 -0.4012  0.1397
 7491TIP3    H143888   3.265   3.543  14.799 -1.1560 -2.7323  0.6519
 7491TIP3    H243889   3.155   3.609  14.717 -2.8129 -2.8155  2.7761
 7492TIP3   OH243890   0.323   3.781   3.122 -0.1592 -0.4723 -0.1663
 7492TIP3    H143891   0.401   3.749   3.169 -0.4202 -0.1225  0.5097
 7492TIP3    H243892   0.337   3.753   3.032  0.5771 -0.7407  0.0234
 7493TIP3   OH243893   5.511   3.873  16.545  0.0590 -0.6373 -0.2099
 7493TIP3    H143894   5.604   3.854  16.556  0.2004 -0.4549 -1.0314
 7493TIP3    H243895   5.497   3.869  16.450 -0.7216 -0.4411 -0.1042
 7494TIP3   OH243896   0.513   0.795  16.264  0.3578  0.3501 -0.1359
 7494TIP3    H143897   0.567   0.817  16.341 -0.3374 -1.1644  0.8072
 7494TIP3    H243898   0.433   0.758  16.301 -1.0181  1.8115 -1.5520
 7495TIP3   OH243899   1.106   4.010  15.452  0.3915 -0.3618 -0.2248
 7495TIP3    H143900   1.130   4.004  15.360 -0.6210 -0.1197 -0.5166
 7495TIP3    H243901   1.173   4.067  15.491  0.5518 -0.0790 -0.9113
 7496TIP3   OH243902   4.274   6.775  14.107  0.2064  0.2128  0.5866
 7496TIP3    H143903   4.309   6.687  14.092  0.2652  0.4437 -0.7497
 7496TIP3    H243904   4.187   6.761  14.145 -1.3305 -0.5468 -2.9669
 7497TIP3   OH243905   6.134   4.240  15.543 -0.6673 -0.3074  0.0733
 7497TIP3    H143906   6.117   4.213  15.633  0.2964 -2.7296 -0.4310
 7497TIP3    H243907   6.221   4.280  15.547 -0.7845 -0.0742  0.2880
 7498TIP3   OH243908   0.592   5.959   4.126  0.1154 -0.1910 -0.1897
 7498TIP3    H143909   0.591   6.049   4.093 -3.5185  0.0719  0.3725
 7498TIP3    H243910   0.603   5.969   4.221  1.1509 -0.4200 -0.2850
 7499TIP3   OH243911   5.616   4.638  14.339  0.2965  0.3291 -0.5728
 7499TIP3    H143912   5.590   4.601  14.424  0.3745 -1.0161 -1.1346
 7499TIP3    H243913   5.700   4.597  14.319 -0.0988  0.0487 -1.6749
 7500TIP3   OH243914   5.594   1.841  11.765  0.0739 -0.1740  0.1772
 7500TIP3    H143915   5.527   1.865  11.701  0.6198 -0.1069 -0.3730
 7500TIP3    H243916   5.612   1.922  11.812 -1.2135 -0.5072  1.2464
 7501TIP3   OH243917   3.160   0.036   4.690  0.2659  0.2752 -0.3904
 7501TIP3    H143918   3.081  -0.015   4.674  0.3802  0.1760 -0.6408
 7501TIP3    H243919   3.164   0.099   4.618 -0.3954  1.2951  0.4445
 7502TIP3   OH243920   2.683   3.971  12.398  0.2137  0.5105 -0.0408
 7502TIP3    H143921   2.715   3.951  12.310 -0.5634  0.5563 -0.3440
 7502TIP3    H243922   2.588   3.961  12.391  0.1129  0.9234  0.6869
 7503TIP3   OH243923   6.384   3.339   5.895  0.5398  0.0150  0.1764
 7503TIP3    H143924   6.400   3.305   5.983  0.4006  0.8611  0.5291
 7503TIP3    H243925   6.471   3.357   5.860  0.6115 -0.5919  0.0215
 7504TIP3   OH243926   1.890   0.221   3.776  0.2267 -0.2460  0.0277
 7504TIP3    H143927   1.953   0.279   3.818 -0.4145  0.9704 -0.6500
 7504TIP3    H243928   1.904   0.136   3.817  1.3293  0.3369  0.8845
 7505TIP3   OH243929   6.510   0.413  15.566  0.2110 -0.2413 -0.1234
 7505TIP3    H143930   6.426   0.374  15.591 -0.2774  0.6180 -0.4006
 7505TIP3    H243931   6.534   0.465  15.643  0.5019 -0.5038 -0.0373
 7506TIP3   OH243932   0.438   5.223  16.602  0.1428 -0.2453  0.6849
 7506TIP3    H143933   0.502   5.154  16.620  0.9155  0.2543 -0.1170
 7506TIP3    H243934   0.465   5.260  16.518  0.0415  1.3803  1.3456
 7507TIP3   OH243935   3.057   6.189  10.875 -0.1552 -0.5311  0.2477
 7507TIP3    H143936   3.009   6.155  10.799  0.6758  1.4989 -1.2480
 7507TIP3    H243937   3.103   6.113  10.910 -0.6719 -1.5417 -1.2044
 7508TIP3   OH243938   4.591   5.224  10.590  0.0916 -0.4413 -0.3295
 7508TIP3    H143939   4.645   5.176  10.527 -0.4107 -0.4723 -0.7389
 7508TIP3    H243940   4.647   5.235  10.666  0.5137 -0.9007 -0.5716
 7509TIP3   OH243941   2.827   3.368   5.728  0.4449  0.4296  0.2577
 7509TIP3    H143942   2.815   3.277   5.756  1.2336  0.3300  0.2856
 7509TIP3    H243943   2.796   3.369   5.637  0.1001  0.2149  0.3713
 7510TIP3   OH243944   3.585   6.737  13.928  0.0958 -0.7344 -0.2348
 7510TIP3    H143945   3.667   6.687  13.934 -0.8081 -2.1049  0.9574
 7510TIP3    H243946   3.550   6.714  13.842  1.0668  0.0425 -0.8510
 7511TIP3   OH243947   1.237   4.683  13.140 -0.2648 -0.3660  0.1931
 7511TIP3    H143948   1.187   4.763  13.127  0.1854  0.0177  0.8487
 7511TIP3    H243949   1.247   4.675  13.235  3.0207  0.8618  0.0247
 7512TIP3   OH243950   1.027   1.505  16.138 -0.1166  0.6475  0.1042
 7512TIP3    H143951   1.034   1.594  16.171 -0.3528  0.4497  0.6815
 7512TIP3    H243952   1.117   1.481  16.114  0.2303  0.3811  1.6639
 7513TIP3   OH243953   4.962   0.088   5.182  0.3607  0.0380 -0.1464
 7513TIP3    H143954   5.015   0.152   5.230 -0.6351 -0.0415  1.0914
 7513TIP3    H243955   4.872   0.118   5.193  0.2035  0.9278 -3.3796
 7514TIP3   OH243956   1.340   5.264  11.843 -0.6164 -0.0445  0.2843
 7514TIP3    H143957   1.399   5.315  11.788 -0.2709 -0.8066 -0.0717
 7514TIP3    H243958   1.273   5.231  11.783  0.5312 -2.0200  0.0350
 7515TIP3   OH243959   4.706   2.867  15.291 -0.4265  0.1697  0.7572
 7515TIP3    H143960   4.757   2.943  15.261  0.2119 -0.4144  0.3544
 7515TIP3    H243961   4.756   2.833  15.365 -0.8805  0.3263  1.1354
 7516TIP3   OH243962   4.807   4.947   0.409 -0.5434  0.3299 -0.2650
 7516TIP3    H143963   4.711   4.950   0.420 -0.3793  1.8380  0.9108
 7516TIP3    H243964   4.823   4.865   0.363 -2.2786 -0.7146  0.9463
 7517TIP3   OH243965   0.350   5.879  10.646 -0.5315 -0.1337  0.0370
 7517TIP3    H143966   0.314   5.790  10.643 -0.5296 -0.1306 -0.0825
 7517TIP3    H243967   0.279   5.932  10.681 -1.3324  0.2089 -2.0319
 7518TIP3   OH243968   0.408   6.136   5.240  0.2240 -0.2792  0.0114
 7518TIP3    H143969   0.482   6.192   5.264  0.4130 -0.6074  0.1833
 7518TIP3    H243970   0.331   6.189   5.260  0.4305  0.7717 -1.8405
 7519TIP3   OH243971   3.018   0.552  11.571 -0.0748  0.2389  0.2688
 7519TIP3    H143972   2.992   0.587  11.486 -1.6126  0.5597  0.8560
 7519TIP3    H243973   3.045   0.629  11.622 -1.5099  0.3631  0.8766
 7520TIP3   OH243974   0.002   6.300   0.659 -0.1309  0.3904  0.1811
 7520TIP3    H143975  -0.066   6.340   0.714  0.6090 -0.1848  1.5428
 7520TIP3    H243976   0.071   6.367   0.654  1.1009 -0.6603  2.4476
 7521TIP3   OH243977   4.088   6.773   1.780 -0.2114  0.0314  0.5989
 7521TIP3    H143978   4.065   6.688   1.743 -0.7209  1.0130 -1.3592
 7521TIP3    H243979   4.151   6.810   1.719 -0.4006  1.3138  1.1584
 7522TIP3   OH243980   3.222   4.560  13.815 -0.2067  0.0573  0.2283
 7522TIP3    H143981   3.139   4.551  13.769 -1.1824 -0.2912  1.9930
 7522TIP3    H243982   3.245   4.652  13.806 -0.5566  0.0638 -0.6424
 7523TIP3   OH243983   0.324   0.959   3.583 -0.2246 -0.2786  0.3859
 7523TIP3    H143984   0.341   1.045   3.620 -0.6696  0.4178 -0.9866
 7523TIP3    H243985   0.387   0.951   3.511 -1.2527 -0.4186 -0.5162
 7524TIP3   OH243986   1.784   0.754  16.017  0.1166  0.4373  0.0621
 7524TIP3    H143987   1.710   0.695  16.033  1.0380 -0.2561  1.9889
 7524TIP3    H243988   1.751   0.841  16.042 -0.2958  0.2664  0.1165
 7525TIP3   OH243989   1.984   2.818   2.785 -0.0504  0.2263 -0.5645
 7525TIP3    H143990   1.961   2.739   2.834  2.0682  0.0568  0.2240
 7525TIP3    H243991   1.971   2.793   2.693  0.2688 -0.9552 -0.3033
 7526TIP3   OH243992   3.964   6.153   3.626  0.0786  0.5106  1.5851
 7526TIP3    H143993   3.952   6.063   3.657  2.2651 -0.3103  0.1617
 7526TIP3    H243994   3.911   6.158   3.546  0.9275  0.0742  0.9812
 7527TIP3   OH243995   5.005   3.542  13.806  0.2893 -0.2936  0.0909
 7527TIP3    H143996   5.063   3.617  13.818 -2.0226  1.6238 -0.3929
 7527TIP3    H243997   4.965   3.527  13.892  0.3112 -0.6240  0.0469
 7528TIP3   OH243998   0.465   3.149   0.981  0.0252  0.4778 -0.3383
 7528TIP3    H143999   0.441   3.058   1.000  3.1478 -1.2050 -3.6249
 7528TIP3    H244000   0.518   3.176   1.055 -1.7042 -0.0170  1.1176
 7529TIP3   OH244001   3.675   5.126  13.003 -0.1226 -0.4714 -0.1191
 7529TIP3    H144002   3.711   5.048  13.045  0.9113 -0.9643 -1.8780
 7529TIP3    H244003   3.636   5.094  12.922  0.6396  0.8872 -1.0415
 7530TIP3   OH244004   2.546   1.009   3.620  0.5192  0.2169 -0.1965
 7530TIP3    H144005   2.627   0.964   3.594  1.4441  1.3790  0.5958
 7530TIP3    H244006   2.538   0.992   3.714 -0.1314  0.1364 -0.2683
 7531TIP3   OH244007   0.655   1.692   0.880 -0.1132  0.1910 -0.2035
 7531TIP3    H144008   0.631   1.601   0.865 -1.0483  0.4770 -0.5025
 7531TIP3    H244009   0.577   1.742   0.856  0.3603  1.0669  0.0295
 7532TIP3   OH244010   0.191   1.108  16.311  0.5625  0.2215  0.1405
 7532TIP3    H144011   0.111   1.133  16.356 -0.4204  0.7893 -1.8606
 7532TIP3    H244012   0.249   1.076  16.380 -1.8404 -1.4031  1.4825
 7533TIP3   OH244013   5.245   3.255   4.343 -0.0104 -0.0427 -0.8251
 7533TIP3    H144014   5.154   3.227   4.352 -0.1593  0.8454  0.6026
 7533TIP3    H244015   5.283   3.242   4.430  0.2476  2.9470 -0.4481
 7534TIP3   OH244016   4.836   4.548  12.125  0.4178  0.7171  0.2621
 7534TIP3    H144017   4.835   4.504  12.040 -0.6332  1.3611 -0.0731
 7534TIP3    H244018   4.760   4.606  12.122  0.7774  1.2490  1.3781
 7535TIP3   OH244019   6.231   6.432  11.165 -0.1411  0.0904  0.7083
 7535TIP3    H144020   6.229   6.494  11.092 -0.3420  1.8963  2.1880
 7535TIP3    H244021   6.156   6.375  11.151  0.2628 -0.0651 -0.8873
 7536TIP3   OH244022   5.603   6.560  11.552 -0.0267  0.3164  0.2925
 7536TIP3    H144023   5.618   6.465  11.549 -2.1022 -0.1189  2.1501
 7536TIP3    H244024   5.616   6.583  11.644 -1.2788  1.5093  0.1821
 7537TIP3   OH244025   3.370   4.376   0.627  0.2561  0.4570  0.2866
 7537TIP3    H144026   3.317   4.338   0.698  1.7373 -0.7737  0.7824
 7537TIP3    H244027   3.333   4.339   0.547  0.7887 -0.9589  0.6785
 7538TIP3   OH244028   3.683   0.762   5.348 -0.1675 -0.1356 -0.3082
 7538TIP3    H144029   3.735   0.690   5.383 -0.5509 -0.5480 -0.5900
 7538TIP3    H244030   3.722   0.780   5.262  0.3422  0.4277  0.0356
 7539TIP3   OH244031   1.564   0.746   2.318  0.1082 -0.1454 -0.4921
 7539TIP3    H144032   1.635   0.762   2.255  0.6919  0.7532  0.3816
 7539TIP3    H244033   1.499   0.695   2.269  1.0631 -0.4160 -1.4916
 7540TIP3   OH244034   4.162   1.959  16.876  0.2082  0.1011 -0.4268
 7540TIP3    H144035   4.102   1.885  16.864  0.3731 -0.2070  0.6239
 7540TIP3    H244036   4.172   1.996  16.788  0.2280 -1.2035 -0.9795
 7541TIP3   OH244037   3.944   5.510   4.917  0.3361 -0.4793 -0.3852
 7541TIP3    H144038   3.905   5.517   4.830  2.7101 -1.6873 -1.5946
 7541TIP3    H244039   4.038   5.516   4.901  0.8604 -2.0964  1.9480
 7542TIP3   OH244040   5.950   1.396  11.272  0.9078  0.3363  0.1625
 7542TIP3    H144041   5.964   1.391  11.178 -0.5381  0.7884 -0.0877
 7542TIP3    H244042   5.860   1.427  11.282  2.1496  3.7389  1.6691
 7543TIP3   OH244043   1.978   0.842   3.020 -0.3112 -0.6442 -0.0024
 7543TIP3    H144044   1.973   0.887   3.104  1.5359 -0.6847  0.1601
 7543TIP3    H244045   2.034   0.766   3.038 -1.6806 -1.8564 -0.7623
 7544TIP3   OH244046   3.203   3.449   3.333 -0.1490  0.6346 -0.3227
 7544TIP3    H144047   3.129   3.509   3.340  0.0354  0.8878 -0.5260
 7544TIP3    H244048   3.197   3.414   3.244  1.1746  2.2353 -1.0677
 7545TIP3   OH244049   1.407   3.928   6.366 -0.2891  0.1051 -0.4008
 7545TIP3    H144050   1.487   3.979   6.360 -0.0475 -0.1781  0.3102
 7545TIP3    H244051   1.431   3.841   6.333 -0.3935  0.1229 -0.5226
 7546TIP3   OH244052   1.594   3.320   0.487  0.5682 -0.4687 -0.1497
 7546TIP3    H144053   1.685   3.293   0.476  0.1275 -2.1173  0.2421
 7546TIP3    H244054   1.551   3.293   0.406  0.2306 -0.4797  0.0322
 7547TIP3   OH244055   5.484   4.355  16.936 -0.4257  0.0988 -0.3219
 7547TIP3    H144056   5.409   4.415  16.939  0.2765  0.9594  0.3127
 7547TIP3    H244057   5.557   4.410  16.908  0.4642 -0.2020  1.3757
 7548TIP3   OH244058   5.895   4.673  14.534  0.5502  0.3464 -0.5412
 7548TIP3    H144059   5.848   4.590  14.531  0.9909  0.0779 -0.1286
 7548TIP3    H244060   5.986   4.648  14.545  0.7670  0.8722 -1.1292
 7549TIP3   OH244061   1.802   4.182  14.455  0.3668 -0.5895  0.2493
 7549TIP3    H144062   1.817   4.261  14.507  0.7027 -1.3411  1.2984
 7549TIP3    H244063   1.884   4.133  14.463  1.5836  0.6560 -3.4214
 7550TIP3   OH244064   6.215   0.865   1.045 -0.3918  0.6891 -0.1103
 7550TIP3    H144065   6.143   0.847   1.105 -0.0728 -0.6476 -0.1151
 7550TIP3    H244066   6.293   0.834   1.091  0.1699  1.9843 -0.1685
 7551TIP3   OH244067   2.447   2.046  13.123  0.5025  0.3411  0.7253
 7551TIP3    H144068   2.475   2.053  13.032 -1.2179  1.8963  0.2883
 7551TIP3    H244069   2.395   1.966  13.126  2.1736 -0.7627  0.8044
 7552TIP3   OH244070   6.197   3.455   5.589 -0.1711 -0.2842  0.2612
 7552TIP3    H144071   6.150   3.394   5.646  1.1379  0.0106  1.6848
 7552TIP3    H244072   6.237   3.399   5.522 -1.5867 -0.6503 -0.2960
 7553TIP3   OH244073   0.845   3.683   6.075  0.2461 -0.0241 -0.3225
 7553TIP3    H144074   0.881   3.753   6.129 -0.2746 -0.7101  0.9669
 7553TIP3    H244075   0.859   3.604   6.127  0.4109 -0.8093 -1.5481
 7554TIP3   OH244076   6.596   5.927   5.182 -0.1465 -0.0218 -0.7089
 7554TIP3    H144077   6.682   5.926   5.224 -0.1563 -3.4981 -0.6230
 7554TIP3    H244078   6.560   6.013   5.204  2.6394  0.9070  0.5671
 7555TIP3   OH244079   5.953   6.485  16.758  0.2867  0.0195  0.3512
 7555TIP3    H144080   5.951   6.534  16.840 -1.2837 -2.5801  1.9291
 7555TIP3    H244081   5.881   6.521  16.707  0.4731  0.7949  0.6313
 7556TIP3   OH244082   6.020   5.566   3.856  0.0239  0.7269 -0.4218
 7556TIP3    H144083   6.094   5.533   3.908 -0.6793 -0.0456  0.0891
 7556TIP3    H244084   5.981   5.634   3.911 -1.8798 -1.3747  0.9403
 7557TIP3   OH244085   5.912   3.330  15.886  0.4867  0.9165  0.3574
 7557TIP3    H144086   5.917   3.274  15.809 -0.2354 -1.0080  1.6706
 7557TIP3    H244087   6.003   3.337  15.917  0.4601 -0.3714  0.7563
 7558TIP3   OH244088   2.409   0.423  16.873  0.1340  0.0245  0.1617
 7558TIP3    H144089   2.434   0.506  16.914 -0.2873  0.6390 -0.7961
 7558TIP3    H244090   2.489   0.394  16.829  0.6891 -0.8259  1.7189
 7559TIP3   OH244091   3.586   4.455   1.418 -0.5048 -0.3097  0.0895
 7559TIP3    H144092   3.543   4.490   1.496  1.4479 -0.2269  1.1545
 7559TIP3    H244093   3.527   4.386   1.388 -0.4170 -1.5788  2.6922
 7560TIP3   OH244094   0.617   1.270  13.811 -0.1042 -0.5397  0.0953
 7560TIP3    H144095   0.575   1.206  13.754 -0.4542 -0.2946  0.0739
 7560TIP3    H244096   0.711   1.261  13.792  0.0067 -2.2089  1.3163
 7561TIP3   OH244097   1.507   2.192  14.138  0.0173  0.4995  0.5177
 7561TIP3    H144098   1.496   2.254  14.066  0.4004  0.3642  0.3364
 7561TIP3    H244099   1.492   2.243  14.217 -1.5422  0.3898  0.3011
 7562TIP3   OH244100   5.787   1.123   2.146  0.2189  0.1070  0.3831
 7562TIP3    H144101   5.750   1.193   2.093  2.8842  0.4584 -1.0612
 7562TIP3    H244102   5.772   1.151   2.237  0.5718  2.1670 -0.1780
 7563TIP3   OH244103   6.206   6.286   3.567  0.1947  0.4274  0.0416
 7563TIP3    H144104   6.269   6.258   3.633  1.7457 -0.6763 -1.8410
 7563TIP3    H244105   6.129   6.313   3.617  1.6583  0.5188  2.3252
 7564TIP3   OH244106   5.889   1.702   3.324 -0.3625  0.2359  0.3534
 7564TIP3    H144107   5.888   1.646   3.247 -0.8320  0.6728  0.0362
 7564TIP3    H244108   5.796   1.722   3.340 -0.0691  2.5701 -0.7486
 7565TIP3   OH244109   2.876   4.782  12.619 -0.9099  0.4426  0.0135
 7565TIP3    H144110   2.877   4.720  12.692 -1.5984 -0.1983 -0.5069
 7565TIP3    H244111   2.847   4.729  12.544 -1.3880  1.3658 -0.4591
 7566TIP3   OH244112   2.122   4.429  14.177  0.3674 -0.7134 -0.4227
 7566TIP3    H144113   2.084   4.495  14.236  0.5282 -1.1943  0.2205
 7566TIP3    H244114   2.059   4.357  14.177 -0.0490 -0.3602 -1.5201
 7567TIP3   OH244115   2.295   1.871  15.933 -0.8654  0.4727  0.5109
 7567TIP3    H144116   2.355   1.824  15.991  1.6107  0.8218 -1.6728
 7567TIP3    H244117   2.315   1.963  15.946 -0.6456  0.5730 -0.5435
 7568TIP3   OH244118   2.783   4.658   4.586  0.4182  0.3112  0.9443
 7568TIP3    H144119   2.865   4.706   4.574  0.3525 -0.2669 -2.4079
 7568TIP3    H244120   2.811   4.573   4.620  1.5275 -0.6438 -2.0968
 7569TIP3   OH244121   2.731   3.346  14.601  0.1730  0.1483 -0.1494
 7569TIP3    H144122   2.675   3.292  14.658  0.6288 -0.9628 -0.7474
 7569TIP3    H244123   2.815   3.349  14.646  0.2923 -0.0537 -0.3563
 7570TIP3   OH244124   3.491   1.096   1.493 -0.1838 -0.7338 -0.0012
 7570TIP3    H144125   3.419   1.096   1.555 -0.5999 -1.9089 -0.4749
 7570TIP3    H244126   3.470   1.026   1.431 -0.2802  1.0260 -2.0298
 7571TIP3   OH244127   1.425   3.582   3.515  0.3003  0.0925 -0.4505
 7571TIP3    H144128   1.365   3.584   3.590  0.0520 -1.1990 -0.6053
 7571TIP3    H244129   1.411   3.496   3.476  1.7146  0.0789 -0.9393
 7572TIP3   OH244130   4.797   3.526  10.824 -0.1220 -0.9357  0.3484
 7572TIP3    H144131   4.871   3.578  10.856  0.7588 -0.7466 -1.9131
 7572TIP3    H244132   4.822   3.502  10.735 -3.2578  0.0533 -0.8531
 7573TIP3   OH244133   2.312   4.566   5.597  0.4060  0.2331  0.0237
 7573TIP3    H144134   2.227   4.594   5.562  0.5211 -0.4233 -0.7982
 7573TIP3    H244135   2.293   4.541   5.687 -0.6204 -1.4654 -0.6322
 7574TIP3   OH244136   5.905   6.637  16.331  0.7366 -0.1159  0.2200
 7574TIP3    H144137   5.918   6.705  16.397  0.0651 -1.1565  1.4734
 7574TIP3    H244138   5.984   6.639  16.278  1.3332  0.6829  1.1242
 7575TIP3   OH244139   2.543   0.822  15.318 -0.0992  0.3913 -0.2725
 7575TIP3    H144140   2.522   0.755  15.383  1.3059  0.1062 -0.0973
 7575TIP3    H244141   2.554   0.903  15.369 -0.1531  0.4139 -0.2962
 7576TIP3   OH244142   1.169   2.757   3.220 -0.0198 -0.4218  0.1959
 7576TIP3    H144143   1.140   2.667   3.204  2.6541 -1.5193  1.2915
 7576TIP3    H244144   1.244   2.770   3.163  1.8219 -0.1416  2.5708
 7577TIP3   OH244145   4.492   5.544   6.026  0.6312  0.2059  0.1117
 7577TIP3    H144146   4.397   5.554   6.041  0.6195  0.6226 -0.2142
 7577TIP3    H244147   4.501   5.551   5.931  1.0792  0.9704  0.2098
 7578TIP3   OH244148   3.298   4.939  11.769 -0.4743 -0.0010 -0.0036
 7578TIP3    H144149   3.248   4.870  11.812  0.7702 -1.3731 -0.7089
 7578TIP3    H244150   3.327   4.996  11.840 -0.3182 -0.9885  0.7342
 7579TIP3   OH244151   3.829   4.066   1.031 -1.1315 -0.0500  0.4978
 7579TIP3    H144152   3.845   3.977   0.999  0.1530  0.5265 -0.5067
 7579TIP3    H244153   3.864   4.066   1.120  0.6223 -0.0347 -0.1654
 7580TIP3   OH244154   3.289   5.021   2.577 -0.2418 -0.4601 -0.6758
 7580TIP3    H144155   3.296   5.078   2.500 -2.3891  0.4798 -0.2308
 7580TIP3    H244156   3.249   4.941   2.543 -0.1887 -0.4612 -0.7364
 7581TIP3   OH244157   4.405   5.260  13.110  0.0337 -0.1338  0.9063
 7581TIP3    H144158   4.357   5.287  13.188 -1.3316 -1.3898  0.5186
 7581TIP3    H244159   4.342   5.266  13.039  0.8970 -0.2767  0.1120
 7582TIP3   OH244160   2.439   2.027  12.046 -0.0358 -0.1479 -0.4802
 7582TIP3    H144161   2.480   2.087  11.983 -0.0114 -0.6837 -0.9802
 7582TIP3    H244162   2.470   1.941  12.019 -2.0049 -0.6293 -1.2653
 7583TIP3   OH244163   4.833   0.452   2.215 -0.6332 -0.1305  0.1894
 7583TIP3    H144164   4.831   0.390   2.142  0.3774  1.2726 -1.0832
 7583TIP3    H244165   4.884   0.409   2.283 -0.2537 -0.8435 -0.5394
 7584TIP3   OH244166   4.440   2.568  17.089 -0.5258  0.2197 -0.6201
 7584TIP3    H144167   4.371   2.583  17.024  1.0957  1.5114 -2.1127
 7584TIP3    H244168   4.506   2.634  17.068 -0.1447  0.9320  2.6549
 7585TIP3   OH244169   3.276   4.847  10.947 -0.0449  0.3829  0.5901
 7585TIP3    H144170   3.273   4.907  10.872  1.2832  2.8085  2.3980
 7585TIP3    H244171   3.304   4.764  10.910 -1.3463  1.0120 -1.9093
 7586TIP3   OH244172   1.254   1.830  10.559 -0.4929  0.4020 -0.2626
 7586TIP3    H144173   1.284   1.812  10.470  0.6056  1.0073 -0.0159
 7586TIP3    H244174   1.305   1.906  10.588 -2.7479  1.9235 -0.0937
 7587TIP3   OH244175   2.980   1.884  13.195 -0.0274 -0.7516 -0.6013
 7587TIP3    H144176   3.046   1.925  13.141 -1.6302 -1.1425 -2.9209
 7587TIP3    H244177   2.907   1.945  13.195  0.0580 -0.6151  1.3955
 7588TIP3   OH244178   3.641   4.846   0.347 -0.6012 -0.2339 -0.1507
 7588TIP3    H144179   3.554   4.813   0.325  0.2480 -1.4063 -1.8407
 7588TIP3    H244180   3.684   4.772   0.391 -0.8598  0.7402  1.7740
 7589TIP3   OH244181   4.910   0.010  11.458 -0.3671  0.0302  0.2349
 7589TIP3    H144182   4.967   0.026  11.534 -0.2876  1.3926 -0.0983
 7589TIP3    H244183   4.966  -0.034  11.395  0.6636  2.3210 -0.5135
 7590TIP3   OH244184   3.819   4.115  13.773 -0.1496  0.0078  0.7050
 7590TIP3    H144185   3.747   4.095  13.713  0.5382  1.5611 -0.6662
 7590TIP3    H244186   3.876   4.038  13.768 -1.1726 -0.7772  0.9981
 7591TIP3   OH244187   5.348   1.413   0.942  0.3519 -0.8207 -0.1536
 7591TIP3    H144188   5.371   1.453   1.026  1.1001 -1.0448 -0.2489
 7591TIP3    H244189   5.288   1.476   0.901  0.0964 -0.6447  0.4791
 7592TIP3   OH244190   3.430   4.672  14.950  0.3599  0.1235  0.0607
 7592TIP3    H144191   3.424   4.720  14.868  0.3369 -0.3192 -0.1974
 7592TIP3    H244192   3.340   4.651  14.972  0.4814 -1.2029 -0.6607
 7593TIP3   OH244193   5.427   4.967  11.536 -0.1759 -0.3576  0.0676
 7593TIP3    H144194   5.516   5.000  11.545 -0.8473  1.4842  0.1687
 7593TIP3    H244195   5.380   5.035  11.488 -1.7739 -0.8442  0.8744
 7594TIP3   OH244196   3.076   3.333   3.730  0.8212  0.2824 -0.2218
 7594TIP3    H144197   3.078   3.299   3.641  2.4111  2.6164 -1.1264
 7594TIP3    H244198   3.163   3.369   3.745 -0.2619  2.4732  1.2174
 7595TIP3   OH244199   5.870   2.717   4.636 -0.9998  0.1319  0.1085
 7595TIP3    H144200   5.848   2.627   4.659  2.0378 -0.9682 -1.0161
 7595TIP3    H244201   5.917   2.751   4.712 -1.4190  0.5275  0.2000
 7596TIP3   OH244202   6.042   4.628   5.140 -0.3491 -0.0826 -0.1681
 7596TIP3    H144203   6.131   4.613   5.173 -0.2517  0.7845 -0.0026
 7596TIP3    H244204   6.051   4.623   5.045 -0.1739 -0.3021 -0.1396
 7597TIP3   OH244205   5.532   6.661   4.936 -0.2883 -0.1796  0.1476
 7597TIP3    H144206   5.507   6.750   4.909  1.0379  0.2155  0.1913
 7597TIP3    H244207   5.487   6.648   5.019  0.8987  1.1358  1.0212
 7598TIP3   OH244208   0.838   3.045   3.996  0.0403  0.0929 -0.1785
 7598TIP3    H144209   0.846   3.138   4.014 -1.3852  0.2459 -0.2685
 7598TIP3    H244210   0.903   3.004   4.052 -0.8498  0.9672  1.5111
 7599TIP3   OH244211   0.903   1.047   0.489  0.4371 -0.0455  0.5533
 7599TIP3    H144212   0.808   1.050   0.480  0.5454  0.2209 -0.6018
 7599TIP3    H244213   0.925   1.129   0.534  0.2017  0.3088  0.0290
 7600TIP3   OH244214   0.494   1.277   5.095 -0.3472 -0.0948 -0.0400
 7600TIP3    H144215   0.500   1.261   5.189  1.1315  2.3809  0.3425
 7600TIP3    H244216   0.536   1.362   5.083 -0.8453 -0.2093 -2.9021
 7601TIP3   OH244217   0.877   2.513   4.491 -0.0123 -0.3600  0.2417
 7601TIP3    H144218   0.869   2.493   4.398 -1.0548 -0.3197  0.3231
 7601TIP3    H244219   0.787   2.517   4.523  0.3388 -0.3554  1.2490
 7602TIP3   OH244220   2.761   6.288   0.097 -0.0797 -0.4363 -0.0702
 7602TIP3    H144221   2.756   6.383   0.083 -0.8868 -0.5375 -0.4814
 7602TIP3    H244222   2.704   6.272   0.172  0.1482 -0.5840  0.0717
 7603TIP3   OH244223   0.667   1.849   3.544 -0.2314 -0.0721 -0.5373
 7603TIP3    H144224   0.668   1.759   3.511  0.3500  0.8229 -3.0559
 7603TIP3    H244225   0.577   1.862   3.575 -0.8068 -0.9477 -1.8063
 7604TIP3   OH244226   3.628   2.993  12.707 -0.0694 -0.3086  0.9513
 7604TIP3    H144227   3.670   2.909  12.727  1.7346  0.4110  0.2862
 7604TIP3    H244228   3.647   3.049  12.782 -0.5709 -0.2208  1.0203
 7605TIP3   OH244229   4.224   5.321   2.326 -0.2399 -0.5092  0.3813
 7605TIP3    H144230   4.259   5.273   2.251 -0.8753  0.9031 -0.8401
 7605TIP3    H244231   4.280   5.295   2.399  0.6218 -1.6203 -0.6496
 7606TIP3   OH244232   6.757   3.099   4.022 -0.2434 -0.5989  0.8715
 7606TIP3    H144233   6.683   3.038   4.022 -0.1049 -0.7680  0.5641
 7606TIP3    H244234   6.720   3.181   3.991 -0.1395 -0.8849 -0.0198
 7607TIP3   OH244235   4.821   6.007  16.089  0.1000 -0.0067  0.0176
 7607TIP3    H144236   4.760   5.956  16.142  0.4059 -2.0102 -1.5245
 7607TIP3    H244237   4.891   5.947  16.067  0.4034  1.0262 -1.9515
 7608TIP3   OH244238   2.797   4.074   2.483  0.3156  0.4881 -0.4977
 7608TIP3    H144239   2.868   4.010   2.471  0.3325  0.3879  0.1081
 7608TIP3    H244240   2.770   4.097   2.394 -0.7873 -1.5737 -0.7252
 7609TIP3   OH244241   4.912   5.000  15.289  0.4118  0.0420 -0.3342
 7609TIP3    H144242   4.940   5.032  15.203  1.8800 -0.8887 -0.2183
 7609TIP3    H244243   4.908   5.079  15.343  3.8685  0.1239 -0.0970
 7610TIP3   OH244244   2.840   2.547   5.993  0.2874 -0.1899 -0.5339
 7610TIP3    H144245   2.765   2.491   5.976 -1.1400  1.2621  0.8558
 7610TIP3    H244246   2.877   2.514   6.076  1.3213 -1.0245 -1.3100
 7611TIP3   OH244247   3.108   1.780  12.543  0.1623 -0.2840 -0.2897
 7611TIP3    H144248   3.065   1.864  12.531 -0.6450 -0.7670 -0.8016
 7611TIP3    H244249   3.149   1.786  12.629 -1.2784  0.0265  0.3807
 7612TIP3   OH244250   0.766   3.694   4.533  0.6842 -0.0861 -0.1845
 7612TIP3    H144251   0.832   3.762   4.548  2.5335 -1.5112 -1.6225
 7612TIP3    H244252   0.746   3.661   4.620  2.7775 -0.4376  0.1985
 7613TIP3   OH244253   2.465   6.786  11.486 -0.2763  0.0517 -0.2400
 7613TIP3    H144254   2.455   6.861  11.545 -0.0542 -0.6848  0.7592
 7613TIP3    H244255   2.557   6.789  11.458 -0.4711  0.5966 -0.8104
 7614TIP3   OH244256   4.906   3.969   0.155  0.3601 -0.0749 -0.0554
 7614TIP3    H144257   4.996   3.992   0.132 -0.1460  0.0302 -1.9747
 7614TIP3    H244258   4.881   3.904   0.091 -0.2054 -1.7807  1.8389
 7615TIP3   OH244259   1.523   3.856   3.514 -0.1486  0.3168  0.0565
 7615TIP3    H144260   1.504   3.769   3.477  0.6847  0.2825 -0.3181
 7615TIP3    H244261   1.463   3.865   3.587  0.1393 -0.8156  0.4389
 7616TIP3   OH244262   4.243   2.421   0.946  0.0196 -0.2235 -0.0417
 7616TIP3    H144263   4.268   2.503   0.903 -0.0214 -0.5099 -0.6178
 7616TIP3    H244264   4.153   2.406   0.918  0.2060 -0.7443 -0.3713
 7617TIP3   OH244265   0.888   2.934  10.506  0.4130  0.3690 -0.4140
 7617TIP3    H144266   0.972   2.965  10.539  1.7144 -2.4911 -0.8750
 7617TIP3    H244267   0.909   2.855  10.457 -2.5204 -0.2656 -0.7520
 7618TIP3   OH244268   1.160   4.140   5.628 -0.0218 -0.0085 -0.5059
 7618TIP3    H144269   1.158   4.137   5.724 -1.0878  2.3187 -0.4233
 7618TIP3    H244270   1.071   4.118   5.601  0.1221 -0.0701 -0.9302
 7619TIP3   OH244271   0.546   4.247  15.483 -0.2756 -0.2705 -0.1031
 7619TIP3    H144272   0.456   4.275  15.499 -0.2618 -0.2141 -0.1240
 7619TIP3    H244273   0.596   4.282  15.557 -0.2170 -0.0327 -0.2525
 7620TIP3   OH244274   2.067   4.824   2.204 -0.2683  0.1578 -0.0943
 7620TIP3    H144275   2.051   4.828   2.110  0.4148  0.2753 -0.2072
 7620TIP3    H244276   1.981   4.840   2.243 -0.7209 -0.7599 -0.6997
 7621TIP3   OH244277   1.780   1.619  13.304  0.3245 -0.0978  0.3378
 7621TIP3    H144278   1.773   1.708  13.338 -1.0389 -0.2406  0.4982
 7621TIP3    H244279   1.869   1.592  13.323  0.3538  0.7654  1.4704
 7622TIP3   OH244280   2.473   0.210   3.155 -0.2068  0.1450  0.5382
 7622TIP3    H144281   2.558   0.249   3.133  0.6975 -1.9822  0.2170
 7622TIP3    H244282   2.462   0.140   3.092 -2.1086  0.2440  0.7504
 7623TIP3   OH244283   5.728   5.895  12.559  0.4529  0.5201 -0.0174
 7623TIP3    H144284   5.740   5.819  12.503  0.1866 -0.7370  1.5832
 7623TIP3    H244285   5.817   5.922  12.582  0.5320 -1.0890  1.7086
 7624TIP3   OH244286   3.442   6.031  11.655 -0.1562  0.1319 -0.5936
 7624TIP3    H144287   3.533   6.038  11.683 -0.6464  0.5010  0.9905
 7624TIP3    H244288   3.442   6.061  11.564  1.2548  0.3860 -0.5238
 7625TIP3   OH244289   2.959   2.854  14.513  0.2107  0.2236 -0.0740
 7625TIP3    H144290   3.052   2.835  14.522  0.5161  1.3120 -0.8009
 7625TIP3    H244291   2.939   2.836  14.421 -0.1536  0.5971 -0.0707
 7626TIP3   OH244292   1.111   5.398  16.695  0.0797 -0.5705  0.1347
 7626TIP3    H144293   1.034   5.363  16.650 -1.0126 -0.6275  1.9934
 7626TIP3    H244294   1.083   5.408  16.786  2.1327 -0.1517  0.7455
 7627TIP3   OH244295   0.946   3.932  13.874 -0.2280 -0.3685 -0.6102
 7627TIP3    H144296   0.877   3.988  13.908  0.3202 -0.8243  1.3389
 7627TIP3    H244297   0.908   3.844  13.875  0.3236 -0.6068  0.3757
 7628TIP3   OH244298   1.559   0.265   2.650  0.4132  0.2426  0.1573
 7628TIP3    H144299   1.652   0.262   2.632  0.1324  0.5544 -1.3748
 7628TIP3    H244300   1.550   0.328   2.722  1.5574 -1.2017  1.5974
 7629TIP3   OH244301   1.941   2.168  15.773 -0.1915  0.4292  0.4799
 7629TIP3    H144302   2.012   2.106  15.755  0.2661  1.6309 -2.1246
 7629TIP3    H244303   1.969   2.215  15.852  0.5738 -1.0429  1.0907
 7630TIP3   OH244304   0.277   3.196  15.915 -0.2757  0.4708  0.2091
 7630TIP3    H144305   0.274   3.218  16.008  0.6704  0.2306  0.2949
 7630TIP3    H244306   0.367   3.169  15.899  0.0482  2.2470 -1.1724
 7631TIP3   OH244307   4.539   1.334   3.642  0.4088 -0.4030  0.1606
 7631TIP3    H144308   4.550   1.305   3.552  1.0151  1.2837 -0.3208
 7631TIP3    H244309   4.445   1.351   3.651  0.4326 -0.0474 -0.3007
 7632TIP3   OH244310   1.800   2.170   4.804 -0.0001  0.0932  0.3203
 7632TIP3    H144311   1.783   2.098   4.864  2.6605 -2.0730 -1.4288
 7632TIP3    H244312   1.843   2.237   4.858  2.2011 -1.7506  0.9209
 7633TIP3   OH244313   0.193   2.917  14.655  0.4805  0.1858 -0.4050
 7633TIP3    H144314   0.270   2.871  14.622 -0.2698 -1.2020 -0.2500
 7633TIP3    H244315   0.145   2.851  14.704  0.7906  1.8050  2.1956
 7634TIP3   OH244316   3.587   4.298  13.409 -0.0632 -0.1444 -0.2055
 7634TIP3    H144317   3.586   4.373  13.469 -1.8707  0.8842 -1.4619
 7634TIP3    H244318   3.656   4.319  13.346 -0.2032  0.2134 -0.2421
 7635TIP3   OH244319   2.396   2.248   5.304  0.3028 -0.3222  0.2793
 7635TIP3    H144320   2.406   2.335   5.344  0.7849 -0.5796  0.7262
 7635TIP3    H244321   2.316   2.254   5.253  2.0737  1.4855 -2.4412
 7636TIP3   OH244322   4.518   1.624  10.982  0.5267  0.3625  0.1084
 7636TIP3    H144323   4.452   1.596  10.919  2.2107  0.5924 -1.8251
 7636TIP3    H244324   4.543   1.543  11.028  0.2550 -0.0636 -0.4843
 7637TIP3   OH244325   1.897   2.906  14.059  0.6517  0.0076  0.4681
 7637TIP3    H144326   1.924   2.826  14.014 -0.0769  0.1482 -0.2318
 7637TIP3    H244327   1.978   2.956  14.070  0.9833 -0.4675  0.1926
 7638TIP3   OH244328   0.062   3.543   6.403 -0.9815  0.0994 -0.0293
 7638TIP3    H144329  -0.006   3.560   6.337 -0.5041 -0.1420 -0.5971
 7638TIP3    H244330   0.031   3.585   6.482 -3.3625 -2.7454  0.6274
 7639TIP3   OH244331   4.959   4.380  11.012 -0.5543 -0.2634  0.4161
 7639TIP3    H144332   5.030   4.443  11.003 -0.6432 -0.2835 -0.4645
 7639TIP3    H244333   4.893   4.409  10.949 -1.1473 -0.4974  0.9176
 7640TIP3   OH244334   1.652   0.146  15.699  0.6594 -0.4677 -0.3402
 7640TIP3    H144335   1.708   0.124  15.625  0.6545 -0.3525 -0.3797
 7640TIP3    H244336   1.713   0.178  15.766  0.6360 -0.2811 -0.4060
 7641TIP3   OH244337   1.319   3.917   6.645 -0.5773 -0.3188 -0.4745
 7641TIP3    H144338   1.391   3.926   6.708  0.1659 -1.4090 -1.1422
 7641TIP3    H244339   1.358   3.942   6.561 -1.2952  0.1748 -0.6653
 7642TIP3   OH244340   0.155   1.318  11.768  0.0950 -0.1584  0.1967
 7642TIP3    H144341   0.221   1.384  11.790  1.2638 -1.4198  0.5239
 7642TIP3    H244342   0.191   1.273  11.692 -1.1546  0.2044 -0.6332
 7643TIP3   OH244343   4.844   3.962  13.430 -0.2281  0.3445 -0.8837
 7643TIP3    H144344   4.825   3.871  13.406 -1.0761  0.2141  0.2649
 7643TIP3    H244345   4.938   3.971  13.415 -0.0863 -0.8076 -0.7525
 7644TIP3   OH244346   5.858   2.019  14.283  0.1120  0.2007 -0.1640
 7644TIP3    H144347   5.951   2.039  14.296 -0.1681  1.2923  0.2463
 7644TIP3    H244348   5.825   2.093  14.231 -1.0690  1.1132  1.8054
 7645TIP3   OH244349   6.276   6.639   0.172 -0.3309 -0.0063  0.0269
 7645TIP3    H144350   6.189   6.678   0.172  0.1455  1.1586  3.2688
 7645TIP3    H244351   6.261   6.546   0.184 -1.0740  0.3756  2.1051
 7646TIP3   OH244352   2.694   1.786  17.108  0.2971 -0.6441  0.1962
 7646TIP3    H144353   2.774   1.838  17.106  0.1486 -0.4344 -0.3466
 7646TIP3    H244354   2.701   1.734  17.188 -0.3432  1.4438  1.6328
 7647TIP3   OH244355   0.535   2.917  15.274  0.1755 -0.4779 -0.1670
 7647TIP3    H144356   0.458   2.887  15.322  0.5327  0.2472  0.8721
 7647TIP3    H244357   0.511   3.006  15.245 -0.4638 -1.3115 -2.2938
 7648TIP3   OH244358   3.006   3.733  15.349 -0.1396  0.1369 -0.0009
 7648TIP3    H144359   3.071   3.744  15.279 -0.5686 -2.1011 -0.7845
 7648TIP3    H244360   2.983   3.822  15.374  3.6038  1.0004  0.6659
 7649TIP3   OH244361   4.229   3.256  16.469  0.6271  0.1126 -0.7269
 7649TIP3    H144362   4.186   3.302  16.541 -0.2253 -0.6657 -0.7369
 7649TIP3    H244363   4.321   3.252  16.496  1.1846  3.8439 -1.7977
 7650TIP3   OH244364   0.388   4.932   1.851  0.2131  0.4822 -0.0656
 7650TIP3    H144365   0.325   4.940   1.923  0.6004 -1.2204  0.4748
 7650TIP3    H244366   0.358   4.857   1.800  0.9049  0.6386 -0.7264
 7651TIP3   OH244367   0.039   5.475   4.159 -0.1200  0.3934  0.7525
 7651TIP3    H144368  -0.029   5.535   4.189  1.1273  1.6743  1.0553
 7651TIP3    H244369   0.038   5.484   4.063  1.0148  1.9831  0.8688
 7652TIP3   OH244370   2.025   4.829  17.103  0.0948  0.2370 -0.3905
 7652TIP3    H144371   2.053   4.787  17.185  2.0079 -1.2602 -1.7719
 7652TIP3    H244372   2.093   4.895  17.087  0.8960 -0.9013 -1.8358
 7653TIP3   OH244373   6.152   2.763  12.005  0.4654 -0.0169  0.0379
 7653TIP3    H144374   6.123   2.782  12.094 -1.4506 -0.3492 -0.5024
 7653TIP3    H244375   6.154   2.848  11.962  1.0462  0.0981  0.2785
 7654TIP3   OH244376   6.162   1.664   3.043 -0.1922  0.4387  0.3360
 7654TIP3    H144377   6.072   1.650   3.071  0.3050  1.9334  2.7732
 7654TIP3    H244378   6.183   1.753   3.073  1.9886  0.2213 -0.4769
 7655TIP3   OH244379   3.107   6.035   6.110 -0.2709  0.0987 -0.0329
 7655TIP3    H144380   3.039   6.005   6.171  0.8955 -1.6323  0.4369
 7655TIP3    H244381   3.166   5.961   6.102  2.8591  2.3395  1.3698
 7656TIP3   OH244382   4.845   6.644  14.614  0.4625  0.5448  0.4607
 7656TIP3    H144383   4.751   6.641  14.634 -0.5090  2.6955 -3.1925
 7656TIP3    H244384   4.856   6.583  14.542  1.4852  1.6273 -0.3227
 7657TIP3   OH244385   2.826   5.533   2.343 -0.0266 -0.2124  0.2734
 7657TIP3    H144386   2.911   5.491   2.328  0.6017  1.0955  0.1564
 7657TIP3    H244387   2.791   5.548   2.256  0.3468  0.7134  0.2790
 7658TIP3   OH244388   2.708   2.333  14.746 -0.5813  0.4567 -0.1076
 7658TIP3    H144389   2.772   2.399  14.718 -1.3256  0.3679 -2.0991
 7658TIP3    H244390   2.684   2.287  14.665  0.4902 -2.7901  1.3705
 7659TIP3   OH244391   3.577   5.922  16.763  0.3168  0.0989  0.1278
 7659TIP3    H144392   3.573   6.011  16.728  0.5028 -0.1994 -0.6544
 7659TIP3    H244393   3.486   5.902  16.787  0.0596  0.0293 -0.8771
 7660TIP3   OH244394   0.337   4.449   5.866  0.1434  0.0271 -0.0012
 7660TIP3    H144395   0.390   4.444   5.946  2.3644 -0.1403 -1.4507
 7660TIP3    H244396   0.313   4.358   5.848  0.9434 -0.1076 -0.3812
 7661TIP3   OH244397   2.027   6.138  12.464 -0.0458 -0.5556  0.0943
 7661TIP3    H144398   2.113   6.099  12.480 -0.2029  0.1639  2.8472
 7661TIP3    H244399   1.965   6.067  12.480 -0.1378 -0.1282  1.7530
 7662TIP3   OH244400   5.449   5.338  17.225 -0.1224 -0.0215  0.2899
 7662TIP3    H144401   5.407   5.264  17.269 -0.5880  0.5447  0.8274
 7662TIP3    H244402   5.448   5.408  17.291  1.7033  0.0015  0.3285
 7663TIP3   OH244403   4.914   4.695   1.134  0.1144 -0.7821  0.0657
 7663TIP3    H144404   4.982   4.748   1.093 -0.9348  0.3488 -0.2083
 7663TIP3    H244405   4.887   4.633   1.066 -0.1077 -0.3271 -0.2562
 7664TIP3   OH244406   5.170   3.518   5.426  0.0425 -0.2031  0.5405
 7664TIP3    H144407   5.188   3.539   5.335  0.4557  0.6054  0.7998
 7664TIP3    H244408   5.256   3.501   5.465 -0.1282 -0.5199  0.7889
 7665TIP3   OH244409   1.875   4.034   2.456 -0.1078 -0.0428 -0.1974
 7665TIP3    H144410   1.936   4.004   2.523  0.5508  0.9943 -0.3174
 7665TIP3    H244411   1.794   3.988   2.474 -0.3453  1.2496  2.1531
 7666TIP3   OH244412   5.886   2.536   2.309 -0.0761  0.5693  0.1198
 7666TIP3    H144413   5.977   2.514   2.289 -0.1354  0.8336 -0.4661
 7666TIP3    H244414   5.846   2.454   2.336  0.4964  0.5708  0.9968
 7667TIP3   OH244415   6.567   2.980   2.464 -0.7043 -0.4667 -0.2100
 7667TIP3    H144416   6.611   2.927   2.398 -0.9792 -2.2784  1.0547
 7667TIP3    H244417   6.557   2.923   2.539  1.5965  2.2044  2.2495
 7668TIP3   OH244418   4.710   4.755  14.272  0.1033 -0.1471  0.2866
 7668TIP3    H144419   4.709   4.850  14.275 -0.8202 -0.1608  0.3123
 7668TIP3    H244420   4.802   4.732  14.284 -0.0503  0.6375  3.3396
 7669TIP3   OH244421   3.281   5.664   4.650  0.4638  0.3652 -0.0116
 7669TIP3    H144422   3.329   5.664   4.567  0.9635  1.4214  0.2760
 7669TIP3    H244423   3.323   5.595   4.702 -0.0543 -0.5157 -0.7398
 7670TIP3   OH244424   4.835   3.665  16.418 -0.3262  0.1609 -0.1551
 7670TIP3    H144425   4.888   3.711  16.483 -1.0982  0.9161 -0.0540
 7670TIP3    H244426   4.885   3.673  16.337 -0.3063  0.9032 -0.0717
 7671TIP3   OH244427   5.361   4.715  12.055  0.0508 -0.0111 -0.4529
 7671TIP3    H144428   5.315   4.632  12.064  0.1198 -0.1314 -1.1708
 7671TIP3    H244429   5.299   4.781  12.086 -0.1243 -0.2914 -0.2006
 7672TIP3   OH244430   1.110   3.768   0.069 -0.4375 -0.2121  0.6283
 7672TIP3    H144431   1.066   3.682   0.070 -1.2576  0.1542 -1.0395
 7672TIP3    H244432   1.057   3.820   0.009  0.8494  1.0434  0.5764
 7673TIP3   OH244433   1.072   2.653   0.277 -0.0777  0.6342 -0.5458
 7673TIP3    H144434   1.166   2.671   0.269 -0.0192  0.9914  0.8541
 7673TIP3    H244435   1.067   2.577   0.334 -0.6081  0.0164 -1.4080
 7674TIP3   OH244436   6.696   1.066  12.869  0.3350  0.1643  0.1878
 7674TIP3    H144437   6.678   0.993  12.810  2.0268  1.2514 -1.7204
 7674TIP3    H244438   6.758   1.121  12.822  0.7359  1.7493  2.4637
 7675TIP3   OH244439   6.587   2.076   3.761 -0.2437 -0.0055  0.6842
 7675TIP3    H144440   6.502   2.121   3.758 -1.0981 -1.5161  1.3173
 7675TIP3    H244441   6.564   1.983   3.754  1.4339 -0.3730 -0.0627
 7676TIP3   OH244442   1.138   6.139   5.150 -0.1017 -0.5498 -0.1684
 7676TIP3    H144443   1.217   6.084   5.156  0.2551 -0.0551 -0.2782
 7676TIP3    H244444   1.085   6.098   5.082  0.8272  0.0718 -1.2936
 7677TIP3   OH244445   5.206   2.809   3.855 -0.8481  0.4102 -0.1126
 7677TIP3    H144446   5.249   2.728   3.883 -2.2205 -0.0776  0.6369
 7677TIP3    H244447   5.249   2.878   3.907 -0.3700  0.0501 -0.0226
 7678TIP3   OH244448   5.334   1.836   0.789  0.2581  0.1247  0.2202
 7678TIP3    H144449   5.283   1.755   0.793  2.0649 -0.9929  1.5824
 7678TIP3    H244450   5.399   1.820   0.720 -0.1752  0.8912 -0.3651
 7679TIP3   OH244451   2.447   5.888  16.246 -0.0884  0.3023  0.1987
 7679TIP3    H144452   2.399   5.967  16.222 -1.3984 -0.9055 -1.2863
 7679TIP3    H244453   2.389   5.816  16.221  2.3583 -1.2079 -1.4310
 7680TIP3   OH244454   6.405   3.087   4.219 -0.4660  0.2484 -0.3746
 7680TIP3    H144455   6.358   3.168   4.203 -0.8027 -0.0162 -0.7463
 7680TIP3    H244456   6.470   3.109   4.286 -0.0223  1.0128 -1.0547
 7681TIP3   OH244457   0.206   5.949   4.708  0.6134 -0.8003 -0.5331
 7681TIP3    H144458   0.116   5.918   4.704  0.3913 -0.1323 -0.8412
 7681TIP3    H244459   0.205   6.015   4.777  0.0198  1.8846 -3.0017
 7682TIP3   OH244460   2.344   2.354   0.205 -0.4949  0.3709  0.0150
 7682TIP3    H144461   2.314   2.275   0.250 -1.4039 -0.0523 -1.2905
 7682TIP3    H244462   2.272   2.376   0.145  0.8147  0.7374 -1.4450
 7683TIP3   OH244463   2.898   6.491  11.063 -0.3765 -0.0542  0.2125
 7683TIP3    H144464   2.956   6.555  11.022 -0.5415 -1.1723 -1.8603
 7683TIP3    H244465   2.924   6.490  11.155  0.7551  1.7548 -0.0673
 7684TIP3   OH244466   0.162   2.871   0.228 -0.1281 -0.2721 -0.4262
 7684TIP3    H144467   0.205   2.791   0.197 -0.1632  0.6607 -3.0230
 7684TIP3    H244468   0.233   2.933   0.243 -0.0692 -0.8542  1.9438
 7685TIP3   OH244469   5.249   4.229  11.786  0.3108 -0.1157 -0.5705
 7685TIP3    H144470   5.167   4.219  11.737 -1.3231 -0.2091  2.0724
 7685TIP3    H244471   5.267   4.323  11.784 -1.4847  0.3130  1.2799
 7686TIP3   OH244472   1.089   2.835   0.698 -0.4686  0.1585 -0.4914
 7686TIP3    H144473   1.090   2.909   0.637  0.9588  0.6140  0.0609
 7686TIP3    H244474   1.116   2.760   0.646 -1.9076  0.0031 -1.0516
 7687TIP3   OH244475   2.107   3.716   2.772  0.3318  0.4181 -0.0510
 7687TIP3    H144476   2.013   3.732   2.776  0.4432  1.1145 -0.0970
 7687TIP3    H244477   2.116   3.636   2.721 -0.1192  1.6239 -2.0491
 7688TIP3   OH244478   5.708   2.318   5.570 -0.4915  0.4432  0.4178
 7688TIP3    H144479   5.728   2.275   5.487 -2.6119 -0.6766  0.4531
 7688TIP3    H244480   5.663   2.399   5.545  0.3607  0.9295  0.4422
 7689TIP3   OH244481   4.802   4.447   0.994 -0.0022 -0.0537  0.6243
 7689TIP3    H144482   4.782   4.433   1.086 -2.4874 -0.7398  0.0158
 7689TIP3    H244483   4.717   4.452   0.951  1.1087  0.0972 -1.6687
 7690TIP3   OH244484   4.939   2.651  14.917 -0.1016  0.7273 -0.1957
 7690TIP3    H144485   4.845   2.634  14.908  0.1016 -0.7406  0.3512
 7690TIP3    H244486   4.958   2.635  15.009  0.6875  1.0218 -0.3013
 7691TIP3   OH244487   4.338   1.052   2.876 -0.6778 -0.0479 -0.0582
 7691TIP3    H144488   4.282   1.098   2.813 -0.8912 -1.1360 -0.6716
 7691TIP3    H244489   4.312   0.960   2.868  0.1272 -0.3513  0.7686
 7692TIP3   OH244490   3.903   3.692   1.374  0.0082 -0.1482  0.2656
 7692TIP3    H144491   3.995   3.697   1.399  0.5948 -1.2262 -1.6401
 7692TIP3    H244492   3.864   3.770   1.413  1.9743  0.9939  0.0040
 7693TIP3   OH244493   2.743   4.246  16.126 -0.1307  0.7455 -0.0612
 7693TIP3    H144494   2.830   4.285  16.126  0.4519 -0.5246 -0.7746
 7693TIP3    H244495   2.754   4.163  16.080 -1.3188 -0.3454  1.5879
 7694TIP3   OH244496   1.069   5.413  13.300 -0.3869 -0.3428 -0.5288
 7694TIP3    H144497   1.089   5.373  13.384  1.2642  3.0283  0.8042
 7694TIP3    H244498   1.091   5.346  13.235  0.6008 -2.1625  1.6242
 7695TIP3   OH244499   0.976   3.078  12.282  0.2301  0.1543  0.3734
 7695TIP3    H144500   0.967   3.159  12.332  0.5164 -0.9109  2.1876
 7695TIP3    H244501   0.984   3.009  12.348  0.7906 -1.2738 -1.1373
 7696TIP3   OH244502   5.761   1.210  11.771  0.1682 -0.3955  0.1585
 7696TIP3    H144503   5.832   1.202  11.707  0.3081 -0.0814  0.2725
 7696TIP3    H244504   5.700   1.140  11.748 -0.5845  0.7024 -1.3475
 7697TIP3   OH244505   0.446   1.698   1.365 -0.4967 -0.0750  0.4560
 7697TIP3    H144506   0.518   1.654   1.321 -1.6672  0.9199 -2.5783
 7697TIP3    H244507   0.470   1.790   1.364 -1.2169  0.1155  0.6125
 7698TIP3   OH244508   0.923   4.479   5.169 -0.6865 -0.0848 -0.0067
 7698TIP3    H144509   0.906   4.544   5.237  1.1780  0.3770  0.0519
 7698TIP3    H244510   0.986   4.521   5.111 -1.1189 -1.0425 -1.1799
 7699TIP3   OH244511   3.776   3.430  12.048  1.3200 -0.1109 -0.3139
 7699TIP3    H144512   3.823   3.493  12.103  0.5162  0.0430  0.1963
 7699TIP3    H244513   3.701   3.479  12.015  0.7735 -0.7561 -0.0406
 7700TIP3   OH244514   3.262   3.040  14.344  0.3117  0.5143  0.6338
 7700TIP3    H144515   3.229   3.125  14.374  1.0966  1.0894 -0.1061
 7700TIP3    H244516   3.348   3.059  14.307 -0.0690 -0.3786 -0.7513
 7701TIP3   OH244517   4.852   0.857  16.541  0.1999 -0.3220 -0.4551
 7701TIP3    H144518   4.817   0.836  16.455 -0.4535  1.0588 -0.5410
 7701TIP3    H244519   4.932   0.906  16.524  0.7612 -1.1518 -0.2631
 7702TIP3   OH244520   4.837   6.041  13.902 -0.0676  1.0310  0.1972
 7702TIP3    H144521   4.832   6.050  13.807 -0.3441  1.1339  0.2195
 7702TIP3    H244522   4.907   5.978  13.917 -1.6172 -0.7971 -0.1599
 7703TIP3   OH244523   3.312   3.478  14.960  0.0940  0.4825  0.3116
 7703TIP3    H144524   3.270   3.470  15.046  0.2583  0.7675  0.4196
 7703TIP3    H244525   3.353   3.392  14.946 -0.0950  0.3716  0.4332
 7704TIP3   OH244526   0.664   1.503  12.547  0.1842 -0.0006  0.1151
 7704TIP3    H144527   0.605   1.529  12.476 -1.0054 -1.0680  0.6738
 7704TIP3    H244528   0.674   1.582  12.600 -1.1698  0.0715  0.2883
 7705TIP3   OH244529   4.046   6.634   3.814 -0.1911  0.0231  0.0690
 7705TIP3    H144530   4.073   6.549   3.779 -1.0656 -1.0188  1.8698
 7705TIP3    H244531   4.128   6.672   3.847 -0.0166 -0.7519  0.5612
 7706TIP3   OH244532   1.518   1.793  16.335 -0.6677  0.0441  0.2663
 7706TIP3    H144533   1.509   1.886  16.317 -1.1812 -0.2624 -1.1218
 7706TIP3    H244534   1.512   1.751  16.249  1.3473 -1.1487  0.6766
 7707TIP3   OH244535   2.432   1.507  12.731  0.3834  0.8950  0.0308
 7707TIP3    H144536   2.438   1.469  12.819  1.6064  1.6092  0.2705
 7707TIP3    H244537   2.491   1.452  12.678  0.5847  1.2078 -0.0716
 7708TIP3   OH244538   4.299   1.721  14.947  0.2329  0.3355 -0.5120
 7708TIP3    H144539   4.345   1.795  14.988 -0.5536  1.0852 -0.9606
 7708TIP3    H244540   4.359   1.647  14.957  0.4165  0.6948  1.2510
 7709TIP3   OH244541   6.531   3.831  11.904  0.1966 -0.1838  0.2632
 7709TIP3    H144542   6.579   3.762  11.857  0.8093 -0.1972  0.9039
 7709TIP3    H244543   6.484   3.785  11.973 -1.7277 -0.3293 -1.1109
 7710TIP3   OH244544   6.517   0.277  12.918 -0.4267 -0.2183  0.2189
 7710TIP3    H144545   6.486   0.313  12.834 -0.2288 -1.0011 -0.1931
 7710TIP3    H244546   6.473   0.192  12.925 -0.8051  0.0472  1.1382
 7711TIP3   OH244547   5.100   2.124  11.732  0.0257 -0.2991 -0.4644
 7711TIP3    H144548   5.154   2.116  11.654 -0.5828  1.1507 -1.0599
 7711TIP3    H244549   5.153   2.179  11.791  0.0856 -0.6110 -0.2271
 7712TIP3   OH244550   5.952   5.333  17.087 -0.2692  0.3465 -0.0481
 7712TIP3    H144551   5.939   5.416  17.041  0.1703  0.8582  0.7404
 7712TIP3    H244552   6.040   5.340  17.125  0.0263 -0.7327 -0.4974
 7713TIP3   OH244553   2.119   6.644  17.196  0.0132 -0.0109 -0.2858
 7713TIP3    H144554   2.053   6.697  17.242  1.7479  0.8100  1.3306
 7713TIP3    H244555   2.134   6.689  17.114 -0.8452  0.2409 -0.3077
 7714TIP3   OH244556   0.701   5.330  11.502 -0.0393  0.0240 -0.1546
 7714TIP3    H144557   0.716   5.319  11.596 -0.8496 -0.0834 -0.0357
 7714TIP3    H244558   0.622   5.385  11.497 -0.0800 -0.0919 -0.7720
 7715TIP3   OH244559   1.193   4.384   1.348  0.3050 -0.6074 -0.4518
 7715TIP3    H144560   1.253   4.316   1.380  0.0220 -0.9007 -0.5464
 7715TIP3    H244561   1.117   4.377   1.405  0.1903 -0.5067 -0.5948
 7716TIP3   OH244562   1.176   4.207  15.730  0.0255 -1.0241 -0.7016
 7716TIP3    H144563   1.182   4.299  15.704  0.9381 -1.2992 -1.5346
 7716TIP3    H244564   1.147   4.209  15.821 -0.1159  0.0855 -0.7675
 7717TIP3   OH244565   0.627   5.977  16.426  0.0041  0.4158  0.0353
 7717TIP3    H144566   0.586   6.051  16.380  0.2239  0.4097 -0.1737
 7717TIP3    H244567   0.700   6.017  16.473  0.4350  0.2531 -0.4903
 7718TIP3   OH244568   4.253   4.890   6.403  0.0674  0.9672  0.5069
 7718TIP3    H144569   4.200   4.963   6.371  0.0909  0.3791 -0.9075
 7718TIP3    H244570   4.196   4.844   6.464 -0.1678  1.7859  0.9149
 7719TIP3   OH244571   2.698   0.682   2.020  0.0009  0.2035  0.1280
 7719TIP3    H144572   2.787   0.698   2.051 -0.2174  0.3070  0.7117
 7719TIP3    H244573   2.710   0.639   1.936  0.6132 -0.9154  0.7766
 7720TIP3   OH244574   2.769   5.038  12.547 -0.3486 -0.4563 -0.1403
 7720TIP3    H144575   2.821   4.962  12.571 -0.4494 -0.7870 -0.9555
 7720TIP3    H244576   2.731   5.016  12.462  0.9654  1.1610 -1.1770
 7721TIP3   OH244577   0.389   2.766  10.622 -0.1092 -0.1392 -0.2703
 7721TIP3    H144578   0.362   2.765  10.714 -1.9207 -1.2497 -0.7875
 7721TIP3    H244579   0.423   2.854  10.608 -0.0113  0.1155  1.3903
 7722TIP3   OH244580   5.859   5.697   1.950  0.1513  0.2846 -0.4885
 7722TIP3    H144581   5.791   5.703   2.017  0.2153 -3.4951 -0.0049
 7722TIP3    H244582   5.836   5.619   1.900  1.2400  1.9115 -3.6785
 7723TIP3   OH244583   4.843   5.821   0.689 -0.5221 -0.3338  0.1199
 7723TIP3    H144584   4.791   5.818   0.770 -2.1340  0.5255 -0.8525
 7723TIP3    H244585   4.785   5.864   0.626  0.5854 -1.3606 -1.5995
 7724TIP3   OH244586   6.585   5.014  11.019  0.1032  0.3554  0.4563
 7724TIP3    H144587   6.493   5.039  11.011 -0.4184 -1.4466  0.6390
 7724TIP3    H244588   6.626   5.048  10.940 -0.8655  0.5437  0.0245
 7725TIP3   OH244589   1.845   3.188  17.239 -0.2718  0.2105  0.2679
 7725TIP3    H144590   1.897   3.227  17.168  0.5034  0.5329  1.0094
 7725TIP3    H244591   1.765   3.158  17.196 -0.3195  1.4531 -0.5417
 7726TIP3   OH244592   2.152   4.977  11.679  0.4705  0.1744 -0.3517
 7726TIP3    H144593   2.131   4.917  11.751 -2.4101  1.7354  0.1667
 7726TIP3    H244594   2.248   4.982  11.680  0.5562 -1.0972  2.3289
 7727TIP3   OH244595   5.220   5.965  16.326 -0.0112  0.2171 -0.1060
 7727TIP3    H144596   5.182   5.883  16.296 -0.2355 -0.4083  1.7974
 7727TIP3    H244597   5.250   5.947  16.415  1.5907  1.6905 -0.3004
 7728TIP3   OH244598   3.554   0.441  16.581  0.5533  0.0155 -0.3762
 7728TIP3    H144599   3.585   0.350  16.573 -1.0144 -0.5931  0.3046
 7728TIP3    H244600   3.504   0.455  16.500  1.7258  0.6591 -0.9999
 7729TIP3   OH244601   0.883   3.400  13.395  0.7545  0.0466 -0.3477
 7729TIP3    H144602   0.817   3.407  13.464  2.2258 -0.5939  1.1725
 7729TIP3    H244603   0.879   3.484  13.349 -0.4268  0.3822  0.3587
 7730TIP3   OH244604   1.928   5.803  14.329 -0.4218  0.4960 -0.0204
 7730TIP3    H144605   1.977   5.880  14.302 -0.8387  0.1359 -1.8830
 7730TIP3    H244606   1.963   5.732  14.276  0.0220 -0.6352  1.7381
 7731TIP3   OH244607   0.515   6.692  16.086  0.3660 -0.1975  0.5660
 7731TIP3    H144608   0.546   6.652  16.005 -0.5151  0.8178 -0.2977
 7731TIP3    H244609   0.582   6.756  16.109 -1.1479  2.2268 -1.4783
 7732TIP3   OH244610   1.182   4.697  12.151  0.4598  0.5611 -0.4774
 7732TIP3    H144611   1.174   4.756  12.226 -0.2691  1.4921 -1.2734
 7732TIP3    H244612   1.261   4.646  12.169 -0.0282  0.3601  1.2022
 7733TIP3   OH244613   0.326   4.565  14.641  0.8506  0.5286 -0.1617
 7733TIP3    H144614   0.378   4.566  14.560 -0.8396  0.6350 -1.2548
 7733TIP3    H244615   0.333   4.655  14.674  1.7808  0.4138 -0.0277
 7734TIP3   OH244616   3.716   4.305   0.379 -0.6852  0.2105 -0.5633
 7734TIP3    H144617   3.801   4.327   0.341 -0.9928  0.5510 -1.0591
 7734TIP3    H244618   3.671   4.389   0.388 -0.8819  0.0552 -0.0905
 7735TIP3   OH244619   4.780   1.907   1.449  0.3085 -0.3404  0.0096
 7735TIP3    H144620   4.803   1.922   1.541  2.2926  0.6595 -0.6278
 7735TIP3    H244621   4.762   1.813   1.443  0.3620 -0.4426  1.3737
 7736TIP3   OH244622   6.248   3.686  16.759  0.6999  0.1145 -0.0368
 7736TIP3    H144623   6.304   3.703  16.684  0.1062 -0.1445 -0.5426
 7736TIP3    H244624   6.163   3.724  16.735  0.4825 -0.0541  0.4612
 7737TIP3   OH244625   1.962   3.116  12.265 -0.0645 -0.3739 -0.0774
 7737TIP3    H144626   2.005   3.072  12.192 -0.1754  2.3476 -1.8308
 7737TIP3    H244627   2.029   3.176  12.300 -0.5227 -0.5077  1.0682
 7738TIP3   OH244628   5.389   0.546   1.480  0.1215  0.3498  0.0171
 7738TIP3    H144629   5.401   0.640   1.499  0.1795  0.1284  1.1388
 7738TIP3    H244630   5.439   0.531   1.400  0.2115  1.2562 -0.1068
 7739TIP3   OH244631   5.078   6.092   1.774 -0.3334 -0.3086  0.1304
 7739TIP3    H144632   5.108   6.044   1.697  1.2325 -0.7790  1.0002
 7739TIP3    H244633   5.025   6.164   1.739 -1.5329 -1.8365 -1.2551
 7740TIP3   OH244634   3.918   0.836   1.800 -0.0028 -0.2838  0.1221
 7740TIP3    H144635   3.910   0.901   1.870  2.3751  1.5594 -1.2793
 7740TIP3    H244636   3.856   0.866   1.733 -0.9776 -1.0743  0.6450
 7741TIP3   OH244637   0.547   2.572   3.963 -1.0335 -0.0561 -0.5433
 7741TIP3    H144638   0.475   2.557   4.024  0.3335  2.1878  1.7165
 7741TIP3    H244639   0.558   2.667   3.961  2.6164 -0.3959  0.1287
 7742TIP3   OH244640   2.337   6.779  12.659  0.4955 -0.2660 -0.4259
 7742TIP3    H144641   2.403   6.847  12.655 -0.8648  1.0758 -0.3752
 7742TIP3    H244642   2.350   6.728  12.579  1.1211  0.4243 -0.7653
 7743TIP3   OH244643   6.160   1.907  13.010  0.0678 -0.8415  0.2227
 7743TIP3    H144644   6.068   1.882  13.014 -0.0582 -0.3607  0.3620
 7743TIP3    H244645   6.163   1.993  13.052  0.5422 -0.7446 -0.0109
 7744TIP3   OH244646   3.727   4.516  12.456  0.2764  0.1918 -0.1375
 7744TIP3    H144647   3.775   4.474  12.385  0.6903  0.6072 -0.1075
 7744TIP3    H244648   3.677   4.585  12.413  0.6556  0.5518 -0.0116
 7745TIP3   OH244649   3.896   0.297   5.978  0.3735 -0.4560 -0.3512
 7745TIP3    H144650   3.940   0.236   6.037 -0.1207  0.0818  0.5810
 7745TIP3    H244651   3.894   0.380   6.026  1.9115  0.5695 -1.9897
 7746TIP3   OH244652   4.115   0.887  15.553  0.1773 -0.0577  0.2597
 7746TIP3    H144653   4.100   0.972  15.595 -1.7510  1.1796 -2.7039
 7746TIP3    H244654   4.207   0.889  15.528  0.2346  1.0641  0.4957
 7747TIP3   OH244655   3.929   5.201   0.670  0.8066 -0.0087  0.2247
 7747TIP3    H144656   3.897   5.274   0.723 -2.9603  0.1540 -2.0553
 7747TIP3    H244657   3.871   5.128   0.694  2.4379 -1.3574  0.1058
 7748TIP3   OH244658   1.155   2.078  11.835  0.3518  0.3144  0.4728
 7748TIP3    H144659   1.234   2.028  11.853 -0.8764 -1.2284  1.7028
 7748TIP3    H244660   1.117   2.095  11.921 -0.1688  1.8638 -0.0427
 7749TIP3   OH244661   4.154   3.874   1.762  0.4657 -0.0928  0.1339
 7749TIP3    H144662   4.127   3.795   1.809 -0.1923 -0.5977 -1.0827
 7749TIP3    H244663   4.249   3.880   1.778 -0.0827  1.0211  3.4169
 7750TIP3   OH244664   0.516   3.082  15.910  0.1425  0.6691 -0.2389
 7750TIP3    H144665   0.490   2.995  15.879  1.9445  0.4838 -1.3451
 7750TIP3    H244666   0.611   3.085  15.894  0.2207  2.5605  0.4779
 7751TIP3   OH244667   4.796   6.345   2.511 -0.2948 -0.0507  0.3399
 7751TIP3    H144668   4.780   6.281   2.441 -0.4976 -0.6265  0.8984
 7751TIP3    H244669   4.760   6.427   2.477  0.0320 -0.2100 -0.4170
 7752TIP3   OH244670   4.019   1.756  16.708  0.2804 -0.3707  0.0381
 7752TIP3    H144671   3.926   1.757  16.688 -0.1170 -1.1806  1.8024
 7752TIP3    H244672   4.054   1.681  16.660  0.0753  0.0622 -0.7976
 7753TIP3   OH244673   2.028   0.686  12.024  0.2463  0.8021 -0.1232
 7753TIP3    H144674   2.082   0.633  12.082 -0.4657 -0.4558 -0.5856
 7753TIP3    H244675   1.938   0.665  12.048 -0.0456  1.6258 -0.4713
 7754TIP3   OH244676   2.530   1.560  15.428 -0.0960  0.0045 -0.6594
 7754TIP3    H144677   2.443   1.549  15.391 -0.0527 -0.5014 -0.6152
 7754TIP3    H244678   2.589   1.527  15.361  0.1436  1.5359 -1.2207
 7755TIP3   OH244679   0.286   1.882  15.378  0.0081 -0.1005  0.2494
 7755TIP3    H144680   0.307   1.945  15.309  0.4314 -0.0271  0.4446
 7755TIP3    H244681   0.321   1.921  15.458 -0.4924 -0.1816  0.5058
 7756TIP3   OH244682   4.000   1.300  15.874 -0.0906 -0.0296 -0.5535
 7756TIP3    H144683   4.077   1.356  15.888 -0.3263 -0.1557  1.3913
 7756TIP3    H244684   3.931   1.359  15.846 -0.2409  0.6378  1.1502
 7757TIP3   OH244685   6.515   5.354   4.064 -0.2529  0.1032 -0.2328
 7757TIP3    H144686   6.426   5.351   4.027 -0.5555  1.1235  0.3990
 7757TIP3    H244687   6.518   5.437   4.111  1.2463  0.3512 -0.7629
 7758TIP3   OH244688   0.606   5.427  16.699  0.0903  0.1665 -0.0910
 7758TIP3    H144689   0.592   5.512  16.656  1.5864 -0.4608 -1.8769
 7758TIP3    H244690   0.520   5.384  16.695 -0.7058  1.6202  0.9246
 7759TIP3   OH244691   0.386   3.130  11.741  0.8631  0.0501 -0.0987
 7759TIP3    H144692   0.431   3.211  11.765  0.5289 -0.2160  1.4460
 7759TIP3    H244693   0.310   3.126  11.799  0.7538 -1.2538 -0.3079
 7760TIP3   OH244694   0.888   4.037  16.418  0.2802  0.0336 -0.2184
 7760TIP3    H144695   0.806   4.067  16.458  1.0840  2.8932 -0.5884
 7760TIP3    H244696   0.878   3.942  16.411 -2.4256  0.1748  1.0091
 7761TIP3   OH244697   1.443   1.394  16.900 -0.2422  0.2509  0.0803
 7761TIP3    H144698   1.446   1.298  16.904  2.2116  0.1254 -2.4633
 7761TIP3    H244699   1.389   1.413  16.824  2.4458  0.7235 -1.7815
 7762TIP3   OH244700   5.822   0.133   5.612  0.6346 -0.5642  0.4484
 7762TIP3    H144701   5.759   0.181   5.666  1.9589  0.9261  0.7185
 7762TIP3    H244702   5.889   0.198   5.589  1.5603 -1.8622 -0.6594
 7763TIP3   OH244703   0.349   3.272   5.911  0.1425  0.1563 -0.0965
 7763TIP3    H144704   0.398   3.211   5.966 -0.9031  1.1049  1.9513
 7763TIP3    H244705   0.262   3.235   5.905 -0.5020  1.4150  1.1714
 7764TIP3   OH244706   1.187   0.741  15.186 -0.0077 -0.1837 -0.4699
 7764TIP3    H144707   1.152   0.701  15.106 -1.3459 -2.4253  1.1894
 7764TIP3    H244708   1.250   0.678  15.219  2.7038  2.0233 -1.2388
 7765TIP3   OH244709   2.284   2.086   3.131  0.0823  0.2192 -0.7641
 7765TIP3    H144710   2.218   2.051   3.190 -1.2430  1.5134 -1.4389
 7765TIP3    H244711   2.359   2.107   3.187 -0.4733 -0.2868  0.1620
 7766TIP3   OH244712   6.050   3.950  14.639  0.3505  0.3685  0.2823
 7766TIP3    H144713   5.955   3.951  14.649  0.5323  0.4496  2.3338
 7766TIP3    H244714   6.073   4.042  14.624  0.2039  0.5423  1.0754
 7767TIP3   OH244715   6.604   4.601  11.885  0.3508  0.4652 -0.4377
 7767TIP3    H144716   6.526   4.586  11.831 -0.5884 -3.6460  1.7725
 7767TIP3    H244717   6.573   4.654  11.958 -0.7193 -1.9688  0.9449
 7768TIP3   OH244718   5.248   5.067   3.440  0.0507 -0.9237  0.5382
 7768TIP3    H144719   5.227   5.052   3.348 -1.0124 -1.3576  0.8383
 7768TIP3    H244720   5.226   4.984   3.483  1.1021 -0.9216  1.0917
 7769TIP3   OH244721   3.158   5.418   2.504 -0.4627  0.5157 -0.3309
 7769TIP3    H144722   3.250   5.411   2.479 -0.5534  1.0025 -0.8177
 7769TIP3    H244723   3.160   5.460   2.590 -0.2872  1.8883 -0.9909
 7770TIP3   OH244724   2.522   2.234  15.479 -0.0810 -0.3612 -0.2187
 7770TIP3    H144725   2.541   2.301  15.545 -2.8229  1.1508 -0.8774
 7770TIP3    H244726   2.472   2.280  15.411 -1.1821 -2.8372 -1.1678
 7771TIP3   OH244727   2.439   3.024  10.374 -0.1358 -0.6476 -0.1287
 7771TIP3    H144728   2.498   2.950  10.359 -0.1643 -0.6179 -0.3895
 7771TIP3    H244729   2.492   3.086  10.425  0.2416 -0.3793 -0.8418
 7772TIP3   OH244730   4.980   0.129   6.359  0.0609 -0.0529  0.3484
 7772TIP3    H144731   4.942   0.077   6.429  1.8586 -0.5535  0.9554
 7772TIP3    H244732   4.936   0.098   6.279  0.7366 -2.0948  0.7711
 7773TIP3   OH244733   1.157   5.426  14.691 -0.5616 -0.0741  0.5740
 7773TIP3    H144734   1.246   5.414  14.658 -0.0408 -0.0294  1.9588
 7773TIP3    H244735   1.112   5.344  14.670  0.5355 -1.1134  2.1787
 7774TIP3   OH244736   5.905   2.819   2.275 -0.0284  0.0011 -0.1766
 7774TIP3    H144737   5.825   2.838   2.324  0.2964 -0.0765  0.3943
 7774TIP3    H244738   5.929   2.731   2.302  0.5574  0.2386  0.0875
 7775TIP3   OH244739   1.693   5.096   0.022 -0.5888  0.0246 -0.1186
 7775TIP3    H144740   1.763   5.106  -0.043 -0.7521 -1.5448 -0.5781
 7775TIP3    H244741   1.731   5.039   0.089 -0.0591  2.5192  1.7479
 7776TIP3   OH244742   5.033   4.115  13.641  0.4869  0.3248 -0.0948
 7776TIP3    H144743   5.034   4.060  13.563  1.3679  1.6043 -1.0178
 7776TIP3    H244744   5.124   4.143  13.652  0.4816 -0.3096  1.7474
 7777TIP3   OH244745   2.288   0.252  11.291 -0.5071  0.2471  0.1106
 7777TIP3    H144746   2.303   0.194  11.216 -0.0599 -0.5151  0.7704
 7777TIP3    H244747   2.265   0.336  11.253 -1.2029 -0.3817 -0.8735
 7778TIP3   OH244748   2.855   0.191  11.472  0.1672  0.2071  0.4601
 7778TIP3    H144749   2.805   0.113  11.497 -0.2422  0.7568  1.3678
 7778TIP3    H244750   2.899   0.217  11.553 -1.5199  2.2771  0.7371
 7779TIP3   OH244751   5.370   5.071  14.119  0.6232  0.4378 -0.1653
 7779TIP3    H144752   5.322   5.075  14.036 -1.5615  1.6825  1.1282
 7779TIP3    H244753   5.380   4.977  14.137 -0.8588  0.1721 -0.7149
 7780TIP3   OH244754   6.357   1.195  16.290  0.3558  0.4057  0.0829
 7780TIP3    H144755   6.326   1.166  16.205  0.6841  0.9067 -0.2134
 7780TIP3    H244756   6.400   1.279  16.272  1.2614  0.0540  0.5939
 7781TIP3   OH244757   1.543   5.607   5.382 -0.6111 -0.4775  0.3455
 7781TIP3    H144758   1.535   5.699   5.405 -1.7559 -0.2333 -0.9294
 7781TIP3    H244759   1.628   5.580   5.418 -0.3893  0.9926  0.9594
 7782TIP3   OH244760   0.316   3.901  12.158 -0.3591  0.0586 -0.5436
 7782TIP3    H144761   0.352   3.932  12.241 -4.3616  0.4019  1.1867
 7782TIP3    H244762   0.313   3.979  12.103 -2.1788  0.9084  0.7199
 7783TIP3   OH244763   2.964   3.135  13.610  0.1179 -0.1797  0.0006
 7783TIP3    H144764   2.897   3.168  13.669 -1.4849  1.2825 -2.5348
 7783TIP3    H244765   3.038   3.196  13.621 -0.4361  0.4980 -0.0207
 7784TIP3   OH244766   4.511   6.227   2.425 -0.3972  0.1194  0.1576
 7784TIP3    H144767   4.517   6.320   2.448  0.3026 -0.2254  1.4310
 7784TIP3    H244768   4.602   6.197   2.422 -0.5949 -0.3842 -0.8432
 7785TIP3   OH244769   3.461   4.621  15.537  0.4664 -0.0815  0.7736
 7785TIP3    H144770   3.509   4.686  15.486  0.2248  1.0369  1.9438
 7785TIP3    H244771   3.451   4.546  15.478  0.2871  1.1467 -0.7691
 7786TIP3   OH244772   6.701   1.241   5.365 -0.3170 -0.0585 -0.5232
 7786TIP3    H144773   6.656   1.171   5.413  1.2202 -0.2870  0.6191
 7786TIP3    H244774   6.689   1.319   5.419  0.9982 -0.2096 -0.0023
 7787TIP3   OH244775   0.211   5.153   2.198 -0.1824 -0.0732  0.2118
 7787TIP3    H144776   0.207   5.147   2.294  0.1795 -0.0155  0.2281
 7787TIP3    H244777   0.125   5.187   2.173 -0.4067 -0.4325  0.4914
 7788TIP3   OH244778   2.797   5.470  11.646  0.1543  0.7618  0.0044
 7788TIP3    H144779   2.890   5.464  11.623  0.4637  1.2340  1.1446
 7788TIP3    H244780   2.770   5.555  11.613  0.4818  1.2390  0.9697
 7789TIP3   OH244781   4.058   2.241  16.020 -0.7056 -0.2714 -0.3024
 7789TIP3    H144782   4.135   2.238  15.963 -0.8398  1.6800 -0.5964
 7789TIP3    H244783   3.993   2.291  15.971 -2.2265 -1.9722 -0.0899
 7790TIP3   OH244784   4.574   5.382   1.505 -0.4307  0.4830 -0.3721
 7790TIP3    H144785   4.561   5.314   1.571 -1.1790 -0.8631 -1.8744
 7790TIP3    H244786   4.511   5.360   1.436 -0.4281  2.5022 -1.0336
 7791TIP3   OH244787   3.245   0.382  12.405 -1.0117  0.2437 -0.2898
 7791TIP3    H144788   3.239   0.407  12.313 -2.3216 -2.0271 -0.8748
 7791TIP3    H244789   3.240   0.287  12.404  2.4200 -0.0199  1.9272
 7792TIP3   OH244790   1.657   3.457  15.524  0.1335 -0.3926  0.4341
 7792TIP3    H144791   1.614   3.502  15.451  0.7887 -0.1111  0.2179
 7792TIP3    H244792   1.644   3.514  15.599  1.5831  0.5183  0.0068
 7793TIP3   OH244793   2.128   4.225   4.675 -0.5531 -0.2920 -0.2911
 7793TIP3    H144794   2.157   4.152   4.728  0.5351 -0.8390 -1.6102
 7793TIP3    H244795   2.067   4.273   4.731  0.0728 -1.2141  1.1968
 7794TIP3   OH244796   2.452   5.616  17.211  0.2255  0.3290 -0.9790
 7794TIP3    H144797   2.368   5.660  17.194  0.6012  1.3771 -0.2024
 7794TIP3    H244798   2.477   5.580  17.126 -1.3559 -0.6280 -1.0721
 7795TIP3   OH244799   3.595   0.276   1.712 -0.0138 -0.1207 -0.0647
 7795TIP3    H144800   3.567   0.195   1.670 -0.9462 -1.4025  2.8909
 7795TIP3    H244801   3.526   0.339   1.692 -0.7214 -0.8748 -0.0090
 7796TIP3   OH244802   2.883   3.527  10.912 -0.3997 -0.6435  0.7840
 7796TIP3    H144803   2.809   3.585  10.899  1.1561  1.3682  0.7393
 7796TIP3    H244804   2.919   3.551  10.998  2.1955  0.7598 -0.6204
 7797TIP3   OH244805   1.541   0.317  14.950 -0.0847 -0.5556  0.2702
 7797TIP3    H144806   1.558   0.305  15.043 -1.2943  0.1962  0.5894
 7797TIP3    H244807   1.622   0.289  14.907  0.3571 -1.2225  1.5186
 7798TIP3   OH244808   2.253   3.909  14.331 -0.6984  0.0518 -0.1015
 7798TIP3    H144809   2.241   3.950  14.245 -0.0573  1.3672  0.4124
 7798TIP3    H244810   2.271   3.817  14.312 -0.3437  0.3792 -1.3856
 7799TIP3   OH244811   4.134   3.798   3.050  0.3663 -0.3636  0.0014
 7799TIP3    H144812   4.174   3.711   3.055  2.1830  0.4323 -0.1953
 7799TIP3    H244813   4.118   3.822   3.141 -0.4160 -1.0177  0.0444
 7800TIP3   OH244814   2.383   4.808   6.231 -0.1934 -0.2228 -0.3949
 7800TIP3    H144815   2.463   4.756   6.238 -0.7794 -1.1143 -0.2846
 7800TIP3    H244816   2.359   4.828   6.322  0.4969  0.9598 -0.4698
 7801TIP3   OH244817   0.840   4.051   4.304 -0.9888  0.2825 -0.3773
 7801TIP3    H144818   0.803   4.129   4.263  0.4918 -0.1920 -2.7693
 7801TIP3    H244819   0.909   4.023   4.243  0.3358 -1.3158  1.7914
 7802TIP3   OH244820   4.235   3.801  12.098 -0.0065 -0.0670  0.6205
 7802TIP3    H144821   4.267   3.890  12.084  0.5259 -0.3798 -0.2104
 7802TIP3    H244822   4.311   3.753  12.130  0.3203 -0.7459 -1.0932
 7803TIP3   OH244823   0.562   0.741  17.156 -0.4839  0.1962 -0.2112
 7803TIP3    H144824   0.574   0.835  17.172 -2.2928  0.4665 -0.3623
 7803TIP3    H244825   0.480   0.736  17.108 -1.1207 -1.5854  1.0368
 7804TIP3   OH244826   6.090   3.021   0.081  0.1760  0.2413  0.2689
 7804TIP3    H144827   6.051   2.969   0.151  1.7357 -0.5558  0.5658
 7804TIP3    H244828   6.118   3.102   0.124 -1.3589  0.9247  0.0030
 7805TIP3   OH244829   5.793   2.454   3.439  0.2606 -0.2313  0.0387
 7805TIP3    H144830   5.888   2.451   3.456  0.3339 -1.0142 -0.4371
 7805TIP3    H244831   5.780   2.535   3.390  0.4677  0.5893  1.3272
 7806TIP3   OH244832   5.236   4.195  14.867  0.4735  0.2182 -0.2206
 7806TIP3    H144833   5.278   4.272  14.829 -0.2530  0.5133 -0.4523
 7806TIP3    H244834   5.290   4.121  14.840  1.3663  0.6857  0.2892
 7807TIP3   OH244835   1.654   5.088  16.921  0.6656 -0.0344 -0.7372
 7807TIP3    H144836   1.688   5.082  16.832  1.5710  0.3857 -0.4284
 7807TIP3    H244837   1.732   5.095  16.976  0.0929  0.4844  0.0234
 7808TIP3   OH244838   3.588   2.965  14.855  0.4808  0.2865  0.2633
 7808TIP3    H144839   3.517   2.987  14.795 -1.4352 -1.9391  1.6003
 7808TIP3    H244840   3.579   3.028  14.927  0.5731  0.7344 -0.1186
 7809TIP3   OH244841   4.517   6.120  12.249  0.3537 -0.1162 -0.3921
 7809TIP3    H144842   4.482   6.058  12.313  0.5903 -0.2001 -0.3412
 7809TIP3    H244843   4.444   6.177  12.228 -0.0027 -0.7410 -0.8385
 7810TIP3   OH244844   1.481   2.889   1.005 -0.0474 -0.5019 -0.6825
 7810TIP3    H144845   1.465   2.976   1.041 -1.0003 -0.4755 -1.1436
 7810TIP3    H244846   1.394   2.849   1.001  0.2803 -1.1692 -1.2423
 7811TIP3   OH244847   3.419   1.224  12.446  0.0781  0.0152  0.3109
 7811TIP3    H144848   3.436   1.210  12.353  0.6814  0.2809  0.3818
 7811TIP3    H244849   3.331   1.189  12.459  0.1318 -0.3578 -0.2811
 7812TIP3   OH244850   0.738   4.399   1.196  0.3383  0.6120  0.4470
 7812TIP3    H144851   0.652   4.404   1.155  0.2639 -0.4018  0.4619
 7812TIP3    H244852   0.783   4.478   1.168 -0.1901  0.5794 -0.5075
 7813TIP3   OH244853   3.739   1.764   1.766  0.2573  0.4720  0.2200
 7813TIP3    H144854   3.819   1.798   1.728  0.3144 -1.1701 -1.1988
 7813TIP3    H244855   3.703   1.837   1.816  3.1545  0.9531  1.7428
 7814TIP3   OH244856   1.909   5.699  16.312 -0.1325 -0.1912  0.0786
 7814TIP3    H144857   1.825   5.718  16.270 -0.8924 -1.0899  1.1597
 7814TIP3    H244858   1.951   5.784  16.321 -1.6276  0.4623  0.9708
 7815TIP3   OH244859   5.242   1.600  12.551 -0.2678  0.0176  0.3652
 7815TIP3    H144860   5.335   1.614  12.533 -0.0628 -0.4973  0.9810
 7815TIP3    H244861   5.237   1.591  12.646 -0.6214 -2.2160  0.1745
 7816TIP3   OH244862   1.224   1.739  12.083  0.4625  0.2307 -0.0010
 7816TIP3    H144863   1.152   1.708  12.029  0.6301 -1.1493  0.5435
 7816TIP3    H244864   1.262   1.659  12.120  0.7597  1.1053  1.6104
 7817TIP3   OH244865   0.495   5.390  15.140 -0.1120 -0.2362  0.0413
 7817TIP3    H144866   0.471   5.477  15.171 -0.9518 -0.9221  1.4116
 7817TIP3    H244867   0.513   5.401  15.047  0.4170  1.5117  0.3284
 7818TIP3   OH244868   6.478   4.271   0.886 -0.2580  0.2852 -0.4557
 7818TIP3    H144869   6.447   4.181   0.894 -0.7681  0.2909 -2.1954
 7818TIP3    H244870   6.480   4.303   0.976  1.1889 -1.8672  0.3233
 7819TIP3   OH244871   5.999   4.062   5.973  0.1013 -0.0810  0.5235
 7819TIP3    H144872   6.041   4.095   5.893 -0.8727 -1.8583 -0.7565
 7819TIP3    H244873   6.070   4.056   6.037  1.2400 -0.2871 -0.7349
 7820TIP3   OH244874   1.670   5.719  16.190  0.2408 -0.3358  0.2772
 7820TIP3    H144875   1.615   5.766  16.127  1.0602  1.3346  0.7842
 7820TIP3    H244876   1.608   5.678  16.250 -0.5037 -0.4001 -0.5278
 7821TIP3   OH244877   4.860   4.532  14.690 -0.1678  0.0679 -0.1829
 7821TIP3    H144878   4.835   4.621  14.717  0.8206  0.6311 -1.0648
 7821TIP3    H244879   4.792   4.505  14.629 -0.2615  0.3806 -0.2190
 7822TIP3   OH244880   3.390   2.983   4.542 -0.1320  0.2978  0.4332
 7822TIP3    H144881   3.355   3.009   4.627 -0.0050 -0.7550  0.8087
 7822TIP3    H244882   3.410   2.890   4.551 -1.1540 -0.0808 -1.0988
 7823TIP3   OH244883   0.726   0.845  13.292  0.2900 -0.1805 -0.4480
 7823TIP3    H144884   0.740   0.868  13.201  2.3654 -0.4246 -0.2194
 7823TIP3    H244885   0.703   0.752  13.291 -0.8642  0.1037 -0.8004
 7824TIP3   OH244886   5.281   3.385   5.839  0.2222  0.1641  0.3041
 7824TIP3    H144887   5.261   3.409   5.929  2.0029  1.3282  0.4194
 7824TIP3    H244888   5.310   3.466   5.798 -2.9991  0.2205 -2.0878
 7825TIP3   OH244889   4.027   2.321   2.694  0.4419  0.0742  0.1264
 7825TIP3    H144890   3.974   2.241   2.695 -0.9300  0.9637  2.1700
 7825TIP3    H244891   4.027   2.349   2.602 -1.5318 -0.6769 -0.1250
 7826TIP3   OH244892   3.664   1.323  16.278  0.5246  0.2203 -0.2051
 7826TIP3    H144893   3.663   1.327  16.183  0.8590 -1.8779 -0.3091
 7826TIP3    H244894   3.595   1.260  16.301 -0.1330  1.3357  0.9790
 7827TIP3   OH244895   1.070   4.359  14.184  0.2274  0.0037  0.0148
 7827TIP3    H144896   1.034   4.381  14.098  1.1192  2.0208  0.1373
 7827TIP3    H244897   0.995   4.366  14.243  0.0209  0.5357 -0.3013
 7828TIP3   OH244898   4.382   5.913  13.378  0.5062 -0.1743 -0.2122
 7828TIP3    H144899   4.312   5.964  13.420 -0.2880 -0.4808 -1.1369
 7828TIP3    H244900   4.351   5.822  13.383  1.3391 -0.4344  0.3225
 7829TIP3   OH244901   4.494   2.197  13.275  0.1473  0.1735  0.7728
 7829TIP3    H144902   4.412   2.148  13.280  0.4827 -0.2227  2.6610
 7829TIP3    H244903   4.467   2.289  13.270 -0.4295 -0.0396 -0.1756
 7830TIP3   OH244904   1.575   0.217   3.122 -0.7012 -0.5408 -0.5361
 7830TIP3    H144905   1.652   0.198   3.069  0.1654  1.9433 -0.2520
 7830TIP3    H244906   1.542   0.131   3.149  2.5492 -1.6387  0.1550
 7831TIP3   OH244907   3.156   3.278  12.696  0.7561  0.0850  0.4439
 7831TIP3    H144908   3.220   3.288  12.625 -0.1941  1.0803 -0.2997
 7831TIP3    H244909   3.087   3.224  12.658  0.3792  0.3865  0.6977
 7832TIP3   OH244910   6.372   3.783  13.995 -0.3307 -0.8484  0.0154
 7832TIP3    H144911   6.376   3.826  14.081 -0.6735  0.1081 -0.4561
 7832TIP3    H244912   6.301   3.719  14.003 -1.2961  0.2223 -0.0165
 7833TIP3   OH244913   0.548   6.730  10.609 -0.1257 -0.4246  0.2627
 7833TIP3    H144914   0.585   6.642  10.613  2.1817  0.5104  0.4717
 7833TIP3    H244915   0.510   6.745  10.696  0.1396 -0.9417  0.4642
 7834TIP3   OH244916   3.406   2.498   3.573 -0.0245 -0.0287  0.3296
 7834TIP3    H144917   3.354   2.567   3.614  0.7178  1.6152 -1.4402
 7834TIP3    H244918   3.418   2.433   3.642  0.8439  2.4733  2.6096
 7835TIP3   OH244919   2.087   1.435  14.717 -0.2010  0.4163 -0.2013
 7835TIP3    H144920   2.066   1.488  14.640  1.9671  0.0556 -1.0539
 7835TIP3    H244921   2.169   1.472  14.750 -0.6484 -0.0159  1.4057
 7836TIP3   OH244922   3.618   4.104  13.603  0.2921 -0.0046 -0.3545
 7836TIP3    H144923   3.574   4.040  13.546 -2.6875  0.6255  1.1453
 7836TIP3    H244924   3.611   4.186  13.555 -0.5042  0.1589  0.0306
 7837TIP3   OH244925   5.133   6.065   2.317 -0.0844 -0.0639  0.0695
 7837TIP3    H144926   5.160   6.109   2.237  1.0482 -0.7116  0.0803
 7837TIP3    H244927   5.160   5.974   2.305  0.1474 -0.1559  1.1950
 7838TIP3   OH244928   3.456   1.307  11.415  0.0348 -0.3060 -0.0717
 7838TIP3    H144929   3.513   1.261  11.353  3.2306  1.2573  1.5467
 7838TIP3    H244930   3.391   1.351  11.361  2.7155  1.0016 -2.3604
 7839TIP3   OH244931   1.313   4.915  11.177  0.0833  0.5317 -0.1932
 7839TIP3    H144932   1.326   4.856  11.103 -1.0380  0.2808 -0.1929
 7839TIP3    H244933   1.242   4.876  11.227 -0.1100  1.4413  0.2536
 7840TIP3   OH244934   5.571   4.950   1.321 -0.0466 -0.3025 -0.0111
 7840TIP3    H144935   5.559   5.036   1.361 -0.2540 -0.7563  0.9191
 7840TIP3    H244936   5.497   4.941   1.261 -1.2141 -0.6936  1.4525
 7841TIP3   OH244937   4.757   0.286  12.339  0.5612 -0.6743  0.4925
 7841TIP3    H144938   4.679   0.236  12.313 -0.1345  0.0565  1.1510
 7841TIP3    H244939   4.806   0.298  12.257 -0.8755  0.3423 -0.2383
 7842TIP3   OH244940   5.142   4.232   2.600  0.1174 -0.5308  0.3250
 7842TIP3    H144941   5.086   4.202   2.529  0.9303 -1.7789  0.1986
 7842TIP3    H244942   5.154   4.155   2.656  2.1460 -0.4690  0.0411
 7843TIP3   OH244943   4.999   1.842   6.095  0.0500 -0.5358  0.4934
 7843TIP3    H144944   5.082   1.801   6.070 -0.2480 -0.2673 -0.9551
 7843TIP3    H244945   4.938   1.819   6.025 -0.8892 -0.0400  1.1327
 7844TIP3   OH244946   3.377   1.720  16.968 -0.4093  0.2316 -0.6605
 7844TIP3    H144947   3.310   1.651  16.969 -1.7612  1.5135  1.3094
 7844TIP3    H244948   3.326   1.802  16.964  1.1687  1.1553 -3.3509
 7845TIP3   OH244949   4.387   3.885   0.376 -0.3522  0.8831 -0.1262
 7845TIP3    H144950   4.327   3.955   0.401 -0.6650  0.5446  0.0713
 7845TIP3    H244951   4.339   3.804   0.395  0.0842  0.6152 -0.1600
 7846TIP3   OH244952   5.753   0.849  13.321  0.0129  0.0959 -0.0000
 7846TIP3    H144953   5.842   0.818  13.334  1.2146  2.9294 -1.0617
 7846TIP3    H244954   5.738   0.912  13.392 -0.3186  1.3174 -1.1405
 7847TIP3   OH244955   6.188   5.430  13.875 -0.0247  0.0101  0.0530
 7847TIP3    H144956   6.176   5.337  13.856  0.8236 -0.2141  0.5573
 7847TIP3    H244957   6.192   5.472  13.789 -1.6584 -0.2489 -0.1532
 7848TIP3   OH244958   1.413   6.630   1.353  0.2682 -0.2846  0.2488
 7848TIP3    H144959   1.341   6.674   1.307  2.5980 -0.4178 -3.7394
 7848TIP3    H244960   1.484   6.694   1.351  1.1090 -1.1723  1.7352
 7849TIP3   OH244961   1.351   4.638   5.258  1.0145 -0.3961  0.1652
 7849TIP3    H144962   1.440   4.640   5.293  1.0524 -0.4157  0.0703
 7849TIP3    H244963   1.356   4.688   5.177  0.1422  2.8309  1.9935
 7850TIP3   OH244964   1.227   4.398   1.739  0.3435  0.3210 -0.3205
 7850TIP3    H144965   1.222   4.354   1.823  0.3065  0.1603 -0.4072
 7850TIP3    H244966   1.150   4.368   1.691 -0.2765  1.3308  0.0339
 7851TIP3   OH244967   3.314   0.394   0.245 -0.0167 -0.2619  0.1804
 7851TIP3    H144968   3.396   0.401   0.295  1.2288  0.1903 -1.8644
 7851TIP3    H244969   3.295   0.301   0.243  1.7293 -0.6036 -1.3032
 7852TIP3   OH244970   1.104   5.357   5.249  0.0647  0.2660  0.4063
 7852TIP3    H144971   1.195   5.360   5.278  0.3958  0.6932 -0.6551
 7852TIP3    H244972   1.060   5.425   5.301  0.7506  1.3403 -0.3770
 7853TIP3   OH244973   5.502   5.657  11.519 -0.5780  0.3131 -0.0053
 7853TIP3    H144974   5.472   5.646  11.610  1.5228  0.3011  0.6995
 7853TIP3    H244975   5.423   5.642  11.467 -1.1470 -2.9797  1.6624
 7854TIP3   OH244976   0.854   2.587   1.606  0.0806  0.3070 -0.4938
 7854TIP3    H144977   0.923   2.551   1.550  0.0659 -0.2574 -0.1610
 7854TIP3    H244978   0.773   2.550   1.571  0.0232  0.3458 -0.4021
 7855TIP3   OH244979   6.134   1.906   3.886 -0.4453  0.0454  0.1366
 7855TIP3    H144980   6.075   1.911   3.961 -0.8372 -1.6285 -0.0255
 7855TIP3    H244981   6.076   1.897   3.811 -0.0071 -0.6297 -0.1212
 7856TIP3   OH244982   4.187   4.412   4.786  0.0807 -0.1704 -0.4868
 7856TIP3    H144983   4.160   4.461   4.864  0.8011 -0.5696  0.0225
 7856TIP3    H244984   4.134   4.447   4.716  1.3424  2.1369 -0.3404
 7857TIP3   OH244985   0.577   2.703  12.873 -0.1723  0.3871  0.1521
 7857TIP3    H144986   0.580   2.771  12.806 -1.4643  0.5973  0.3004
 7857TIP3    H244987   0.596   2.622  12.826  0.1942  0.6957 -0.2362
 7858TIP3   OH244988   4.381   5.627   1.471  0.0864 -1.1043  0.2019
 7858TIP3    H144989   4.431   5.582   1.404  1.3534  0.5452  0.0088
 7858TIP3    H244990   4.444   5.645   1.541 -1.5452 -4.1572  2.5739
 7859TIP3   OH244991   1.096   3.029   5.972 -0.6399 -0.1069  0.0114
 7859TIP3    H144992   1.104   2.956   6.033 -2.4580 -0.5846 -0.2972
 7859TIP3    H244993   1.096   3.107   6.028 -0.2770 -0.4316  0.4609
 7860TIP3   OH244994   2.146   0.185  14.833  0.0466 -0.8338  0.4498
 7860TIP3    H144995   2.103   0.242  14.896 -0.3140 -2.8702  2.0807
 7860TIP3    H244996   2.240   0.203  14.844 -0.0999 -0.1527  0.5566
 7861TIP3   OH244997   1.400   4.774   2.946 -0.1710  0.6439  0.4610
 7861TIP3    H144998   1.445   4.708   2.894 -1.8724 -1.9085  2.1123
 7861TIP3    H244999   1.337   4.724   2.998 -1.1660  3.5351  2.1187
 7862TIP3   OH245000   0.542   3.419  16.171 -0.1670 -0.2451 -0.0478
 7862TIP3    H145001   0.586   3.334  16.172  0.0513 -0.1261  0.3271
 7862TIP3    H245002   0.451   3.398  16.152 -0.0742 -0.5454 -0.1698
 7863TIP3   OH245003   5.320   2.967   1.494 -0.0431 -0.1418 -0.5608
 7863TIP3    H145004   5.233   2.926   1.496 -0.5100  0.8859  1.4858
 7863TIP3    H245005   5.380   2.896   1.513 -0.4038 -0.9398 -2.3613
 7864TIP3   OH245006   5.565   6.644  11.817  0.3415  0.2701 -0.3688
 7864TIP3    H145007   5.491   6.705  11.820  0.3035  0.1819  0.9010
 7864TIP3    H245008   5.556   6.593  11.898  0.9273 -0.7585 -0.9484
 7865TIP3   OH245009   1.466   0.327  16.129 -0.1850 -0.4328 -0.4517
 7865TIP3    H145010   1.517   0.251  16.101  0.8664  1.1404 -2.9815
 7865TIP3    H245011   1.417   0.354  16.051  0.7218  2.4509 -0.0927
 7866TIP3   OH245012   6.449   3.589  17.130  0.2610  0.3994 -0.2644
 7866TIP3    H145013   6.497   3.542  17.061  0.2168 -0.2523  0.1476
 7866TIP3    H245014   6.422   3.671  17.089  1.9296  0.8815 -0.4499
 7867TIP3   OH245015   0.353   4.426   4.880  0.0184  0.7788 -0.2351
 7867TIP3    H145016   0.418   4.386   4.938 -2.8130 -1.5736  1.4542
 7867TIP3    H245017   0.340   4.514   4.915  0.2343  0.2854  1.1023
 7868TIP3   OH245018   2.071   0.251   5.391 -0.1221  0.0331  0.1584
 7868TIP3    H145019   2.079   0.303   5.471  0.3453  2.6489 -1.5674
 7868TIP3    H245020   2.147   0.193   5.393 -0.0944  0.0857  1.5835
 7869TIP3   OH245021   1.933   3.321  12.588  0.0295 -0.0612 -0.3788
 7869TIP3    H145022   1.867   3.294  12.525  0.1214 -0.2394 -0.3984
 7869TIP3    H245023   1.923   3.416  12.596 -1.7572 -0.3587  1.3208
 7870TIP3   OH245024   3.069   1.947  11.847 -0.2128 -0.3391  0.1881
 7870TIP3    H145025   3.112   1.865  11.825  0.2504 -0.0720  0.0905
 7870TIP3    H245026   3.032   1.933  11.934  1.2470 -0.1224  0.8656
 7871TIP3   OH245027   4.602   2.074  17.144  0.5157 -0.4863 -0.0248
 7871TIP3    H145028   4.631   2.160  17.113 -0.3467 -0.4475 -0.7411
 7871TIP3    H245029   4.506   2.076  17.135  0.4487 -1.3437  0.4162
 7872TIP3   OH245030   0.208   4.790  16.679  0.9431  0.2090 -0.0074
 7872TIP3    H145031   0.156   4.736  16.620 -0.0492  1.5104 -0.3701
 7872TIP3    H245032   0.246   4.729  16.742  0.8585 -1.0284 -1.1462
 7873TIP3   OH245033   6.092   6.164  14.202  0.3238 -0.3360  0.2003
 7873TIP3    H145034   6.051   6.244  14.170 -2.3510 -1.7044  0.0829
 7873TIP3    H245035   6.123   6.119  14.123  0.4677 -0.1462  0.1467
 7874TIP3   OH245036   5.545   2.007   4.240 -0.7169  0.9942  0.2390
 7874TIP3    H145037   5.523   1.917   4.265 -0.5794  0.5250 -1.2889
 7874TIP3    H245038   5.543   2.056   4.323 -0.3932 -0.4854  1.1371
 7875TIP3   OH245039   0.983   0.689   3.577 -0.5795  0.0985  0.0553
 7875TIP3    H145040   0.970   0.716   3.667 -2.2921  1.0355 -0.4525
 7875TIP3    H245041   0.978   0.593   3.579 -1.7949  0.1720  0.7804
 7876TIP3   OH245042   3.129   6.311   3.372  0.0089 -0.2650  0.1895
 7876TIP3    H145043   3.200   6.329   3.310 -0.0243  0.0354  0.2419
 7876TIP3    H245044   3.155   6.229   3.415  1.2631  0.8586  1.5946
 7877TIP3   OH245045   4.992   5.736   2.557 -0.1744  0.1543 -0.0139
 7877TIP3    H145046   4.905   5.775   2.562 -0.1241  0.5040 -1.4959
 7877TIP3    H245047   5.045   5.789   2.617 -0.3716  1.6567 -1.1373
 7878TIP3   OH245048   1.877   1.068  14.014  0.4048  0.1599  0.4377
 7878TIP3    H145049   1.964   1.031  13.999  0.0875  0.3874 -2.2734
 7878TIP3    H245050   1.821   0.993  14.030  0.6606 -0.1645 -0.1894
 7879TIP3   OH245051   5.371   1.443   3.345 -0.0016  0.6956 -0.4088
 7879TIP3    H145052   5.278   1.439   3.365  0.1511  0.1728  0.2130
 7879TIP3    H245053   5.413   1.399   3.418  0.7788  1.4564 -0.3897
 7880TIP3   OH245054   1.476   0.761  11.437 -0.0152  0.7934 -0.0565
 7880TIP3    H145055   1.561   0.727  11.409  0.2120  1.0194  0.3572
 7880TIP3    H245056   1.497   0.823  11.507 -0.6837 -0.7599  1.5377
 7881TIP3   OH245057   1.428   1.841   5.496 -0.4900  0.2717  0.3624
 7881TIP3    H145058   1.447   1.786   5.420  1.7297 -0.2833  1.2811
 7881TIP3    H245059   1.480   1.920   5.482 -2.5134  1.5466 -0.2165
 7882TIP3   OH245060   4.166   2.052  17.154 -0.2954 -0.2618  0.2624
 7882TIP3    H145061   4.162   1.968  17.200 -2.1136  0.4403  1.4789
 7882TIP3    H245062   4.160   2.030  17.061 -0.0928 -1.5171  0.5448
 7883TIP3   OH245063   4.433   3.502  14.334 -0.0905  0.0271 -0.0486
 7883TIP3    H145064   4.497   3.553  14.383  0.6240  0.3060 -1.2572
 7883TIP3    H245065   4.480   3.422  14.309 -0.2667  0.1673 -0.8211
 7884TIP3   OH245066   3.008   3.817   1.366  0.0886  0.0524  0.0547
 7884TIP3    H145067   3.051   3.732   1.374  2.6615  1.1590 -1.2812
 7884TIP3    H245068   2.979   3.837   1.455  2.6448 -0.6431  1.1102
 7885TIP3   OH245069   5.367   3.991   4.014 -0.2822  0.8430  0.1927
 7885TIP3    H145070   5.449   3.955   4.048 -1.2420 -1.3070  0.2889
 7885TIP3    H245071   5.379   3.992   3.919  0.2514  1.5541  0.2611
 7886TIP3   OH245072   3.907   0.905  12.969  0.3232 -0.2624 -0.7084
 7886TIP3    H145073   3.940   0.823  12.934  2.6438 -0.3759  1.6988
 7886TIP3    H245074   3.979   0.967  12.958 -0.0500  0.4938  0.9234
 7887TIP3   OH245075   0.379   0.318  15.398  0.6995  0.0341  0.6363
 7887TIP3    H145076   0.428   0.399  15.408 -0.1957  0.9132 -1.7454
 7887TIP3    H245077   0.443   0.255  15.365  0.3964  1.0690 -2.0678
 7888TIP3   OH245078   0.663   5.541   0.615 -0.0589  0.1043  0.1636
 7888TIP3    H145079   0.636   5.476   0.550  0.3474  1.2522 -1.1887
 7888TIP3    H245080   0.755   5.557   0.596  0.2161  0.0297  1.4062
 7889TIP3   OH245081   5.090   1.623   3.291  0.2141 -0.2825 -0.6361
 7889TIP3    H145082   5.171   1.635   3.340 -0.6991  1.8082  0.4119
 7889TIP3    H245083   5.076   1.706   3.246 -1.0085 -0.8542 -1.3574
 7890TIP3   OH245084   3.796   1.444  11.924  0.2751 -0.0987 -0.6025
 7890TIP3    H145085   3.731   1.494  11.875 -0.1913 -0.0135  0.1046
 7890TIP3    H245086   3.744   1.383  11.977  0.7418  0.6138  0.6745
 7891TIP3   OH245087   1.420   2.536   4.210 -0.0982 -0.2822  0.2777
 7891TIP3    H145088   1.384   2.548   4.297 -0.9483  0.5315 -0.1725
 7891TIP3    H245089   1.346   2.551   4.151  0.6261 -0.1105 -0.6059
 7892TIP3   OH245090   2.191   1.110   4.826  0.1233 -0.6304 -0.8417
 7892TIP3    H145091   2.132   1.054   4.877 -0.5230  0.5878 -0.2294
 7892TIP3    H245092   2.187   1.195   4.870  2.6677 -0.6288 -0.5344
 7893TIP3   OH245093   1.326   4.847   0.498 -0.2472  0.1999  0.1595
 7893TIP3    H145094   1.243   4.888   0.477  0.5362  2.6352  1.6423
 7893TIP3    H245095   1.376   4.849   0.416 -1.1237 -0.0543 -0.3858
 7894TIP3   OH245096   0.991   0.422   3.606 -0.2445  0.6690 -0.0816
 7894TIP3    H145097   0.930   0.348   3.609 -1.0925  1.3069 -0.8619
 7894TIP3    H245098   1.044   0.414   3.685 -1.9561  0.5991  1.0975
 7895TIP3   OH245099   5.404   3.156   4.121 -0.6206 -0.1033 -0.3412
 7895TIP3    H145100   5.482   3.110   4.150 -0.6030 -0.3691 -0.8081
 7895TIP3    H245101   5.381   3.213   4.195  0.5384  0.6500 -0.5471
 7896TIP3   OH245102   4.306   6.194   3.795  0.4609  0.2290  0.0153
 7896TIP3    H145103   4.280   6.119   3.850  1.4740 -0.1115  0.0269
 7896TIP3    H245104   4.377   6.161   3.741 -0.2022  0.7140 -1.1654
 7897TIP3   OH245105   3.223   0.667   2.395  0.2681  0.3047 -0.6478
 7897TIP3    H145106   3.263   0.718   2.465 -0.3688  1.0344 -0.8049
 7897TIP3    H245107   3.129   0.680   2.407  0.0889 -1.1428 -0.4696
 7898TIP3   OH245108   0.444   3.001   3.850  0.3845 -0.6322 -0.0998
 7898TIP3    H145109   0.380   3.067   3.876  0.5996 -0.1610 -0.7636
 7898TIP3    H245110   0.418   2.975   3.761  0.6818 -0.9739 -0.0900
 7899TIP3   OH245111   0.579   6.373  13.341  0.2833 -0.1318 -0.7196
 7899TIP3    H145112   0.622   6.415  13.267 -0.7616 -0.1071 -1.3218
 7899TIP3    H245113   0.545   6.446  13.393 -1.0862 -0.1919 -1.4983
 7900TIP3   OH245114   0.647   1.611  15.247  0.6972 -0.1163 -0.4394
 7900TIP3    H145115   0.581   1.554  15.208 -0.5696  0.2084  1.1872
 7900TIP3    H245116   0.651   1.686  15.188 -0.6734  0.0485 -0.3396
 7901TIP3   OH245117   1.872   6.583  11.422 -0.0805  0.4286 -0.0792
 7901TIP3    H145118   1.896   6.664  11.467 -2.4475  1.2848 -0.2706
 7901TIP3    H245119   1.897   6.513  11.483  0.3127  1.3965  0.8774
 7902TIP3   OH245120   5.227   0.742  10.418 -0.1217 -0.7541 -0.4958
 7902TIP3    H145121   5.240   0.680  10.346 -1.7154 -0.4553 -1.0554
 7902TIP3    H245122   5.158   0.704  10.471 -2.0002  1.1243 -1.5432
 7903TIP3   OH245123   5.518   1.631   1.681  0.7708  0.2698  0.0678
 7903TIP3    H145124   5.541   1.718   1.713  0.3072  0.5559 -0.3753
 7903TIP3    H245125   5.510   1.641   1.586 -1.2693  0.2003  0.2127
 7904TIP3   OH245126   3.083   5.022  16.041 -0.1506  0.2363 -0.0473
 7904TIP3    H145127   3.121   5.090  15.984 -0.0125 -0.3718 -0.6941
 7904TIP3    H245128   3.152   4.956  16.047  0.6507  1.2372  2.5516
 7905TIP3   OH245129   5.388   5.132   2.155  0.3793 -0.0747  0.1064
 7905TIP3    H145130   5.366   5.039   2.146  1.6290 -0.3561 -0.1122
 7905TIP3    H245131   5.316   5.178   2.113  1.8031 -1.0691 -3.6079
 7906TIP3   OH245132   3.262   5.849   0.318 -0.2835  0.5922  0.0483
 7906TIP3    H145133   3.277   5.942   0.302  0.7388  0.4154 -0.0118
 7906TIP3    H245134   3.219   5.847   0.404 -0.0106  1.0979  0.2029
 7907TIP3   OH245135   3.195   1.019  11.650 -0.3419  0.0335 -0.0351
 7907TIP3    H145136   3.290   1.025  11.647 -0.2063 -1.4844  0.7300
 7907TIP3    H245137   3.168   1.082  11.717  0.0372  1.1379 -0.9069
 7908TIP3   OH245138   2.765   6.527  13.720  0.5179 -0.5718 -0.2106
 7908TIP3    H145139   2.691   6.501  13.775  0.9857 -1.9319 -0.1983
 7908TIP3    H245140   2.842   6.497  13.769  1.1475  1.8345  0.3155
 7909TIP3   OH245141   5.402   6.639  15.358  0.2942  0.2086 -0.0024
 7909TIP3    H145142   5.325   6.638  15.301  0.2869  2.3610 -0.0578
 7909TIP3    H245143   5.374   6.590  15.436 -0.4895 -0.6647 -0.8167
 7910TIP3   OH245144   3.652   4.623  13.005 -0.2900  0.2782 -1.3163
 7910TIP3    H145145   3.618   4.534  13.004  1.5211 -0.4333 -0.2449
 7910TIP3    H245146   3.577   4.677  13.032 -0.1294 -1.5144  3.1238
 7911TIP3   OH245147   1.994   5.300   6.051  0.4663 -0.3276  0.3484
 7911TIP3    H145148   1.971   5.282   6.142 -0.0018  0.0119  0.2960
 7911TIP3    H245149   2.046   5.380   6.054 -1.4594  0.9537  0.0856
 7912TIP3   OH245150   2.057   4.766   0.906 -0.3995 -0.6790 -0.2704
 7912TIP3    H145151   2.103   4.836   0.860  0.4616 -1.8964 -1.2912
 7912TIP3    H245152   2.010   4.811   0.976  0.4832  0.8657 -0.6378
 7913TIP3   OH245153   6.257   0.659   4.618  0.3765  0.0456  0.7853
 7913TIP3    H145154   6.201   0.736   4.613  0.5698  0.1474  0.1434
 7913TIP3    H245155   6.219   0.606   4.688 -0.7504 -0.0710  0.0931
 7914TIP3   OH245156   1.464   6.705   2.730 -0.0771 -0.4412  0.4243
 7914TIP3    H145157   1.555   6.688   2.708  0.2575  1.3359  0.3880
 7914TIP3    H245158   1.435   6.769   2.665 -1.3188 -0.8826  0.5217
 7915TIP3   OH245159   0.058   0.468  12.303  0.3718  0.3641 -0.4851
 7915TIP3    H145160   0.040   0.384  12.345  2.0896 -0.4853 -1.4199
 7915TIP3    H245161   0.135   0.452  12.249  1.1988  2.7578 -0.0475
 7916TIP3   OH245162   0.533   4.796   5.326  0.2905 -0.3145  0.3672
 7916TIP3    H145163   0.591   4.746   5.383 -0.2999 -2.3055 -0.7121
 7916TIP3    H245164   0.504   4.871   5.379  2.5910 -0.1476  1.4134
 7917TIP3   OH245165   1.612   6.527   5.864 -0.1317 -0.3525  0.2591
 7917TIP3    H145166   1.616   6.601   5.925  0.8301 -0.2644  0.0988
 7917TIP3    H245167   1.701   6.493   5.862 -0.1851 -0.4392 -0.9884
 7918TIP3   OH245168   2.436   3.882  15.694  0.6635 -0.0010  0.5487
 7918TIP3    H145169   2.421   3.797  15.736  1.7961 -0.6504 -0.3268
 7918TIP3    H245170   2.515   3.869  15.642  0.9018  1.6266  0.4830
 7919TIP3   OH245171   4.610   2.030  13.933 -0.2791  0.4223  0.3262
 7919TIP3    H145172   4.607   1.938  13.957 -0.4003  0.8142  1.8821
 7919TIP3    H245173   4.585   2.032  13.841  2.1881 -1.3363 -0.4435
 7920TIP3   OH245174   3.765   5.850   4.879 -0.3688  1.0339  0.4227
 7920TIP3    H145175   3.848   5.829   4.921 -1.0543 -0.2491  1.1674
 7920TIP3    H245176   3.705   5.781   4.907 -1.7846  2.1257  0.1677
 7921TIP3   OH245177   5.382   2.639   0.207  0.1475 -0.4526 -0.3445
 7921TIP3    H145178   5.463   2.588   0.197  1.3575  0.8778  2.1046
 7921TIP3    H245179   5.312   2.573   0.206  1.2054 -1.6040 -2.7296
 7922TIP3   OH245180   2.856   1.829  11.448  0.0556 -0.5944 -0.1476
 7922TIP3    H145181   2.905   1.839  11.366 -1.5765  1.3155 -0.9522
 7922TIP3    H245182   2.880   1.905  11.500 -2.0651  0.4077 -0.5866
 7923TIP3   OH245183   1.583   3.260   5.072 -0.5202  0.5329 -0.2193
 7923TIP3    H145184   1.678   3.251   5.067 -0.4244 -0.2235  2.4048
 7923TIP3    H245185   1.569   3.345   5.113 -1.0631  1.6326 -2.5600
 7924TIP3   OH245186   2.781   6.295   0.965  0.6910  0.1720  0.3881
 7924TIP3    H145187   2.723   6.329   0.896 -1.0508 -0.5385  1.4681
 7924TIP3    H245188   2.778   6.360   1.034 -2.7450 -2.0462  2.5124
 7925TIP3   OH245189   4.650   2.481  13.127 -0.3754 -0.2408 -0.0018
 7925TIP3    H145190   4.702   2.553  13.092  0.2163  0.3945  2.1086
 7925TIP3    H245191   4.714   2.423  13.169 -0.9394 -1.5768 -0.9504
 7926TIP3   OH245192   3.291   3.049   4.826  0.3111 -0.0732  0.1733
 7926TIP3    H145193   3.373   3.087   4.856 -0.8760  3.1953 -0.5154
 7926TIP3    H245194   3.271   2.980   4.889  3.3850 -0.6765  0.5207
 7927TIP3   OH245195   0.833   4.866  17.205 -0.5130 -0.0244 -0.0541
 7927TIP3    H145196   0.923   4.890  17.230 -0.0416 -1.9312  0.1113
 7927TIP3    H245197   0.782   4.879  17.284 -0.2084  0.1346  0.1197
 7928TIP3   OH245198   2.671   2.205  14.479 -0.1357 -0.5596  0.2762
 7928TIP3    H145199   2.609   2.161  14.421  1.2747 -0.3390 -1.4155
 7928TIP3    H245200   2.755   2.164  14.460  0.3986 -0.2608  1.9375
 7929TIP3   OH245201   0.570   4.100   0.369 -0.1473  0.2741  0.4547
 7929TIP3    H145202   0.499   4.104   0.305 -2.2276 -1.8653  2.4934
 7929TIP3    H245203   0.635   4.041   0.330 -1.3298 -0.8805  0.1845
 7930TIP3   OH245204   3.590   2.388   3.326 -0.0447  0.2117 -0.4591
 7930TIP3    H145205   3.555   2.329   3.393  1.4038  0.4669  0.5256
 7930TIP3    H245206   3.545   2.471   3.342  0.2325  0.2473  0.1435
 7931TIP3   OH245207   2.971   0.218  12.966 -0.1452 -0.6233  0.1902
 7931TIP3    H145208   3.012   0.140  13.004  0.9715 -0.3730 -0.4849
 7931TIP3    H245209   2.975   0.283  13.036  2.4789  0.0322 -0.5036
 7932TIP3   OH245210   1.507   1.938   0.916  0.3508 -0.1612 -0.5584
 7932TIP3    H145211   1.575   1.995   0.880  0.4068  0.3061  0.2792
 7932TIP3    H245212   1.450   1.997   0.965 -0.1849 -0.6752 -0.5597
 7933TIP3   OH245213   2.779   6.229  14.825  0.0888 -0.5646  0.4235
 7933TIP3    H145214   2.721   6.305  14.820 -0.0901 -0.7627 -0.5861
 7933TIP3    H245215   2.866   6.265  14.809 -0.0712 -0.6626 -0.6960
 7934TIP3   OH245216   1.540   0.324  11.914  0.5354  0.3150 -0.8568
 7934TIP3    H145217   1.488   0.311  11.994  1.8166 -2.0129 -0.3337
 7934TIP3    H245218   1.627   0.347  11.946  0.5342  1.4770 -1.6580
 7935TIP3   OH245219   6.782   4.018   2.301 -0.7328 -0.7088  0.0999
 7935TIP3    H145220   6.726   3.947   2.272  0.7341 -1.2970 -1.3942
 7935TIP3    H245221   6.801   4.067   2.221 -0.5484  0.5171  0.8785
 7936TIP3   OH245222   2.716   6.714   4.125 -0.6874 -0.1789  0.5202
 7936TIP3    H145223   2.739   6.708   4.032 -1.3402  1.6468  0.2139
 7936TIP3    H245224   2.800   6.704   4.171 -0.4042 -1.4119 -0.2407
 7937TIP3   OH245225   4.199   0.046  10.936  0.5864  0.1579 -0.3071
 7937TIP3    H145226   4.153   0.069  10.854  1.2932 -0.1357 -0.7889
 7937TIP3    H245227   4.214  -0.048  10.929  0.4613  0.0973  0.2620
 7938TIP3   OH245228   4.959   5.301  14.769  0.3051 -0.0102  0.1017
 7938TIP3    H145229   4.943   5.395  14.769 -0.6717 -0.1704  0.0701
 7938TIP3    H245230   4.951   5.275  14.861 -1.8030 -0.4469 -0.1934
 7939TIP3   OH245231   3.368   0.291  13.764  0.0689  0.0885 -0.1772
 7939TIP3    H145232   3.450   0.298  13.812 -0.2843  1.4107  0.2642
 7939TIP3    H245233   3.379   0.349  13.688  0.7556 -2.2518 -1.9179
 7940TIP3   OH245234   4.961   4.745   4.880  0.1982  0.3981  0.3576
 7940TIP3    H145235   4.940   4.721   4.970  2.6834 -1.5400  0.4692
 7940TIP3    H245236   5.048   4.784   4.884  0.7233 -0.5247 -1.3081
 7941TIP3   OH245237   5.174   0.928   1.759 -0.3978 -0.3969 -0.5724
 7941TIP3    H145238   5.259   0.897   1.789 -0.5624 -1.1805 -0.8790
 7941TIP3    H245239   5.112   0.861   1.790 -0.8268 -0.1113 -0.8093
 7942TIP3   OH245240   0.736   0.394   1.776  0.1535  0.4635 -0.8936
 7942TIP3    H145241   0.687   0.360   1.851 -0.1162  1.2689 -0.6981
 7942TIP3    H245242   0.724   0.328   1.707  2.0160 -1.2322  0.3695
 7943TIP3   OH245243   5.190   5.450  16.147  1.1672  0.5398 -0.0250
 7943TIP3    H145244   5.275   5.412  16.165  1.3117  0.1336 -1.5296
 7943TIP3    H245245   5.130   5.376  16.140  0.5457  0.8547  1.6922
 7944TIP3   OH245246   0.958   5.270   2.871 -0.2108 -0.1396 -0.6440
 7944TIP3    H145247   0.866   5.255   2.889  0.1343 -1.7225 -0.1236
 7944TIP3    H245248   0.994   5.299   2.955 -0.3268  1.0054 -0.9773
 7945TIP3   OH245249   3.952   3.925  15.985 -0.0668 -0.1736 -0.1570
 7945TIP3    H145250   3.929   3.842  16.027  0.6574 -0.1239  0.3461
 7945TIP3    H245251   3.939   3.909  15.892  1.7688 -1.4289 -0.2299
 7946TIP3   OH245252   4.161   3.087   4.137 -0.0559  0.0297  0.1249
 7946TIP3    H145253   4.254   3.071   4.149 -0.4359 -0.3957  2.7320
 7946TIP3    H245254   4.118   3.029   4.199 -2.1317 -0.5606 -1.7891
 7947TIP3   OH245255   4.538   2.108   5.002 -0.1945 -0.5597  0.3501
 7947TIP3    H145256   4.559   2.196   4.972 -0.4988 -0.5589  0.1367
 7947TIP3    H245257   4.617   2.057   4.982 -0.5737 -0.6663 -0.9116
 7948TIP3   OH245258   6.094   6.417  12.000 -0.2560 -0.1041  0.1236
 7948TIP3    H145259   6.003   6.391  12.013 -0.4791 -1.2625 -3.4424
 7948TIP3    H245260   6.145   6.352  12.048 -1.2485  0.1574  1.5715
 7949TIP3   OH245261   6.670   2.570  13.173 -0.2885 -0.4159  0.1335
 7949TIP3    H145262   6.622   2.646  13.206  1.4820  1.3374 -1.2768
 7949TIP3    H245263   6.633   2.554  13.087  1.6986  1.0338 -1.0235
 7950TIP3   OH245264   6.652   2.632   3.303 -0.0257  0.5928 -0.7407
 7950TIP3    H145265   6.671   2.720   3.336 -0.6134  0.2284  0.6051
 7950TIP3    H245266   6.649   2.578   3.381 -0.0423 -0.5642 -1.5338
 7951TIP3   OH245267   1.597   5.551  11.231 -0.1823  0.0344  0.7685
 7951TIP3    H145268   1.637   5.634  11.259 -1.0758  0.9316 -0.5840
 7951TIP3    H245269   1.523   5.539  11.290 -1.7647  1.6749 -0.8047
 7952TIP3   OH245270   5.693   2.059  13.339 -0.5214  0.1284  0.0530
 7952TIP3    H145271   5.662   1.973  13.311  0.2857  0.2663 -1.2996
 7952TIP3    H245272   5.667   2.118  13.269  0.8793  0.6052 -0.0822
 7953TIP3   OH245273   5.598   6.172  17.157 -0.5616  0.1743  0.3056
 7953TIP3    H145274   5.668   6.117  17.121 -0.8174  0.8175 -1.2256
 7953TIP3    H245275   5.547   6.113  17.213  1.6109 -0.1425  2.0488
 7954TIP3   OH245276   3.017   1.250   4.539  0.3311 -0.0543  0.0960
 7954TIP3    H145277   2.954   1.246   4.611  0.0792  2.3323  0.0332
 7954TIP3    H245278   3.101   1.264   4.582  0.3197  0.3789 -0.0267
 7955TIP3   OH245279   3.321   6.507   5.737 -0.7492 -0.5994  0.5051
 7955TIP3    H145280   3.355   6.427   5.697 -0.6268  0.1616 -0.9401
 7955TIP3    H245281   3.245   6.479   5.787 -0.4857 -1.6737  0.3084
 7956TIP3   OH245282   0.294   3.580   2.635  0.8270  0.3615  0.0795
 7956TIP3    H145283   0.259   3.495   2.608  2.3442 -0.9151  1.9567
 7956TIP3    H245284   0.222   3.641   2.621 -0.8844 -1.5399  0.2980
 7957TIP3   OH245285   6.258   3.964  11.680  0.0443 -0.3505  0.3668
 7957TIP3    H145286   6.232   4.040  11.628  0.6332  0.2716  0.9875
 7957TIP3    H245287   6.179   3.940  11.729 -0.0864 -0.0303  0.3117
 7958TIP3   OH245288   5.469   2.395  13.369  0.5538 -0.0852 -0.8283
 7958TIP3    H145289   5.468   2.317  13.424  0.0927  1.2049  1.0428
 7958TIP3    H245290   5.543   2.446  13.402 -0.8444  1.5582 -0.1774
 7959TIP3   OH245291   4.345   5.380   4.003  0.1425  0.1138  0.1057
 7959TIP3    H145292   4.311   5.465   3.975  0.9129 -0.0504 -1.4100
 7959TIP3    H245293   4.437   5.396   4.023  0.5360 -0.5498 -1.1271
 7960TIP3   OH245294   4.969   3.512  11.498  0.0624  1.1969 -0.4484
 7960TIP3    H145295   5.056   3.550  11.505 -0.4630  2.2273  0.7917
 7960TIP3    H245296   4.940   3.532  11.410  1.0582  0.8787 -0.8526
 7961TIP3   OH245297   0.289   2.822  10.860  0.3475 -0.0387  0.4145
 7961TIP3    H145298   0.195   2.837  10.857  0.5093  0.9607 -0.1953
 7961TIP3    H245299   0.327   2.910  10.865  1.2995 -0.3408 -1.0325
 7962TIP3   OH245300   0.046   0.685  13.466  0.5537 -0.3338 -0.0848
 7962TIP3    H145301   0.106   0.705  13.537  2.3026 -1.6934 -1.1155
 7962TIP3    H245302   0.019   0.770  13.431 -0.1300  0.3286  2.0217
 7963TIP3   OH245303   2.981   5.007   1.413 -0.3412  0.1728  0.3713
 7963TIP3    H145304   3.074   5.004   1.433 -0.2618  1.6993  0.2682
 7963TIP3    H245305   2.938   4.965   1.488  0.3397  0.6002  0.9968
 7964TIP3   OH245306   6.706   2.142  16.456 -0.1112 -0.4842  0.0767
 7964TIP3    H145307   6.645   2.068  16.451 -1.1524  0.3477  0.3153
 7964TIP3    H245308   6.681   2.199  16.384  0.4901 -0.2153  0.0827
 7965TIP3   OH245309   2.212   6.742  11.808  0.2716 -0.6078  0.1204
 7965TIP3    H145310   2.157   6.790  11.746 -0.9853 -0.2858  1.4745
 7965TIP3    H245311   2.210   6.652  11.777  0.7078 -0.2269 -1.0546
 7966TIP3   OH245312   3.089   3.917   0.874 -0.0779 -0.5508 -0.8032
 7966TIP3    H145313   3.160   3.972   0.907 -0.6303 -0.0439 -0.4547
 7966TIP3    H245314   3.051   3.877   0.952 -2.6680  2.1874 -0.5585
 7967TIP3   OH245315   0.993   1.853   5.916  0.2818  0.0963 -0.8809
 7967TIP3    H145316   1.030   1.915   5.979  0.7292 -2.0822  1.0793
 7967TIP3    H245317   1.066   1.795   5.893 -0.7678 -1.3849 -0.5452
 7968TIP3   OH245318   1.869   6.245   1.498  1.1260 -0.0175 -0.5180
 7968TIP3    H145319   1.863   6.178   1.567  2.2678  0.6364  0.2199
 7968TIP3    H245320   1.960   6.272   1.498  0.4498  2.4022 -0.0168
 7969TIP3   OH245321   2.180   3.871  16.966 -0.2801 -0.1434  1.0480
 7969TIP3    H145322   2.096   3.826  16.970 -0.3889 -0.5809 -3.5658
 7969TIP3    H245323   2.232   3.818  16.906  1.5003  2.9033 -0.1784
 7970TIP3   OH245324   4.033   1.018   3.553  0.3712 -0.2364 -0.3601
 7970TIP3    H145325   4.058   0.955   3.485  3.7689 -0.5657  1.0887
 7970TIP3    H245326   4.031   1.102   3.508  0.6636 -0.7197 -1.2934
 7971TIP3   OH245327   3.222   2.155  14.810 -0.0319  0.1519 -0.0692
 7971TIP3    H145328   3.150   2.141  14.749 -0.5206  1.3868  0.2069
 7971TIP3    H245329   3.287   2.089  14.785  0.1549  1.1981 -2.5066
 7972TIP3   OH245330   3.276   2.107  12.493  0.1505 -0.3150  0.0008
 7972TIP3    H145331   3.215   2.073  12.428  0.4752  1.0803 -1.0509
 7972TIP3    H245332   3.259   2.201  12.495  1.9823  0.0326 -0.0089
 7973TIP3   OH245333   0.833   6.765   0.573 -0.1506 -0.5544  0.0538
 7973TIP3    H145334   0.847   6.723   0.658 -3.3765  2.8309  2.4490
 7973TIP3    H245335   0.763   6.714   0.533 -1.3044  0.1086  1.1853
 7974TIP3   OH245336   4.007   3.115  16.681  0.7818 -0.1979  0.0645
 7974TIP3    H145337   4.055   3.195  16.660  1.3757 -0.5026  0.2696
 7974TIP3    H245338   3.920   3.146  16.705  0.1052  0.1962 -2.6723
 7975TIP3   OH245339   2.059   3.838  12.680  0.3708 -0.0205 -0.3164
 7975TIP3    H145340   2.021   3.803  12.599 -2.0577  2.1580 -0.2080
 7975TIP3    H245341   2.009   3.796  12.750  0.4391  0.3372 -0.0547
 7976TIP3   OH245342   0.456   1.394  13.453  0.4479 -0.4570  0.8446
 7976TIP3    H145343   0.361   1.383  13.450  0.4193  0.0463 -1.2237
 7976TIP3    H245344   0.490   1.309  13.426  0.5294 -0.1469 -0.0648
 7977TIP3   OH245345   4.415   2.848  13.553 -0.4583 -0.0845 -0.1708
 7977TIP3    H145346   4.470   2.833  13.477 -0.4358 -1.2164  0.0643
 7977TIP3    H245347   4.475   2.844  13.627 -0.6786 -0.2369 -0.0006
 7978TIP3   OH245348   6.143   3.086  15.109  0.1224  0.6558  0.4919
 7978TIP3    H145349   6.218   3.145  15.097  0.0965  0.3526 -1.3360
 7978TIP3    H245350   6.119   3.096  15.201  0.9230  2.5284  0.5212
 7979TIP3   OH245351   3.184   4.566  15.023  0.0736 -0.4782  0.4879
 7979TIP3    H145352   3.171   4.481  15.065 -1.9299 -0.6127 -0.3718
 7979TIP3    H245353   3.098   4.607  15.024  0.7545  1.0102 -0.2874
 7980TIP3   OH245354   2.424   5.310  12.235 -0.0739 -0.0675  0.0873
 7980TIP3    H145355   2.360   5.322  12.164  0.7494 -0.3703 -0.7220
 7980TIP3    H245356   2.376   5.332  12.314 -1.0398  0.2110 -0.5591
 7981TIP3   OH245357   1.497   5.371   4.060  0.7138 -0.0959  0.4787
 7981TIP3    H145358   1.452   5.310   4.119  1.1960  0.3049  1.2772
 7981TIP3    H245359   1.531   5.316   3.990 -1.6815 -0.3031 -0.5677
 7982TIP3   OH245360   3.710   4.769   0.897  0.3102  0.1368  0.1480
 7982TIP3    H145361   3.730   4.736   0.984 -1.3461  0.4184  0.6427
 7982TIP3    H245362   3.622   4.736   0.877  0.2615  0.9075 -0.9988
 7983TIP3   OH245363   1.268   4.362  10.370 -0.0303 -0.5050 -0.7574
 7983TIP3    H145364   1.345   4.338  10.422  0.5982 -2.8182 -2.7077
 7983TIP3    H245365   1.194   4.329  10.420  0.2216  1.1603  0.8065
 7984TIP3   OH245366   4.771   4.982   0.692 -0.2269  0.2590 -0.4447
 7984TIP3    H145367   4.701   5.045   0.707 -0.9075 -0.9110  1.3804
 7984TIP3    H245368   4.807   5.006   0.606 -1.0133  2.5979 -0.1394
 7985TIP3   OH245369   1.131   3.358   0.996 -0.2812  0.4658 -0.3928
 7985TIP3    H145370   1.207   3.354   1.054 -1.0705 -0.1935  0.6163
 7985TIP3    H245371   1.152   3.299   0.924  0.3396  0.6207 -0.3396
 7986TIP3   OH245372   2.648   1.768   1.485  0.4682 -0.8424 -0.2327
 7986TIP3    H145373   2.604   1.718   1.553  0.2348 -0.0610  0.2038
 7986TIP3    H245374   2.579   1.787   1.421 -0.4512  2.3468  1.5590
 7987TIP3   OH245375   3.448   4.920   6.451 -0.2954 -0.2916 -0.0343
 7987TIP3    H145376   3.494   5.004   6.452 -0.9564  0.0610  0.8945
 7987TIP3    H245377   3.404   4.915   6.536 -1.2880 -1.0064 -0.5762
 7988TIP3   OH245378   0.111   0.727   3.279  0.0336 -0.1988 -0.4036
 7988TIP3    H145379   0.057   0.651   3.302  0.1248 -0.2911 -0.4940
 7988TIP3    H245380   0.048   0.792   3.250 -0.2110  0.4072  1.4091
 7989TIP3   OH245381   1.635   2.820  11.467 -0.7628  0.0444 -0.3488
 7989TIP3    H145382   1.579   2.773  11.406 -2.1918  1.1092  0.1254
 7989TIP3    H245383   1.612   2.784  11.553 -1.3502  1.0924 -0.0624
 7990TIP3   OH245384   5.946   5.325  13.569  0.0826  0.2132  0.1431
 7990TIP3    H145385   5.948   5.405  13.516 -0.5664  0.1914  0.0756
 7990TIP3    H245386   5.885   5.267  13.522  0.8001 -0.4415  0.0158
 7991TIP3   OH245387   3.189   6.456   4.956 -0.1146 -0.3124  0.3053
 7991TIP3    H145388   3.116   6.516   4.943 -1.4373 -1.5319  1.9641
 7991TIP3    H245389   3.162   6.399   5.028  1.2844 -2.6320 -0.9218
 7992TIP3   OH245390   0.199   6.339   0.156 -0.6703 -0.3402  0.4283
 7992TIP3    H145391   0.237   6.253   0.171  0.7195  0.6390  2.9583
 7992TIP3    H245392   0.106   6.328   0.175 -1.0287 -1.9109 -2.1152
 7993TIP3   OH245393   3.608   0.655   2.225 -0.0155  0.6172 -0.2369
 7993TIP3    H145394   3.611   0.656   2.320  0.8374  1.8580 -0.2597
 7993TIP3    H245395   3.601   0.562   2.202 -1.0733  0.3645  1.0358
 7994TIP3   OH245396   0.564   4.441  11.998  0.4078  0.4491  0.2473
 7994TIP3    H145397   0.629   4.373  12.015  0.4897  0.1529 -1.1676
 7994TIP3    H245398   0.579   4.466  11.907 -2.0514 -0.2269 -0.3678
 7995TIP3   OH245399   4.229   4.627  12.258  0.0382 -0.1587  0.2727
 7995TIP3    H145400   4.151   4.577  12.279 -0.0909  0.2877  0.8724
 7995TIP3    H245401   4.224   4.642  12.164 -0.1741 -0.8404  0.1795
 7996TIP3   OH245402   2.675   3.247   4.934 -0.1378 -0.0282 -0.1939
 7996TIP3    H145403   2.733   3.216   5.003  1.1053 -0.7117 -1.5277
 7996TIP3    H245404   2.650   3.168   4.886 -2.6496  0.1699  0.6847
 7997TIP3   OH245405   6.624   1.399   0.921 -0.3824  0.2918 -0.4229
 7997TIP3    H145406   6.585   1.465   0.978 -3.7840 -1.9340 -0.0717
 7997TIP3    H245407   6.623   1.438   0.834 -0.7383  1.3531  0.0495
 7998TIP3   OH245408   0.749   3.513  14.300 -0.0456  0.2167 -0.3715
 7998TIP3    H145409   0.764   3.603  14.272  0.8410 -0.1161 -1.0175
 7998TIP3    H245410   0.785   3.460  14.229 -1.8504 -0.6603 -0.6624
 7999TIP3   OH245411   6.053   0.461   4.807 -0.0615  0.1091  0.2416
 7999TIP3    H145412   6.019   0.533   4.860  0.5890 -0.7293  1.8565
 7999TIP3    H245413   5.976   0.421   4.768 -0.5696  0.7154  0.6190
 8000TIP3   OH245414   6.129   3.260  14.045  0.5407  0.5132 -0.0223
 8000TIP3    H145415   6.128   3.166  14.023  2.1646  0.9346 -2.0279
 8000TIP3    H245416   6.156   3.262  14.137  1.5180 -0.9298 -0.2592
 8001TIP3   OH245417   6.081   2.789  13.613  0.2393  0.0686 -0.8213
 8001TIP3    H145418   6.159   2.734  13.615  0.1793  0.0091  2.2035
 8001TIP3    H245419   6.048   2.788  13.703 -2.4019  1.3085 -1.7089
 8002TIP3   OH245420   3.674   3.658   4.906 -0.1098 -0.5085  0.0471
 8002TIP3    H145421   3.687   3.650   5.001 -1.1247  0.3815  0.2767
 8002TIP3    H245422   3.740   3.720   4.877  0.9644 -1.6659 -0.0287
 8003TIP3   OH245423   1.882   0.554  14.109  0.0881 -0.1214  0.2905
 8003TIP3    H145424   1.940   0.594  14.174 -0.2523  0.8607  0.0006
 8003TIP3    H245425   1.861   0.626  14.049 -1.1456 -0.5522  0.1956
 8004TIP3   OH245426   3.854   4.939   3.558  0.0379 -0.1354 -0.2434
 8004TIP3    H145427   3.931   4.893   3.525  0.4054 -0.4074  0.9511
 8004TIP3    H245428   3.867   5.031   3.533  1.8854  0.2308  1.9382
 8005TIP3   OH245429   6.747   6.382   0.285 -0.2643  0.0803 -0.3746
 8005TIP3    H145430   6.744   6.419   0.197  0.3384  0.3285 -0.2911
 8005TIP3    H245431   6.658   6.389   0.318 -0.5169 -0.1282 -1.0145
 8006TIP3   OH245432   2.214   3.694   0.676  0.6089  0.1683  0.3051
 8006TIP3    H145433   2.125   3.699   0.641  0.1398 -0.5956  1.3614
 8006TIP3    H245434   2.231   3.781   0.713 -0.3676 -0.1977  1.6535
 8007TIP3   OH245435   6.223   1.125  13.697  0.4383  0.4502 -0.2811
 8007TIP3    H145436   6.311   1.164  13.697 -0.2682  2.1066  2.1995
 8007TIP3    H245437   6.169   1.188  13.648  0.5391 -0.4010 -1.5087
 8008TIP3   OH245438   2.943   2.441   4.099  0.3760 -0.4650 -0.3112
 8008TIP3    H145439   2.864   2.490   4.074  0.5174  0.0839  0.3041
 8008TIP3    H245440   2.984   2.495   4.167  0.0848 -1.8535  0.9907
 8009TIP3   OH245441   4.930   4.206   1.924 -0.2620 -0.5693  0.0230
 8009TIP3    H145442   5.008   4.176   1.971  1.1898  1.5251 -0.9806
 8009TIP3    H245443   4.964   4.260   1.853 -2.6420  0.8028 -0.1208
 8010TIP3   OH245444   2.645   1.963   2.927 -0.8015 -0.3249  0.0813
 8010TIP3    H145445   2.587   1.941   2.854 -1.5987  0.5967  0.4278
 8010TIP3    H245446   2.683   2.047   2.902 -0.5092 -0.3685  0.3869
 8011TIP3   OH245447   1.798   2.297   3.951  0.1433  0.2760 -0.6259
 8011TIP3    H145448   1.797   2.252   3.867 -0.8460 -1.9301  0.5129
 8011TIP3    H245449   1.707   2.325   3.964  0.1177 -0.0910  0.0412
 8012TIP3   OH245450   4.271   0.207   4.620  0.1536  0.4524 -0.4602
 8012TIP3    H145451   4.222   0.195   4.701 -1.7337  0.6680 -1.5368
 8012TIP3    H245452   4.291   0.118   4.591  1.3106  0.3842  0.4956
 8013TIP3   OH245453   1.074   6.044  15.751 -0.5277 -0.3746 -0.2548
 8013TIP3    H145454   1.108   6.119  15.800 -1.1640 -0.7769  0.8487
 8013TIP3    H245455   0.979   6.058  15.749 -0.5833 -0.7996 -0.6347
 8014TIP3   OH245456   5.088   6.724  11.259 -0.0761  0.2279 -0.0777
 8014TIP3    H145457   5.037   6.672  11.198  2.5769 -0.8164 -1.4800
 8014TIP3    H245458   5.168   6.746  11.211 -0.1539  3.7551  1.2379
 8015TIP3   OH245459   3.063   4.334   0.841  0.0776 -1.0636 -0.1609
 8015TIP3    H145460   3.121   4.262   0.815 -0.0518 -1.5667  0.8875
 8015TIP3    H245461   3.042   4.380   0.760  0.6771 -1.8361 -0.7531
 8016TIP3   OH245462   6.299   0.854  16.893  0.2543  0.1286 -0.4799
 8016TIP3    H145463   6.253   0.938  16.887  0.1106  0.0293 -0.8293
 8016TIP3    H245464   6.232   0.789  16.868  0.8676  0.0703 -2.0245
 8017TIP3   OH245465   2.576   2.286  13.728  0.1246 -0.2174 -0.2341
 8017TIP3    H145466   2.628   2.256  13.653 -0.8111 -0.2169 -0.8847
 8017TIP3    H245467   2.641   2.324  13.788  0.8899 -0.3352 -0.9783
 8018TIP3   OH245468   5.077   6.322   5.505  0.1644 -0.0365 -0.2922
 8018TIP3    H145469   5.139   6.336   5.577  1.0517  0.7509 -1.1949
 8018TIP3    H245470   5.132   6.316   5.427 -0.9246  1.0963 -1.1658
 8019TIP3   OH245471   0.351   3.936   2.050 -0.0009 -0.5917 -0.5719
 8019TIP3    H145472   0.315   4.000   1.989  1.3663 -0.8141 -1.6297
 8019TIP3    H245473   0.446   3.948   2.043  0.1832 -0.3340  1.8013
 8020TIP3   OH245474   0.785   2.962   5.738  0.1374 -0.1894  0.1783
 8020TIP3    H145475   0.782   3.027   5.809  0.5425 -0.4970  0.4796
 8020TIP3    H245476   0.693   2.952   5.712  0.2637  1.9128 -1.1868
 8021TIP3   OH245477   3.551   6.293  12.352 -0.1856 -0.0594  0.5717
 8021TIP3    H145478   3.538   6.280  12.446  0.1457  1.0619  0.7734
 8021TIP3    H245479   3.572   6.206  12.318  1.0677 -0.2237  1.7524
 8022TIP3   OH245480   4.151   0.406  11.965  0.1198  0.4196 -0.9827
 8022TIP3    H145481   4.079   0.413  11.902 -0.1269  1.3181 -0.6161
 8022TIP3    H245482   4.112   0.433  12.048  0.4620 -0.6904 -0.4578
 8023TIP3   OH245483   6.025   5.945   2.036 -0.1400  0.1128 -0.1640
 8023TIP3    H145484   6.006   6.036   2.057 -1.4674 -0.4035  0.9493
 8023TIP3    H245485   6.009   5.897   2.118 -0.8858 -1.3129 -1.1126
 8024TIP3   OH245486   6.421   6.406  11.905  0.3146 -0.1750 -0.2431
 8024TIP3    H145487   6.507   6.448  11.903  0.9197 -1.3619  0.2210
 8024TIP3    H245488   6.381   6.426  11.820  0.8031  0.8886 -0.2191
 8025TIP3   OH245489   3.919   2.130   4.392 -0.2232  0.2498 -0.0719
 8025TIP3    H145490   3.945   2.103   4.304 -1.1221 -0.1748 -0.2187
 8025TIP3    H245491   3.829   2.162   4.381 -0.6289 -0.5506  0.8207
 8026TIP3   OH245492   3.456   0.832  12.379 -0.0471  0.0028  0.1419
 8026TIP3    H145493   3.490   0.873  12.299 -1.4038 -1.2932 -1.1354
 8026TIP3    H245494   3.482   0.741  12.372 -2.3509 -0.6625 -0.0681
 8027TIP3   OH245495   6.296   6.410   4.032  0.0292 -0.0363  0.2966
 8027TIP3    H145496   6.329   6.490   3.991  2.0393 -1.6253 -1.3725
 8027TIP3    H245497   6.205   6.404   4.004  0.6314  0.3091 -1.8478
 8028TIP3   OH245498   4.985   3.956  14.263  0.4697 -0.2727  0.4412
 8028TIP3    H145499   4.969   4.050  14.264  1.1905 -0.1174 -1.6213
 8028TIP3    H245500   4.921   3.921  14.200  3.9516 -0.4159 -3.1682
 8029TIP3   OH245501   5.227   3.270   2.101  0.2857  0.3382 -0.5051
 8029TIP3    H145502   5.161   3.203   2.119  0.6533 -0.6913 -2.8435
 8029TIP3    H245503   5.297   3.253   2.164  0.0286 -1.0035 -0.5688
 8030TIP3   OH245504   0.373   1.109   1.181 -0.0432 -0.8149  0.4511
 8030TIP3    H145505   0.294   1.119   1.234  0.0660 -0.3288  0.5186
 8030TIP3    H245506   0.442   1.148   1.234  0.0356 -0.1821 -0.1246
 8031TIP3   OH245507   0.471   5.618   2.619  0.4234  0.0359  0.5560
 8031TIP3    H145508   0.486   5.694   2.562 -1.9301 -0.4251 -0.7577
 8031TIP3    H245509   0.487   5.652   2.708  0.9762  1.6512 -0.1371
 8032TIP3   OH245510   0.167   3.347   4.762 -0.3511  0.3760  0.5421
 8032TIP3    H145511   0.200   3.433   4.734 -2.3560  0.5141 -1.6128
 8032TIP3    H245512   0.239   3.309   4.812  1.2314  2.6037  0.0711
 8033TIP3   OH245513   3.140   2.885  15.426 -0.2813 -0.0883 -0.4065
 8033TIP3    H145514   3.134   2.802  15.377  1.2867 -1.8021  2.2148
 8033TIP3    H245515   3.223   2.923  15.398 -0.5682  0.1590 -0.9305
 8034TIP3   OH245516   6.222   0.117   0.084 -0.1647 -0.6428  1.1678
 8034TIP3    H145517   6.204   0.145  -0.006  0.0514 -0.0828  1.2935
 8034TIP3    H245518   6.298   0.059   0.076 -1.2184 -1.9847  0.7837
 8035TIP3   OH245519   2.086   0.953   3.499  0.1252  0.5774  0.6385
 8035TIP3    H145520   2.129   0.998   3.426  1.1181  0.4929  1.1635
 8035TIP3    H245521   2.154   0.944   3.565 -0.4689 -0.3610  1.1344
 8036TIP3   OH245522   0.152   5.087  14.519 -0.1802 -0.5695  0.6545
 8036TIP3    H145523   0.113   5.174  14.524  0.0687 -0.2563 -1.8872
 8036TIP3    H245524   0.209   5.091  14.442 -1.5573 -3.5036 -0.6007
 8037TIP3   OH245525   6.474   2.719  10.916 -0.4154  0.3684 -0.2062
 8037TIP3    H145526   6.552   2.771  10.935  0.2697 -1.2539  1.5810
 8037TIP3    H245527   6.460   2.729  10.822  0.6648  2.4198 -0.1718
 8038TIP3   OH245528   0.467   1.538  16.149  0.1902 -0.4068 -0.8292
 8038TIP3    H145529   0.559   1.522  16.130  0.6011  0.2135  0.6123
 8038TIP3    H245530   0.424   1.454  16.132  1.0761 -0.8051 -1.1145
 8039TIP3   OH245531   3.146   5.576  17.099  0.1258  0.5633 -0.2615
 8039TIP3    H145532   3.131   5.485  17.124 -3.4880  0.8653 -0.9706
 8039TIP3    H245533   3.165   5.621  17.181 -0.8683 -0.3508  0.4808
 8040TIP3   OH245534   5.971   3.127   0.507 -0.0536 -0.3606  0.2716
 8040TIP3    H145535   6.063   3.151   0.506 -0.4859  1.4156 -2.0390
 8040TIP3    H245536   5.967   3.048   0.561  2.5285  0.5588  1.8834
 8041TIP3   OH245537   4.219   3.290   3.493 -0.3870 -0.1446  0.5546
 8041TIP3    H145538   4.162   3.365   3.512  0.2118  0.2588  0.7993
 8041TIP3    H245539   4.259   3.312   3.409  0.3707  0.1778  0.9898
 8042TIP3   OH245540   2.275   4.175   5.707  0.1028 -0.6233 -0.2328
 8042TIP3    H145541   2.240   4.247   5.760  2.7547 -0.0484  0.8226
 8042TIP3    H245542   2.307   4.216   5.627  1.5142 -0.6067  0.3211
 8043TIP3   OH245543   4.562   0.222  12.090  0.5680 -0.1277 -0.2599
 8043TIP3    H145544   4.635   0.198  12.032 -0.7326 -0.8219 -1.6478
 8043TIP3    H245545   4.557   0.149  12.153  0.0713 -0.8674 -1.1445
 8044TIP3   OH245546   0.509   1.617   0.625 -0.4309 -0.1691  0.0336
 8044TIP3    H145547   0.458   1.668   0.688 -1.9945 -1.7772  0.0959
 8044TIP3    H245548   0.550   1.548   0.677  1.6661  0.9433 -0.0589
 8045TIP3   OH245549   6.293   6.542   6.011  0.0770  0.1385  0.0845
 8045TIP3    H145550   6.304   6.617   6.068  2.2572  0.6337 -0.9485
 8045TIP3    H245551   6.355   6.557   5.939 -1.6755 -1.1037 -1.7323
 8046TIP3   OH245552   4.553   5.772   1.887 -0.2979 -0.8201  0.4957
 8046TIP3    H145553   4.570   5.825   1.964  1.0193 -0.5802  0.0464
 8046TIP3    H245554   4.479   5.716   1.912  0.1708 -0.7942  1.9454
 8047TIP3   OH245555   4.290   2.861  16.135 -0.3444 -0.2050 -0.3508
 8047TIP3    H145556   4.288   2.765  16.128 -1.5274 -0.0541 -2.5738
 8047TIP3    H245557   4.207   2.889  16.097 -0.7473  1.6462  1.8354
 8048TIP3   OH245558   6.260   4.830   3.691 -0.2330  0.1902 -0.6193
 8048TIP3    H145559   6.173   4.818   3.654 -0.9317  1.3780  0.5758
 8048TIP3    H245560   6.249   4.811   3.784  0.5633  1.3142 -0.2842
 8049TIP3   OH245561   5.304   2.546   5.887  0.3957  0.6177 -0.0612
 8049TIP3    H145562   5.248   2.588   5.821  0.0415  0.0520 -0.1271
 8049TIP3    H245563   5.381   2.518   5.838 -0.0527 -0.1731 -0.3214
 8050TIP3   OH245564   4.284   4.645  13.686  0.4181  0.1585 -0.4091
 8050TIP3    H145565   4.283   4.555  13.718  2.0451  0.1851 -0.2264
 8050TIP3    H245566   4.293   4.636  13.591  0.5652  0.1221 -0.3917
 8051TIP3   OH245567   6.072   2.630   1.847  0.3146  0.2007  0.4615
 8051TIP3    H145568   5.987   2.608   1.809  0.0163  0.7321  0.8238
 8051TIP3    H245569   6.055   2.707   1.900  0.5744 -0.9718  2.2842
 8052TIP3   OH245570   3.296   6.050  16.679  0.0576 -0.0998  0.0872
 8052TIP3    H145571   3.357   6.123  16.679 -0.3637  0.2573  1.3456
 8052TIP3    H245572   3.332   5.989  16.615  0.2522  1.3303 -1.1967
 8053TIP3   OH245573   4.556   5.720  17.196 -0.2495  0.1681 -0.4975
 8053TIP3    H145574   4.492   5.790  17.206 -0.9153 -0.3851 -0.9228
 8053TIP3    H245575   4.607   5.722  17.278 -0.3668  1.0455 -0.4451
 8054TIP3   OH245576   6.194   6.774  13.637 -0.5893 -0.3368 -0.0001
 8054TIP3    H145577   6.177   6.731  13.721  0.9310  0.5782  0.8097
 8054TIP3    H245578   6.120   6.749  13.582 -0.7589 -2.3124  1.0748
 8055TIP3   OH245579   1.149   4.868  16.224 -0.1354  0.3733  0.0418
 8055TIP3    H145580   1.243   4.860  16.204 -1.1382 -1.1904 -4.9869
 8055TIP3    H245581   1.136   4.810  16.299  3.2463  2.3627  2.2963
 8056TIP3   OH245582   1.622   6.768   0.128 -0.2621  0.0068  0.2692
 8056TIP3    H145583   1.616   6.706   0.055  0.0752  0.9491 -0.5661
 8056TIP3    H245584   1.577   6.724   0.200  2.3189 -2.3977  0.5014
 8057TIP3   OH245585   3.177   5.860   2.835  0.1491 -0.2009  0.3688
 8057TIP3    H145586   3.097   5.818   2.867 -0.9051  1.8151  0.4643
 8057TIP3    H245587   3.193   5.822   2.749  0.0436 -1.8489  1.0723
 8058TIP3   OH245588   5.747   3.290  13.202 -0.2955  0.1956 -0.1298
 8058TIP3    H145589   5.767   3.307  13.109  0.6937  2.0473  0.3921
 8058TIP3    H245590   5.807   3.347  13.250 -0.9081 -0.6353  1.6610
 8059TIP3   OH245591   4.452   4.154   1.863 -0.0153  0.2266  0.0017
 8059TIP3    H145592   4.420   4.164   1.953 -1.1083  0.7739 -0.4380
 8059TIP3    H245593   4.545   4.135   1.873 -0.2315 -0.2381  1.2700
 8060TIP3   OH245594   5.785   5.154  13.420 -0.1366 -0.1582 -0.5814
 8060TIP3    H145595   5.695   5.134  13.395  0.4418 -1.8389 -1.4037
 8060TIP3    H245596   5.827   5.182  13.338  0.9514 -2.6682 -0.9225
 8061TIP3   OH245597   6.123   2.551   0.587  0.7053  0.3052 -0.1248
 8061TIP3    H145598   6.158   2.486   0.525  1.5945 -0.5519  1.2505
 8061TIP3    H245599   6.193   2.562   0.652  1.1861  3.7539 -1.1133
 8062TIP3   OH245600   4.549   6.578  13.117 -0.3644 -0.5164 -0.1957
 8062TIP3    H145601   4.542   6.495  13.069 -1.6257  0.0084 -0.9607
 8062TIP3    H245602   4.554   6.645  13.048 -0.1247  0.0986  0.4126
 8063TIP3   OH245603   3.992   3.594   1.634 -0.7132 -0.3641 -0.1851
 8063TIP3    H145604   3.906   3.622   1.667 -1.7826 -1.6335 -1.8131
 8063TIP3    H245605   3.998   3.502   1.659 -0.3644 -0.6073 -1.1461
 8064TIP3   OH245606   5.295   6.017  11.270  0.3601  1.4685  0.0312
 8064TIP3    H145607   5.389   6.034  11.278  0.6348  0.4677 -0.9402
 8064TIP3    H245608   5.280   5.943  11.329  0.3672  1.0130 -0.5342
 8065TIP3   OH245609   1.718   4.849   4.664 -0.4190  0.0384  0.5943
 8065TIP3    H145610   1.742   4.774   4.609 -1.8913 -0.4099  0.5286
 8065TIP3    H245611   1.695   4.810   4.748 -1.6315  0.3567  0.4190
 8066TIP3   OH245612   4.929   4.092   0.783  0.1801  0.2805  0.0153
 8066TIP3    H145613   5.019   4.069   0.761  0.0478  0.7237 -1.0566
 8066TIP3    H245614   4.876   4.028   0.735 -0.0365 -1.6153  2.7145
 8067TIP3   OH245615   1.581   3.516  11.390 -0.1219  0.0669  0.1057
 8067TIP3    H145616   1.547   3.461  11.319  0.1468 -0.5950  0.4818
 8067TIP3    H245617   1.669   3.481  11.406 -0.4052 -0.1647  1.1610
 8068TIP3   OH245618   2.138   3.980   3.803  0.3460 -0.1971  0.3147
 8068TIP3    H145619   2.106   3.999   3.715  3.1600 -1.2764 -0.9688
 8068TIP3    H245620   2.216   4.034   3.812  0.7929 -1.0534  1.6832
 8069TIP3   OH245621   1.675   4.103   2.165  0.1916  0.4386 -0.8300
 8069TIP3    H145622   1.595   4.099   2.112 -0.4357  1.0149  0.0692
 8069TIP3    H245623   1.715   4.017   2.153 -0.2934  0.3276 -1.7069
 8070TIP3   OH245624   6.240   2.473   1.269  0.3241 -0.4062  0.1410
 8070TIP3    H145625   6.183   2.521   1.329 -1.2914 -1.2765 -0.6473
 8070TIP3    H245626   6.283   2.407   1.323  1.4756  1.0006  0.9587
 8071TIP3   OH245627   5.100   2.592  16.565  0.4707  0.1157 -0.2319
 8071TIP3    H145628   5.109   2.539  16.644 -0.0312 -1.8960 -1.5054
 8071TIP3    H245629   5.154   2.669  16.583  0.3350 -0.2705  2.0887
 8072TIP3   OH245630   2.185   4.312  14.471  1.2085 -0.6175  0.2210
 8072TIP3    H145631   2.106   4.270  14.437  0.8334  0.0271  0.2957
 8072TIP3    H245632   2.198   4.272  14.557  1.3978 -1.2732 -0.1041
 8073TIP3   OH245633   6.598   1.512   5.796  0.1608  0.0962 -0.8236
 8073TIP3    H145634   6.519   1.558   5.823 -0.1657 -0.8025 -0.2060
 8073TIP3    H245635   6.668   1.576   5.804  0.1260 -0.1969  2.4830
 8074TIP3   OH245636   5.620   3.950   1.782  0.6963  0.3373  0.1060
 8074TIP3    H145637   5.715   3.946   1.790  0.7234  0.7916  0.0558
 8074TIP3    H245638   5.591   3.989   1.865  0.5791  0.4781 -0.0019
 8075TIP3   OH245639   0.694   5.279  14.299  0.0511 -0.2776  0.1528
 8075TIP3    H145640   0.606   5.243  14.312  0.5288 -1.6808 -0.3452
 8075TIP3    H245641   0.726   5.298  14.387 -0.2891 -0.9301  0.4237
 8076TIP3   OH245642   2.101   5.969   4.983 -0.1806 -0.4746 -0.3990
 8076TIP3    H145643   2.073   5.992   5.072 -1.2472 -1.2234 -0.5318
 8076TIP3    H245644   2.152   5.889   4.995  1.4624  0.5869 -0.2218
 8077TIP3   OH245645   4.802   4.034  15.332  0.1006 -0.0971 -0.8785
 8077TIP3    H145646   4.743   4.069  15.265  0.7710 -2.2909 -2.6505
 8077TIP3    H245647   4.778   3.942  15.339  1.9369 -0.5306 -0.1049
 8078TIP3   OH245648   1.696   1.229  12.250 -0.1425 -0.6111  0.2357
 8078TIP3    H145649   1.648   1.300  12.293  0.9986 -0.4075  1.2046
 8078TIP3    H245650   1.647   1.150  12.273 -1.8470 -0.0698 -1.4741
 8079TIP3   OH245651   2.143   5.697   1.800  0.1340  0.0336  0.2911
 8079TIP3    H145652   2.227   5.724   1.765  0.4980 -0.4714  0.7589
 8079TIP3    H245653   2.107   5.638   1.733  0.6033 -0.5361  0.5337
 8080TIP3   OH245654   6.064   1.403   2.113  0.0904  0.9869 -0.6182
 8080TIP3    H145655   6.097   1.475   2.059 -1.7820  1.9941 -0.4408
 8080TIP3    H245656   5.975   1.388   2.082 -0.0506 -0.2525  0.3548
 8081TIP3   OH245657   6.418   6.437   1.321 -0.2877  0.5473 -0.3500
 8081TIP3    H145658   6.327   6.462   1.310 -0.2641  0.6566 -0.3021
 8081TIP3    H245659   6.417   6.367   1.387 -0.5978 -1.3264 -2.3002
 8082TIP3   OH245660   0.935   4.580  15.949 -0.8643  0.4377  0.6583
 8082TIP3    H145661   1.025   4.577  15.979  0.0038  0.6913 -1.8360
 8082TIP3    H245662   0.889   4.517  16.005  0.6333  1.0293  2.5925
 8083TIP3   OH245663   0.923   6.728  11.106  0.6066 -0.2996 -0.2681
 8083TIP3    H145664   0.905   6.761  11.018  1.4229 -0.0004 -0.3301
 8083TIP3    H245665   1.015   6.700  11.103  0.3999 -1.0512  0.2548
 8084TIP3   OH245666   2.065   1.398  13.647  0.2540  0.2580  0.0278
 8084TIP3    H145667   2.009   1.476  13.653  1.5034  1.1138  0.6213
 8084TIP3    H245668   2.005   1.325  13.664 -0.3955  1.2609  2.1504
 8085TIP3   OH245669   1.224   1.423   3.835 -0.6391  0.1523 -0.1572
 8085TIP3    H145670   1.159   1.362   3.802 -0.1658 -0.5759  0.2449
 8085TIP3    H245671   1.286   1.369   3.885  1.7183  0.4586 -2.6325
 8086TIP3   OH245672   2.644   0.143   2.357 -0.2047  0.6497  0.6635
 8086TIP3    H145673   2.641   0.095   2.440  0.1784  1.3365  1.0823
 8086TIP3    H245674   2.584   0.095   2.299 -0.6187  0.2726  1.3922
 8087TIP3   OH245675   5.998   6.061   3.899  0.3357 -0.0211  0.4451
 8087TIP3    H145676   6.032   6.149   3.916 -0.7328  0.3851  0.4874
 8087TIP3    H245677   5.947   6.070   3.819  0.9109 -0.7835 -0.0126
 8088TIP3   OH245678   6.437   5.593   4.699 -0.2699 -0.5052  0.5248
 8088TIP3    H145679   6.371   5.591   4.768  0.5934 -0.4138  1.3504
 8088TIP3    H245680   6.399   5.540   4.629 -1.7301  0.4924  0.5315
 8089TIP3   OH245681   4.846   6.473   1.884 -0.4900 -0.1050  0.3187
 8089TIP3    H145682   4.794   6.447   1.960  2.3519 -3.5923  1.2028
 8089TIP3    H245683   4.904   6.541   1.917 -0.8869  0.0904  0.6287
 8090TIP3   OH245684   0.103   4.261   0.283 -0.6247 -0.0440 -0.3498
 8090TIP3    H145685   0.064   4.233   0.201 -0.8556  2.0904 -1.0039
 8090TIP3    H245686   0.034   4.311   0.327 -0.2694 -0.5621  0.8240
 8091TIP3   OH245687   5.897   0.039   3.766  0.1521  0.8421  0.1428
 8091TIP3    H145688   5.948   0.117   3.742  0.4263  0.0291 -2.0359
 8091TIP3    H245689   5.807   0.072   3.777  1.0685  2.2874  4.0468
 8092TIP3   OH245690   2.419   6.537   4.685  0.3859  0.0863  0.6791
 8092TIP3    H145691   2.453   6.577   4.766 -1.3865 -1.6807  2.3498
 8092TIP3    H245692   2.498   6.513   4.636  1.5397 -0.2061  2.5962
 8093TIP3   OH245693   4.373   5.591   4.610  0.1905  0.0694 -0.2427
 8093TIP3    H145694   4.303   5.532   4.638 -0.8638  0.3559 -2.2455
 8093TIP3    H245695   4.359   5.603   4.516  2.4607  0.7666 -0.5188
 8094TIP3   OH245696   1.448   5.056  12.292 -0.2663  0.1090  0.1503
 8094TIP3    H145697   1.520   5.037  12.352 -0.0400  2.5368  0.7194
 8094TIP3    H245698   1.429   5.149  12.307 -1.6531  0.1985 -1.9987
 8095TIP3   OH245699   3.588   1.559   1.234  0.2875 -0.3250  1.1996
 8095TIP3    H145700   3.521   1.620   1.205  1.2948  0.3764  0.2924
 8095TIP3    H245701   3.545   1.473   1.232 -0.2846 -0.0210 -0.3954
 8096TIP3   OH245702   5.524   4.022   6.757 -0.1996  0.3347  0.1507
 8096TIP3    H145703   5.480   4.054   6.679  0.1449  1.5026  0.4245
 8096TIP3    H245704   5.616   4.044   6.744  0.5140 -2.9376 -0.8567
 8097TIP3   OH245705   5.182   5.459   0.948 -0.1770  0.2029  0.3609
 8097TIP3    H145706   5.244   5.399   0.988  1.7213  0.2651 -2.2963
 8097TIP3    H245707   5.215   5.546   0.969  1.4016  0.2320 -2.0904
 8098TIP3   OH245708   6.740   0.365   5.423  0.2165  0.3828  0.0705
 8098TIP3    H145709   6.653   0.346   5.457  0.2074 -0.4468 -0.3941
 8098TIP3    H245710   6.786   0.408   5.495 -0.7637  1.3278  0.1221
 8099TIP3   OH245711   5.305   5.689  11.311 -0.3534  0.1312 -0.0685
 8099TIP3    H145712   5.242   5.685  11.239 -1.1127 -0.5895  0.6289
 8099TIP3    H245713   5.387   5.714  11.269 -0.8980  0.2097 -1.1136
 8100TIP3   OH245714   2.365   1.660  15.023 -0.0327 -0.0015 -0.5539
 8100TIP3    H145715   2.455   1.629  15.029 -0.2080 -0.9153 -2.2994
 8100TIP3    H245716   2.326   1.605  14.955 -2.4212 -0.8339  1.4324
 8101TIP3   OH245717   4.649   5.657   6.244 -0.0746  0.2232  0.0886
 8101TIP3    H145718   4.583   5.707   6.293 -0.4763  0.1380 -0.3658
 8101TIP3    H245719   4.666   5.580   6.300 -0.2715  0.3047  0.2626
 8102TIP3   OH245720   1.122   1.123   2.989 -0.7624 -0.1450 -0.3511
 8102TIP3    H145721   1.066   1.166   3.054  0.5692  1.1238 -0.0278
 8102TIP3    H245722   1.192   1.083   3.040  0.3188  0.9040 -1.0106
 8103TIP3   OH245723   0.464   2.857   4.289  0.7837 -0.4208  0.1123
 8103TIP3    H145724   0.529   2.891   4.351  0.0329  1.9867 -0.3723
 8103TIP3    H245725   0.510   2.853   4.206  1.0072 -1.0581  0.2642
 8104TIP3   OH245726   3.819   4.144  12.982 -0.4490 -0.6806  0.6446
 8104TIP3    H145727   3.735   4.104  12.963 -0.8929 -0.0067  1.1418
 8104TIP3    H245728   3.844   4.188  12.901  0.1279 -2.0991  0.0426
 8105TIP3   OH245729   4.258   0.446  14.233  0.1460  0.0927  0.9830
 8105TIP3    H145730   4.349   0.476  14.238  0.1046  0.0611  2.0422
 8105TIP3    H245731   4.207   0.520  14.267 -0.2577  0.2043  0.1703
 8106TIP3   OH245732   6.588   0.095  16.201  0.4290 -0.2741  0.2304
 8106TIP3    H145733   6.629   0.095  16.115 -1.2419 -0.7915 -0.5756
 8106TIP3    H245734   6.504   0.051  16.189 -0.5230  1.0162  1.7713
 8107TIP3   OH245735   4.001   4.706  13.767 -0.3420 -0.0400  0.1268
 8107TIP3    H145736   3.971   4.650  13.695  0.5839 -0.6262  0.1859
 8107TIP3    H245737   4.096   4.699  13.764 -0.2744  0.5044  0.9625
 8108TIP3   OH245738   1.092   0.401  13.360 -0.1269  0.3355 -0.2649
 8108TIP3    H145739   1.159   0.460  13.325  0.9049 -0.7014 -0.0868
 8108TIP3    H245740   1.009   0.444  13.340  0.5171  0.7350 -2.2021
 8109TIP3   OH245741   0.570   5.582   3.821  0.1651 -0.3272 -0.0089
 8109TIP3    H145742   0.650   5.576   3.769  0.2862  1.3280 -0.0094
 8109TIP3    H245743   0.532   5.494   3.816  1.0212 -0.6173 -1.5393
 8110TIP3   OH245744   3.928   6.467   3.004  0.1073  0.2111  0.0461
 8110TIP3    H145745   3.935   6.559   2.982  2.1154  0.2782  0.8881
 8110TIP3    H245746   4.017   6.434   3.000 -0.4235 -1.4033  0.9566
 8111TIP3   OH245747   1.669   4.952  13.119  0.3940  0.0074 -0.4711
 8111TIP3    H145748   1.603   4.990  13.061 -0.7131 -1.8268 -0.4465
 8111TIP3    H245749   1.659   4.857  13.108  1.4417 -0.3344  1.3116
 8112TIP3   OH245750   3.346   4.986  14.998 -0.1491  0.4073 -0.0543
 8112TIP3    H145751   3.399   5.056  14.961  0.5195 -0.7178 -1.2752
 8112TIP3    H245752   3.392   4.961  15.078  0.1213  0.7246 -0.1098
 8113TIP3   OH245753   1.222   2.093   4.479  0.1692 -1.1832  0.5539
 8113TIP3    H145754   1.177   2.175   4.458  0.3193 -1.0773  0.6482
 8113TIP3    H245755   1.168   2.053   4.547  0.8901 -0.4541  1.5719
 8114TIP3   OH245756   0.809   4.186  12.940  0.1426 -0.1327  0.2174
 8114TIP3    H145757   0.734   4.220  12.988  0.8871  1.1031  0.5364
 8114TIP3    H245758   0.774   4.115  12.886 -1.7339  2.0538 -1.5492
 8115TIP3   OH245759   3.987   1.975  15.095 -0.4179  0.2296 -0.3419
 8115TIP3    H145760   3.955   1.887  15.076  1.5291 -1.1562  2.4283
 8115TIP3    H245761   3.910   2.023  15.126 -1.5020 -0.4715 -1.8968
 8116TIP3   OH245762   1.800   6.066   2.052  0.0068 -0.0938  0.0388
 8116TIP3    H145763   1.854   6.052   2.129  1.6358 -0.9577 -1.2245
 8116TIP3    H245764   1.842   6.014   1.983 -0.6521  1.6907 -1.7676
 8117TIP3   OH245765   2.487   1.121  12.814  0.4681 -0.2251 -0.0341
 8117TIP3    H145766   2.414   1.168  12.855  1.1711  0.5620  0.3369
 8117TIP3    H245767   2.510   1.053  12.876  0.3675 -0.1619  0.0719
 8118TIP3   OH245768   1.602   6.497  16.362 -0.2222  0.0400 -0.1084
 8118TIP3    H145769   1.532   6.509  16.425  0.2311  1.5445  0.1401
 8118TIP3    H245770   1.557   6.481  16.279 -0.8262 -0.6175  0.3361
 8119TIP3   OH245771   3.546   5.685   5.983 -0.0901 -0.0143 -0.3052
 8119TIP3    H145772   3.608   5.735   5.930  1.3869 -0.8248  0.6337
 8119TIP3    H245773   3.569   5.706   6.073 -2.3433  1.0515  0.0563
 8120TIP3   OH245774   1.157   2.708  10.485  0.1296  0.2632 -0.0153
 8120TIP3    H145775   1.209   2.663  10.551  1.6988  0.7720 -0.8706
 8120TIP3    H245776   1.166   2.801  10.506  0.3395  0.4072 -0.7126
 8121TIP3   OH245777   0.634   5.021   2.806  0.7067 -0.1649 -0.0271
 8121TIP3    H145778   0.647   5.041   2.714  1.6363  0.3440  0.2134
 8121TIP3    H245779   0.539   5.011   2.815  0.5436  0.6127 -0.8692
 8122TIP3   OH245780   2.075   5.948  16.548 -0.1845  1.3061 -0.3778
 8122TIP3    H145781   2.070   5.901  16.631  2.8661 -0.5811 -1.2156
 8122TIP3    H245782   2.161   5.989  16.548  0.0766  0.8351 -2.8207
 8123TIP3   OH245783   1.298   2.661   0.849 -0.0719  0.2599  0.5518
 8123TIP3    H145784   1.224   2.615   0.888 -0.5118  1.2354  0.8931
 8123TIP3    H245785   1.259   2.738   0.807  0.4423 -0.5464 -1.4507
 8124TIP3   OH245786   2.082   6.010   0.579  0.0142 -0.0186  0.1870
 8124TIP3    H145787   2.003   6.024   0.631  0.6091  2.4568  0.4670
 8124TIP3    H245788   2.062   6.047   0.493 -0.0833 -1.8772 -0.6180
 8125TIP3   OH245789   0.678   5.061   5.107  0.1389 -0.3357 -0.6652
 8125TIP3    H145790   0.758   5.112   5.114  0.1382 -0.3156 -0.8028
 8125TIP3    H245791   0.705   4.978   5.068  0.3161 -0.8496  0.5294
 8126TIP3   OH245792   2.933   1.790   2.323  0.2387 -0.3832 -0.4744
 8126TIP3    H145793   2.981   1.759   2.399  0.5476 -0.2279 -0.6076
 8126TIP3    H245794   2.896   1.711   2.283 -1.2807 -0.3278  0.7561
 8127TIP3   OH245795   3.494   4.487   3.953  0.3741 -0.0662 -0.2050
 8127TIP3    H145796   3.498   4.443   3.869 -1.1269  0.4700 -0.5711
 8127TIP3    H245797   3.559   4.442   4.007  0.4766 -1.2083 -1.2637
 8128TIP3   OH245798   6.134   3.978   1.370 -0.2669  0.4130  0.2872
 8128TIP3    H145799   6.188   4.053   1.395 -0.5351 -0.2054  2.8185
 8128TIP3    H245800   6.064   4.016   1.317  0.1577  1.8230  0.7018
 8129TIP3   OH245801   6.024   4.353  15.339 -0.8946  0.7544 -0.5066
 8129TIP3    H145802   6.067   4.342  15.424 -0.7119 -0.8074 -0.7948
 8129TIP3    H245803   6.062   4.434  15.304  3.8957 -1.9073 -1.9484
 8130TIP3   OH245804   1.711   2.674   5.322 -0.1081 -0.1103  0.0623
 8130TIP3    H145805   1.665   2.593   5.300 -2.0153  0.7823  0.6439
 8130TIP3    H245806   1.658   2.713   5.392  1.0836  1.3735  0.1610
 8131TIP3   OH245807   2.897   0.433  14.325  0.7705  0.5110  0.4027
 8131TIP3    H145808   2.829   0.414  14.390  0.5324 -0.4166 -0.1035
 8131TIP3    H245809   2.921   0.347  14.291  0.4027  1.0509 -1.2417
 8132TIP3   OH245810   3.254   4.695   4.599 -0.2340 -0.0102  0.5372
 8132TIP3    H145811   3.258   4.599   4.594  0.0747 -0.0080  0.7435
 8132TIP3    H245812   3.229   4.722   4.510  0.4475 -0.2420  0.2702
 8133TIP3   OH245813   6.570   1.719   0.773 -0.0582 -0.0896 -0.0956
 8133TIP3    H145814   6.566   1.796   0.716  2.2066  0.8982  1.0160
 8133TIP3    H245815   6.563   1.645   0.713 -1.2524  0.9714 -1.2967
 8134TIP3   OH245816   0.831   1.312   2.032  0.2609  0.2673  0.3457
 8134TIP3    H145817   0.764   1.337   1.969 -0.4452  0.2012  1.0606
 8134TIP3    H245818   0.796   1.234   2.075  1.2163 -0.3332  0.0732
 8135TIP3   OH245819   4.211   1.428  11.769  0.1004 -0.0928 -0.1893
 8135TIP3    H145820   4.147   1.365  11.800  0.5131 -0.8007 -0.7678
 8135TIP3    H245821   4.291   1.408  11.819  0.3267 -0.2474 -0.6082
 8136TIP3   OH245822   2.036   2.852  16.520  0.2494  0.0433 -0.0678
 8136TIP3    H145823   2.071   2.849  16.431  0.6621 -0.2048  0.1032
 8136TIP3    H245824   2.097   2.909  16.568 -0.3712  0.7554 -0.1184
 8137TIP3   OH245825   3.827   1.409  14.978  0.4160  0.0690 -0.0018
 8137TIP3    H145826   3.893   1.445  14.918 -0.4920  2.0135  0.1482
 8137TIP3    H245827   3.768   1.360  14.922  0.3516  0.7359 -0.5187
 8138TIP3   OH245828   5.252   1.267  12.456 -0.1949  0.1393 -0.3760
 8138TIP3    H145829   5.293   1.316  12.528  0.1677 -0.0246 -0.4695
 8138TIP3    H245830   5.302   1.292  12.379 -1.4876  1.4230 -0.8176
 8139TIP3   OH245831   3.895   2.565  15.688 -0.0242  0.5311  0.3377
 8139TIP3    H145832   3.814   2.611  15.668  0.1186  0.9207  0.6591
 8139TIP3    H245833   3.963   2.616  15.645 -0.1314 -0.7712 -1.4331
 8140TIP3   OH245834   6.254   1.256  10.718 -1.1512 -0.1323  0.5426
 8140TIP3    H145835   6.311   1.331  10.701 -0.7186 -0.5447  0.1022
 8140TIP3    H245836   6.172   1.277  10.673 -1.8254  1.0470  2.2816
 8141TIP3   OH245837   5.488   4.832   5.944  0.2897 -0.3229  0.8889
 8141TIP3    H145838   5.581   4.853   5.950  0.9324 -2.4140 -1.1213
 8141TIP3    H245839   5.478   4.754   5.998  0.5872 -2.5890 -2.1944
 8142TIP3   OH245840   3.933   1.532   3.094  0.5319  0.2121 -0.3953
 8142TIP3    H145841   4.014   1.581   3.083  0.8875 -0.3401 -0.2505
 8142TIP3    H245842   3.919   1.489   3.010  1.3782 -1.1763  0.1531
 8143TIP3   OH245843   2.060   5.065   2.607  0.0113 -0.5865 -0.3409
 8143TIP3    H145844   2.112   5.100   2.679 -1.5166  2.6758 -0.7195
 8143TIP3    H245845   2.124   5.043   2.540  1.2895 -1.8170  1.2379
 8144TIP3   OH245846   0.631   2.191  10.858  0.2169  0.3522 -0.0235
 8144TIP3    H145847   0.559   2.250  10.881 -0.7814 -0.7422 -0.3147
 8144TIP3    H245848   0.591   2.124  10.804  1.3117 -0.7295  0.4823
 8145TIP3   OH245849   2.441   4.443   0.832 -0.2391 -0.1521  0.1734
 8145TIP3    H145850   2.503   4.370   0.819  1.0484  0.6527  1.5613
 8145TIP3    H245851   2.451   4.465   0.925 -0.2346  2.1241 -0.3442
 8146TIP3   OH245852   1.259   6.674   2.435  0.3529 -0.2017  0.5600
 8146TIP3    H145853   1.166   6.692   2.423  0.5611  0.9766  0.7149
 8146TIP3    H245854   1.296   6.756   2.468  1.2786 -0.9387  1.3917
 8147TIP3   OH245855   3.520   1.253   5.383  0.2425 -0.7588 -0.0479
 8147TIP3    H145856   3.458   1.199   5.432 -0.7224 -0.8868 -1.3828
 8147TIP3    H245857   3.606   1.221   5.411 -0.2868 -0.8480  1.5155
 8148TIP3   OH245858   0.106   4.235   1.350 -0.1723 -0.2643 -0.6024
 8148TIP3    H145859   0.161   4.205   1.278 -0.1416 -0.4158 -0.5170
 8148TIP3    H245860   0.166   4.250   1.423  0.0888  2.0261 -1.2507
 8149TIP3   OH245861   5.245   3.339   0.336 -0.6838 -0.4947  0.0619
 8149TIP3    H145862   5.311   3.391   0.291 -1.2597  0.4607  0.2967
 8149TIP3    H245863   5.179   3.320   0.269 -0.2293 -1.3477 -0.1443
 8150TIP3   OH245864   1.096   1.458  14.788 -0.1979 -0.2062  0.4073
 8150TIP3    H145865   1.087   1.553  14.787  0.9885 -0.0984 -2.1143
 8150TIP3    H245866   1.172   1.439  14.733 -1.6412 -2.7258 -0.8277
 8151TIP3   OH245867   5.195   1.400  16.276  0.4674  0.3039  0.2128
 8151TIP3    H145868   5.187   1.459  16.201  1.8950 -1.9433 -1.7754
 8151TIP3    H245869   5.116   1.347  16.274  0.4537  0.3188  0.3572
 8152TIP3   OH245870   5.060   2.295  16.772 -0.5277 -0.1433  0.0612
 8152TIP3    H145871   5.151   2.287  16.800 -0.5939  0.4280  0.4582
 8152TIP3    H245872   5.037   2.386  16.792 -0.1023  0.7915 -3.3359
 8153TIP3   OH245873   6.275   5.977  12.886  0.0004  0.5454 -0.1548
 8153TIP3    H145874   6.245   5.970  12.795  2.3945 -0.8785 -0.8729
 8153TIP3    H245875   6.367   6.002  12.880  0.6918 -1.3209  1.8121
 8154TIP3   OH245876   5.267   2.814  12.699 -0.1110  0.3677 -0.7427
 8154TIP3    H145877   5.348   2.767  12.713 -1.5711 -1.3050  2.6766
 8154TIP3    H245878   5.223   2.766  12.629  1.4540  0.8153 -2.0575
 8155TIP3   OH245879   6.295   3.060  12.802  0.1903  0.1435 -0.2512
 8155TIP3    H145880   6.356   3.122  12.840 -1.4359  0.2620  2.3019
 8155TIP3    H245881   6.218   3.112  12.781  0.2177 -0.3533 -1.5946
 8156TIP3   OH245882   0.492   0.994   1.486 -0.4253 -0.1090  0.4570
 8156TIP3    H145883   0.560   1.009   1.421 -0.1575 -0.8881  0.5530
 8156TIP3    H245884   0.412   0.983   1.435 -0.0731 -1.5912  0.1839
 8157TIP3   OH245885   1.808   0.332   5.034 -0.0529  0.7930  0.5817
 8157TIP3    H145886   1.878   0.394   5.057  0.9446  0.0639 -0.4374
 8157TIP3    H245887   1.789   0.351   4.942  0.9662 -1.0601 -0.0368
 8158TIP3   OH245888   0.231   6.727   4.401  0.5316 -0.2728 -0.6753
 8158TIP3    H145889   0.270   6.811   4.427  0.0410 -0.3041  0.1922
 8158TIP3    H245890   0.137   6.745   4.397  0.3373 -0.9828  0.3504
 8159TIP3   OH245891   4.426   3.381  16.880 -0.1333 -0.6130  0.1086
 8159TIP3    H145892   4.403   3.402  16.971 -1.1764  0.7653 -0.4429
 8159TIP3    H245893   4.521   3.371  16.881  0.3009  2.7476  0.7536
 8160TIP3   OH245894   3.805   4.845   4.175 -0.6314 -0.3646  0.4583
 8160TIP3    H145895   3.872   4.892   4.226 -0.5222 -2.7495  2.6375
 8160TIP3    H245896   3.723   4.884   4.203 -0.3791  0.3908  0.1757
 8161TIP3   OH245897   2.307   1.695  11.859  0.2932 -0.6561  0.3527
 8161TIP3    H145898   2.286   1.602  11.866  1.0875 -0.8186  0.5422
 8161TIP3    H245899   2.395   1.704  11.896  0.1900  0.1826  0.4201
 8162TIP3   OH245900   1.869   5.568  10.457 -0.0565 -0.0991  0.4137
 8162TIP3    H145901   1.867   5.562  10.553  1.0959  0.7323  0.5012
 8162TIP3    H245902   1.890   5.480  10.428 -1.5133 -0.6114  0.8785
 8163TIP3   OH245903   4.614   1.560   6.046  0.0204  0.6141  0.2878
 8163TIP3    H145904   4.666   1.512   6.112  0.2254  0.7646  0.2354
 8163TIP3    H245905   4.523   1.550   6.076  0.2491  2.1894  1.5769
 8164TIP3   OH245906   0.071   1.438   3.317 -0.4907 -0.7209 -0.4927
 8164TIP3    H145907   0.077   1.373   3.386  0.8415  0.3401  0.4092
 8164TIP3    H245908   0.087   1.389   3.236  1.6064 -1.3307  0.2640
 8165TIP3   OH245909   4.138   1.540  16.231 -0.1733 -0.0114 -0.7537
 8165TIP3    H145910   4.176   1.582  16.154  1.6336 -0.9992 -0.4255
 8165TIP3    H245911   4.212   1.528  16.291 -1.0970 -1.4907  0.1293
 8166TIP3   OH245912   0.152   1.684  15.189  0.1107  0.5130 -0.0839
 8166TIP3    H145913   0.165   1.777  15.173 -1.3090  0.8489  0.6126
 8166TIP3    H245914   0.139   1.646  15.103  2.6882  0.6120 -0.5570
 8167TIP3   OH245915   5.410   2.928  15.162  0.2838  0.3206  0.2366
 8167TIP3    H145916   5.390   2.837  15.184  0.7742  0.4575  1.2636
 8167TIP3    H245917   5.402   2.932  15.066 -3.2993  0.0807  0.4608
 8168TIP3   OH245918   6.545   0.347   3.600 -0.0258 -0.2359  0.3006
 8168TIP3    H145919   6.591   0.429   3.579 -0.8345  0.7002  2.1142
 8168TIP3    H245920   6.580   0.320   3.684 -0.9270 -0.9069  0.4693
 8169TIP3   OH245921   4.470   5.913   3.964 -0.0593 -0.4170 -0.2049
 8169TIP3    H145922   4.429   5.908   3.877 -0.3456 -0.2319 -0.0803
 8169TIP3    H245923   4.564   5.909   3.946 -0.1418 -1.6506 -0.4443
 8170TIP3   OH245924   4.165   5.678  13.939 -0.1164 -0.1083 -0.1774
 8170TIP3    H145925   4.162   5.626  13.858 -0.1579 -0.8000  0.2658
 8170TIP3    H245926   4.232   5.744  13.922 -1.4922  0.9875 -1.5131
 8171TIP3   OH245927   5.295   0.387  14.499 -0.5865  0.5181  0.0285
 8171TIP3    H145928   5.334   0.334  14.429 -0.4142  1.8670 -0.9145
 8171TIP3    H245929   5.369   0.428  14.543 -0.7669  0.6706  0.1959
 8172TIP3   OH245930   1.801   6.643  12.784  0.2634  0.2924 -0.1987
 8172TIP3    H145931   1.885   6.598  12.791 -0.5198 -1.2065 -0.0487
 8172TIP3    H245932   1.812   6.703  12.711  1.0516 -0.8496 -1.0464
 8173TIP3   OH245933   0.179   1.441   4.574 -0.0781 -0.0058  0.2465
 8173TIP3    H145934   0.251   1.390   4.611 -0.6760 -2.1563 -1.4238
 8173TIP3    H245935   0.109   1.435   4.638  1.4078  2.6746  2.2070
 8174TIP3   OH245936   3.019   6.559   4.081  0.1477 -0.4908 -0.1506
 8174TIP3    H145937   3.081   6.607   4.136 -0.1693  0.0675 -0.2691
 8174TIP3    H245938   3.045   6.580   3.991 -1.0447  0.8788 -0.2101
 8175TIP3   OH245939   2.647   0.728   2.596 -0.2310 -0.2856 -0.1734
 8175TIP3    H145940   2.596   0.784   2.654 -0.5189  0.9704 -1.5930
 8175TIP3    H245941   2.582   0.687   2.538  0.2175  0.0684 -0.9433
 8176TIP3   OH245942   5.633   5.409  15.596 -0.7891 -0.3633  0.4300
 8176TIP3    H145943   5.538   5.416  15.600 -0.7910 -0.5671  0.7462
 8176TIP3    H245944   5.650   5.317  15.578 -0.6896 -0.0342 -1.2807
 8177TIP3   OH245945   4.361   0.891  10.817 -0.5303 -0.4172 -0.1607
 8177TIP3    H145946   4.418   0.815  10.802 -0.7829 -0.3471 -1.5412
 8177TIP3    H245947   4.307   0.896  10.738 -1.8424  0.0556  0.7447
 8178TIP3   OH245948   5.831   4.790  11.162  0.1579  0.0988 -0.6575
 8178TIP3    H145949   5.794   4.752  11.081 -1.4807 -0.5085  0.3497
 8178TIP3    H245950   5.824   4.719  11.226 -0.8585  1.3790  0.6705
 8179TIP3   OH245951   1.551   5.261  15.681 -0.0400  0.3780  0.3786
 8179TIP3    H145952   1.491   5.240  15.752  0.8643  1.2541  1.4325
 8179TIP3    H245953   1.636   5.228  15.710 -0.0864 -1.3207 -1.3238
 8180TIP3   OH245954   2.959   3.866   0.031  0.3185  0.4399  0.1820
 8180TIP3    H145955   2.865   3.869   0.046  0.0197 -0.4216 -1.4318
 8180TIP3    H245956   2.987   3.784   0.071  0.3323  0.5254  0.3495
 8181TIP3   OH245957   1.531   5.513   5.712 -0.7746  0.1933 -0.2777
 8181TIP3    H145958   1.526   5.422   5.739 -1.2104  0.5454  0.8791
 8181TIP3    H245959   1.553   5.561   5.793  1.4052  0.9041 -1.2330
 8182TIP3   OH245960   6.048   5.065  11.465 -0.4111  0.2565  0.3187
 8182TIP3    H145961   6.051   5.005  11.539  1.3288 -0.6767 -0.4665
 8182TIP3    H245962   6.140   5.080  11.442 -0.8621  2.2069 -0.3158
 8183TIP3   OH245963   1.349   0.390   3.114 -0.1103  0.6574 -0.1804
 8183TIP3    H145964   1.315   0.424   3.197 -0.9180 -1.6850  0.4907
 8183TIP3    H245965   1.429   0.343   3.138  0.6621  1.5220 -1.0079
 8184TIP3   OH245966   0.050   5.960  13.075 -0.2348  0.0647  0.4480
 8184TIP3    H145967  -0.005   6.015  13.131 -1.2900 -0.5378  0.0103
 8184TIP3    H245968   0.067   6.015  12.998  1.4246  0.9886  1.4362
 8185TIP3   OH245969   4.754   5.799   2.759 -0.0537 -0.3051  0.2873
 8185TIP3    H145970   4.685   5.749   2.804 -1.0508  0.3816 -0.4604
 8185TIP3    H245971   4.731   5.890   2.775 -0.0959 -0.0655 -1.1362
 8186TIP3   OH245972   0.002   6.444  13.081 -0.7803  0.3389 -0.4862
 8186TIP3    H145973  -0.086   6.433  13.116 -1.3443 -2.4519 -2.6773
 8186TIP3    H245974   0.056   6.383  13.131 -0.5984  0.1599 -0.8935
 8187TIP3   OH245975   4.746   1.337   1.825 -0.1334 -0.3160 -0.8629
 8187TIP3    H145976   4.812   1.336   1.755  1.5709  0.3261  0.6795
 8187TIP3    H245977   4.719   1.246   1.833  0.7102 -0.6219 -1.3893
 8188TIP3   OH245978   5.367   5.534   6.004  0.0458 -0.3769  0.2588
 8188TIP3    H145979   5.427   5.608   5.992  0.2479 -0.7105 -0.8687
 8188TIP3    H245980   5.288   5.559   5.956  0.7677 -1.6217 -1.6707
 8189TIP3   OH245981   2.477   2.302  13.267  0.9207 -0.4930  0.4571
 8189TIP3    H145982   2.457   2.218  13.224  1.8905 -2.5954  3.8673
 8189TIP3    H245983   2.571   2.313  13.255  0.7999  0.0645  0.0518
 8190TIP3   OH245984   1.006   3.823  15.839  0.8657 -0.4439  0.1597
 8190TIP3    H145985   0.955   3.855  15.765  1.8198 -1.9659 -1.1872
 8190TIP3    H245986   1.093   3.860  15.826  0.4805  1.1036  1.7627
 8191TIP3   OH245987   6.286   5.426  13.364 -0.1540 -0.2409 -0.0272
 8191TIP3    H145988   6.324   5.345  13.398  1.2622 -0.0546 -1.1374
 8191TIP3    H245989   6.338   5.446  13.286 -2.4022  0.1183 -1.4717
 8192TIP3   OH245990   3.945   5.741  15.375 -0.4982  0.0569 -0.5130
 8192TIP3    H145991   4.013   5.675  15.360 -0.2271  0.5501 -1.4897
 8192TIP3    H245992   3.864   5.690  15.384 -0.5165 -0.3583 -2.6476
 8193TIP3   OH245993   4.770   4.095  12.178  0.2342 -0.3964 -0.0812
 8193TIP3    H145994   4.691   4.114  12.229 -0.6722  0.2433 -1.6924
 8193TIP3    H245995   4.751   4.130  12.091  1.1059 -2.9210 -1.3288
 8194TIP3   OH245996   1.683   0.040  13.118  0.9577 -0.0110 -0.1445
 8194TIP3    H145997   1.641   0.076  13.040  1.7468 -1.1851 -1.1389
 8194TIP3    H245998   1.776   0.033  13.093  1.2876  0.0365  1.0622
 8195TIP3   OH245999   1.918   1.111   4.549  0.1206 -0.4022 -0.0842
 8195TIP3    H146000   1.929   1.205   4.531 -1.5228 -0.2543 -0.4118
 8195TIP3    H246001   1.883   1.108   4.638 -1.4947 -0.6007 -0.7143
 8196TIP3   OH246002   1.795   3.588  12.619 -0.0838 -0.4362  0.6494
 8196TIP3    H146003   1.700   3.576  12.615 -0.3343  0.6915  2.7572
 8196TIP3    H246004   1.814   3.594  12.712  2.0591 -0.5041  0.2303
 8197TIP3   OH246005   6.232   6.550   2.150 -0.0726  0.2539 -0.3324
 8197TIP3    H146006   6.285   6.545   2.229  0.6205  0.9533 -0.7378
 8197TIP3    H246007   6.180   6.630   2.162 -0.5836 -0.0977 -0.2083
 8198TIP3   OH246008   6.613   5.274   0.850 -0.0374  0.0170  0.2469
 8198TIP3    H146009   6.686   5.212   0.842 -0.1129 -0.2902  1.8892
 8198TIP3    H246010   6.622   5.330   0.773  3.1606  1.2612  1.4158
 8199TIP3   OH246011   4.810   3.975   5.315  0.1816  0.8684  0.5401
 8199TIP3    H146012   4.813   4.060   5.360 -0.4319  2.5254 -2.4016
 8199TIP3    H246013   4.717   3.963   5.294  0.2542 -0.5994  0.9944
 8200TIP3   OH246014   1.714   4.649   0.126 -0.2217  0.0881  0.3471
 8200TIP3    H146015   1.769   4.584   0.084  2.5165  0.1492  3.6574
 8200TIP3    H246016   1.772   4.724   0.142 -1.7763  0.9965  2.0032
 8201TIP3   OH246017   0.808   4.382  16.108  0.3096 -0.2467 -0.0902
 8201TIP3    H146018   0.720   4.367  16.073  0.1544 -0.7826  0.5193
 8201TIP3    H246019   0.802   4.358  16.200  0.2167  2.9499  0.8237
 8202TIP3   OH246020   6.646   1.051   3.783 -0.4586 -0.4200  0.4072
 8202TIP3    H146021   6.582   1.054   3.712  0.9706 -1.4689 -0.9462
 8202TIP3    H246022   6.713   1.115   3.758  0.4221 -1.3274  0.4457
 8203TIP3   OH246023   2.833   0.880  15.754 -0.3392 -0.2668 -0.0252
 8203TIP3    H146024   2.920   0.850  15.728 -0.2433  0.5060 -0.6118
 8203TIP3    H246025   2.778   0.802  15.745  0.4612 -1.0036  1.2615
 8204TIP3   OH246026   0.942   4.800  12.054  0.1799 -0.5344  0.1550
 8204TIP3    H146027   1.010   4.748  12.097  0.2989  0.4351  1.1672
 8204TIP3    H246028   0.988   4.879  12.024 -0.5845  0.3135  1.2093
 8205TIP3   OH246029   3.375   2.619  12.737 -0.1434 -0.1177 -0.6686
 8205TIP3    H146030   3.317   2.643  12.810 -2.2440 -1.7381 -1.7606
 8205TIP3    H246031   3.462   2.615  12.777 -1.2061 -0.6985  1.7276
 8206TIP3   OH246032   6.436   1.690  11.120 -0.0474  0.2817  0.2567
 8206TIP3    H146033   6.504   1.721  11.059 -0.3785  0.0333 -0.2441
 8206TIP3    H246034   6.428   1.760  11.185  2.3621 -0.7131  1.6698
 8207TIP3   OH246035   5.809   5.792  13.454 -0.0563 -0.1242 -0.4783
 8207TIP3    H146036   5.868   5.866  13.444  0.2004 -0.2531  0.1066
 8207TIP3    H246037   5.866   5.715  13.451  0.0166 -0.1777  1.9078
 8208TIP3   OH246038   2.933   2.468  13.203  0.6241  0.0021  0.4408
 8208TIP3    H146039   2.961   2.403  13.138 -0.4129 -1.2924  1.2644
 8208TIP3    H246040   2.960   2.431  13.287 -1.4091 -0.1547  1.0511
 8209TIP3   OH246041   0.353   5.730   4.229  0.1287 -0.2848  0.2312
 8209TIP3    H146042   0.424   5.793   4.242 -0.2842 -0.0636  1.5360
 8209TIP3    H246043   0.309   5.727   4.314 -1.2314 -0.6530 -0.4825
 8210TIP3   OH246044   0.216   6.254   3.316  0.5149  0.5056 -0.1783
 8210TIP3    H146045   0.211   6.348   3.333 -1.3379  0.1814  1.2487
 8210TIP3    H246046   0.165   6.242   3.235 -1.0807  0.4699  0.8140
 8211TIP3   OH246047   0.561   1.914   5.843 -0.2710  0.5980  0.3890
 8211TIP3    H146048   0.473   1.928   5.807  0.2310 -2.1789 -2.1130
 8211TIP3    H246049   0.619   1.962   5.785  0.0665  0.6029  0.7292
 8212TIP3   OH246050   4.395   5.629   3.467  0.3760 -0.1973 -0.4593
 8212TIP3    H146051   4.325   5.680   3.425  0.1421  0.6229  0.8745
 8212TIP3    H246052   4.385   5.541   3.431 -1.7758 -0.2549  0.1854
 8213TIP3   OH246053   3.747   6.137   5.707  0.5132 -0.1158  0.0864
 8213TIP3    H146054   3.735   6.212   5.648 -0.2173 -1.6842 -1.8423
 8213TIP3    H246055   3.781   6.068   5.650 -1.7715 -2.1831  1.1499
 8214TIP3   OH246056   3.575   5.001   4.230  0.1454  0.3074 -0.7622
 8214TIP3    H146057   3.611   5.089   4.243 -4.0293  2.0372 -0.0217
 8214TIP3    H246058   3.566   4.992   4.135  2.7688 -0.3165 -0.9833
 8215TIP3   OH246059   6.516   2.910  16.686  0.3260 -0.1385  0.0183
 8215TIP3    H146060   6.497   2.816  16.691  2.5946 -0.6279 -0.1991
 8215TIP3    H246061   6.528   2.927  16.593 -1.1479  0.6006 -0.0470
 8216TIP3   OH246062   2.372   5.833   3.169 -0.7264 -0.0832 -0.4907
 8216TIP3    H146063   2.459   5.796   3.154 -0.0957  0.5970  1.2421
 8216TIP3    H246064   2.313   5.758   3.169 -0.2402 -0.4809 -2.3153
 8217TIP3   OH246065   5.155   1.795  13.891 -0.0480  0.4854  0.5792
 8217TIP3    H146066   5.071   1.828  13.860 -0.5920  0.2906  1.8093
 8217TIP3    H246067   5.139   1.768  13.982  0.7538 -1.7713  0.0849
 8218TIP3   OH246068   0.093   4.036   3.704 -0.5996  0.1103  0.2619
 8218TIP3    H146069   0.095   4.041   3.608 -1.3010  0.1149  0.2445
 8218TIP3    H246070   0.123   4.122   3.733  1.4762 -0.5248  0.0668
 8219TIP3   OH246071   5.484   0.689  14.112 -0.6214 -0.4423  0.4404
 8219TIP3    H146072   5.425   0.683  14.188  1.3522  0.1765  2.0759
 8219TIP3    H246073   5.512   0.599  14.097  0.2331 -0.3673  1.5004
 8220TIP3   OH246074   3.725   5.718  12.284  0.2582 -0.2275 -0.2330
 8220TIP3    H146075   3.643   5.761  12.257 -1.1730 -0.6102  3.2249
 8220TIP3    H246076   3.781   5.790  12.313 -0.1378 -0.2099  0.5192
 8221TIP3   OH246077   2.950   4.838   3.975  0.3528  0.3379 -0.4053
 8221TIP3    H146078   2.999   4.756   3.984  0.4040  0.2753 -1.2605
 8221TIP3    H246079   2.986   4.895   4.043 -0.4788 -0.7355  0.9530
 8222TIP3   OH246080   3.011   5.089   0.129  0.1008  0.1810  0.0563
 8222TIP3    H146081   2.990   5.066   0.220  0.6325 -1.4740 -0.2173
 8222TIP3    H246082   3.025   5.005   0.086  1.2375  1.0078 -1.2335
 8223TIP3   OH246083   3.129   0.404  12.800 -0.1017  0.4961 -0.3311
 8223TIP3    H146084   3.111   0.388  12.893  0.8616 -1.1461 -0.4212
 8223TIP3    H246085   3.060   0.357  12.754 -0.3841  1.0391 -0.4692
 8224TIP3   OH246086   0.824   0.322   4.913  0.3575 -0.9680  0.4173
 8224TIP3    H146087   0.730   0.301   4.917  0.1925 -0.3694 -0.1974
 8224TIP3    H246088   0.865   0.260   4.973 -0.2647 -2.1812 -0.3929
 8225TIP3   OH246089   4.540   3.078  11.870 -0.1048 -0.3373 -0.5813
 8225TIP3    H146090   4.453   3.106  11.897 -0.3071 -1.4984  0.0173
 8225TIP3    H246091   4.529   2.985  11.848  1.4464 -1.0583  1.5969
 8226TIP3   OH246092   0.899   2.232   3.986  0.1819 -0.3818  0.3189
 8226TIP3    H146093   0.813   2.204   4.018  0.0073  1.1827  1.2744
 8226TIP3    H246094   0.889   2.239   3.891 -0.6036 -0.6920  0.3806
 8227TIP3   OH246095   4.366   4.553   6.350 -0.3660 -0.1243 -0.0431
 8227TIP3    H146096   4.407   4.637   6.371  1.2310 -0.4475 -1.7693
 8227TIP3    H246097   4.289   4.577   6.298  0.4390  0.2303 -1.0711
 8228TIP3   OH246098   5.784   5.216  15.113  0.4315 -0.3099  0.0375
 8228TIP3    H146099   5.776   5.225  15.018 -0.7038  1.1344  0.2632
 8228TIP3    H246100   5.734   5.137  15.134 -0.1225 -0.0788 -0.4395
 8229TIP3   OH246101   5.088   0.660   5.483  0.9842 -0.3619 -0.0695
 8229TIP3    H146102   5.085   0.736   5.540 -1.7027  1.3346 -2.3484
 8229TIP3    H246103   5.015   0.605   5.511  1.1399 -0.6881 -0.2963
 8230TIP3   OH246104   2.653   4.103  14.300 -0.4458  0.0266  0.0162
 8230TIP3    H146105   2.713   4.141  14.365 -0.3581  1.1425 -0.7023
 8230TIP3    H246106   2.570   4.095  14.346 -0.8179  2.3574 -0.1960
 8231TIP3   OH246107   2.410   0.417   5.279  0.0039  0.4279  0.1678
 8231TIP3    H146108   2.332   0.371   5.247  1.9174 -1.9950 -1.1647
 8231TIP3    H246109   2.391   0.435   5.371 -1.7044 -1.0727  0.1334
 8232TIP3   OH246110   0.301   1.916  16.947  0.5086  0.6989 -0.3012
 8232TIP3    H146111   0.285   1.964  17.029  0.5280 -0.8158  0.6000
 8232TIP3    H246112   0.275   1.977  16.878 -0.2516  1.7075  0.8552
 8233TIP3   OH246113   0.372   1.302   4.723 -0.1001 -0.2544 -1.1244
 8233TIP3    H146114   0.431   1.237   4.684 -0.5258 -1.4121  0.1446
 8233TIP3    H246115   0.430   1.362   4.770 -0.0341 -2.9654  2.4682
 8234TIP3   OH246116   0.548   6.394  13.839  0.5291 -0.3599 -0.0247
 8234TIP3    H146117   0.587   6.480  13.848  1.6132 -0.8912  0.3574
 8234TIP3    H246118   0.473   6.408  13.780  0.6128  0.8570  0.1532
 8235TIP3   OH246119   3.766   0.098  11.459  0.5476 -0.3569 -0.1406
 8235TIP3    H146120   3.755   0.079  11.366 -1.7667  2.7988 -0.6104
 8235TIP3    H246121   3.702   0.041  11.503 -0.8387  0.6484 -0.8173
 8236TIP3   OH246122   3.835   5.289   3.244  0.4402 -0.0310 -0.6491
 8236TIP3    H146123   3.890   5.352   3.198  1.5757  0.1583  0.9247
 8236TIP3    H246124   3.807   5.335   3.323  0.0344 -0.9719 -0.2414
 8237TIP3   OH246125   2.370   1.275   5.117  0.0913  0.7059 -0.4413
 8237TIP3    H146126   2.450   1.314   5.154 -0.3330  0.6388  0.5587
 8237TIP3    H246127   2.368   1.307   5.027  0.3752  2.0563  0.0067
 8238TIP3   OH246128   2.446   3.677  15.408 -0.1420  0.2358 -0.3226
 8238TIP3    H146129   2.520   3.629  15.370 -1.0436 -0.6318 -1.0167
 8238TIP3    H246130   2.460   3.671  15.502 -0.8657 -2.4573 -0.3512
 8239TIP3   OH246131   0.092   2.687  16.594 -0.4060 -0.3710 -0.1925
 8239TIP3    H146132   0.140   2.749  16.539 -0.8549  1.1725  1.1366
 8239TIP3    H246133   0.037   2.639  16.532 -0.7883  1.2307 -1.1354
 8240TIP3   OH246134   0.159   5.601   0.650  0.4740  0.5740  0.1451
 8240TIP3    H146135   0.210   5.651   0.714 -0.9453  1.6291  0.4704
 8240TIP3    H246136   0.115   5.668   0.597 -0.0583 -0.3138 -0.5381
 8241TIP3   OH246137   5.887   0.873   0.258  0.6524  0.2281  0.0576
 8241TIP3    H146138   5.853   0.819   0.330  1.2663  0.7498  0.7508
 8241TIP3    H246139   5.933   0.811   0.202  1.1676 -0.0154  0.7348
 8242TIP3   OH246140   2.381   3.233   3.672 -0.0159 -0.4309  0.3619
 8242TIP3    H146141   2.352   3.175   3.601  0.2956 -0.6506  0.4114
 8242TIP3    H246142   2.302   3.252   3.722  0.0889 -1.8348  1.0838
 8243TIP3   OH246143   5.548   4.352  11.648 -0.2024  0.2070 -0.1879
 8243TIP3    H146144   5.610   4.380  11.715  0.0860  2.4038 -1.3586
 8243TIP3    H246145   5.470   4.406  11.663 -1.0154 -0.9332 -0.1780
 8244TIP3   OH246146   2.138   1.785   5.897  0.2616  0.3774  0.3945
 8244TIP3    H146147   2.154   1.871   5.938  0.4726 -0.1057  1.3435
 8244TIP3    H246148   2.043   1.776   5.898  0.2550  0.4621  0.5734
 8245TIP3   OH246149   0.693   0.866  15.510 -0.5459  0.4494 -0.8192
 8245TIP3    H146150   0.784   0.892  15.522  0.4350 -2.4013 -1.5330
 8245TIP3    H246151   0.669   0.901  15.424 -0.3210  1.7084 -0.3710
 8246TIP3   OH246152   6.391   2.659  13.973 -0.5437  0.3388  0.0440
 8246TIP3    H146153   6.484   2.642  13.988  0.3365  2.6902 -2.3568
 8246TIP3    H246154   6.356   2.676  14.061  1.7589  1.4527  0.7984
 8247TIP3   OH246155   1.339   6.038  14.889  0.2376 -0.1810 -0.0208
 8247TIP3    H146156   1.298   5.965  14.843 -0.9764  0.5662 -0.1738
 8247TIP3    H246157   1.367   6.098  14.820  3.3069 -1.5096 -0.0161
 8248TIP3   OH246158   4.749   2.947  14.164  0.6737  0.2931  0.1419
 8248TIP3    H146159   4.804   3.019  14.137  1.6857 -0.8080 -0.7741
 8248TIP3    H246160   4.758   2.944  14.260 -0.3843  2.1508  0.3289
 8249TIP3   OH246161   4.501   0.940  13.619  0.1902 -0.0076 -0.6476
 8249TIP3    H146162   4.567   0.872  13.635  0.4013  0.2566 -0.3874
 8249TIP3    H246163   4.428   0.915  13.675 -0.2454 -0.7455 -1.5414
 8250TIP3   OH246164   3.022   5.161   1.728  0.5371  0.2064  0.0135
 8250TIP3    H146165   3.101   5.159   1.783  0.7942  0.8501 -0.3380
 8250TIP3    H246166   2.975   5.081   1.753  1.7609 -0.6804 -0.4531
 8251TIP3   OH246167   0.812   2.942   2.488  0.3141  0.5276 -0.7134
 8251TIP3    H146168   0.724   2.933   2.523  0.8488 -0.6121  0.3523
 8251TIP3    H246169   0.860   2.865   2.520  2.0056  1.6938 -0.3259
 8252TIP3   OH246170   3.543   2.124   5.852 -0.1995  0.1223 -0.3750
 8252TIP3    H146171   3.516   2.165   5.770 -1.0872  0.8125  0.2566
 8252TIP3    H246172   3.560   2.198   5.911 -1.3270 -0.4098  0.6233
 8253TIP3   OH246173   4.814   4.626   0.302 -0.0083  0.6298  0.1763
 8253TIP3    H146174   4.720   4.641   0.315  0.2051  2.5300 -0.3599
 8253TIP3    H246175   4.822   4.531   0.292 -1.8460  0.4311  0.4462
 8254TIP3   OH246176   3.674   2.956  13.933  0.6965  0.2913 -0.1616
 8254TIP3    H146177   3.590   2.918  13.957  1.6807 -1.7317  0.1849
 8254TIP3    H246178   3.654   3.048  13.914 -1.6469 -0.2527 -0.5099
 8255TIP3   OH246179   6.256   1.802   2.212  0.2642  0.7325  0.0755
 8255TIP3    H146180   6.161   1.807   2.226  0.2566  1.6866 -0.2856
 8255TIP3    H246181   6.286   1.737   2.274 -0.5295  0.9723  0.7156
 8256TIP3   OH246182   6.757   0.135  13.991  0.4441 -0.1490  0.5152
 8256TIP3    H146183   6.787   0.055  13.949  0.1379 -0.9633  1.8470
 8256TIP3    H246184   6.792   0.131  14.080 -1.4497  0.0956  1.3035
 8257TIP3   OH246185   3.970   1.779   3.987 -0.5593 -0.3094  0.4000
 8257TIP3    H146186   4.060   1.809   3.999 -1.5873  1.8378  3.2470
 8257TIP3    H246187   3.963   1.701   4.043 -0.1240 -1.3114 -0.9033
 8258TIP3   OH246188   1.011   5.519  15.569  0.1044 -1.1542  0.0820
 8258TIP3    H146189   0.961   5.595  15.598 -0.9887 -1.4810 -0.9032
 8258TIP3    H246190   0.966   5.490  15.489  0.7728 -2.5685  0.2100
 8259TIP3   OH246191   0.501   4.604  14.432 -0.2376  0.3572 -0.1651
 8259TIP3    H146192   0.520   4.696  14.450 -0.8050  0.2483  1.0586
 8259TIP3    H246193   0.502   4.597  14.336 -1.7540  1.9801 -0.3230
 8260TIP3   OH246194   2.770   2.597  16.865  0.7074 -0.4176 -0.0795
 8260TIP3    H146195   2.762   2.556  16.952 -2.6075 -0.4442 -0.3367
 8260TIP3    H246196   2.815   2.531  16.812  2.2695 -0.6226  1.4200
 8261TIP3   OH246197   4.002   2.537   3.252 -0.0413 -0.3855  0.0831
 8261TIP3    H146198   4.040   2.471   3.193  0.1185  1.0407 -1.4739
 8261TIP3    H246199   4.072   2.555   3.315  0.2808 -0.9780 -0.0980
 8262TIP3   OH246200   5.709   3.222   2.481  0.0036 -0.1132 -0.1117
 8262TIP3    H146201   5.704   3.245   2.388  0.4646  1.0684  0.1502
 8262TIP3    H246202   5.769   3.286   2.519  1.1852 -1.6173  0.6727
 8263TIP3   OH246203   5.845   6.569  15.424 -0.1338 -0.0596  0.1819
 8263TIP3    H146204   5.755   6.540  15.411 -0.1884 -0.9168  2.3127
 8263TIP3    H246205   5.847   6.602  15.514  1.5628  0.3721 -0.0041
 8264TIP3   OH246206   2.060   4.568   3.456 -0.3624  0.3820  0.0792
 8264TIP3    H146207   2.029   4.503   3.393 -1.0540  0.2465  0.5487
 8264TIP3    H246208   2.044   4.653   3.413 -0.4313  0.2771 -0.1027
 8265TIP3   OH246209   1.502   1.646  13.958 -0.1233 -0.0677 -0.4088
 8265TIP3    H146210   1.587   1.687  13.943 -0.6606  0.3054 -2.5192
 8265TIP3    H246211   1.523   1.568  14.010  1.7050 -0.8201 -2.1941
 8266TIP3   OH246212   2.233   6.477   1.309  0.7969  0.4663 -0.4239
 8266TIP3    H146213   2.280   6.394   1.314 -0.9987 -0.5339 -0.0506
 8266TIP3    H246214   2.226   6.506   1.400 -2.1460 -1.0225 -0.1158
 8267TIP3   OH246215   6.629   6.328   3.377 -0.5514  0.2956  0.0758
 8267TIP3    H146216   6.589   6.407   3.339  0.6486  0.1608 -1.5216
 8267TIP3    H246217   6.714   6.358   3.409  0.1965 -0.4759 -1.1532
 8268TIP3   OH246218   1.557   2.136  12.556 -0.2475 -0.0492 -0.1705
 8268TIP3    H146219   1.608   2.185  12.620 -1.0146  2.1897 -1.2123
 8268TIP3    H246220   1.559   2.190  12.477 -1.6015 -1.4263 -1.1802
 8269TIP3   OH246221   3.401   6.244  15.499  0.9476 -0.2094 -0.3389
 8269TIP3    H146222   3.450   6.224  15.419  2.9374  0.7719  0.5830
 8269TIP3    H246223   3.413   6.338  15.512 -0.2302 -0.1694  0.5524
 8270TIP3   OH246224   5.709   5.873   0.007  0.0035  0.7012 -0.1421
 8270TIP3    H146225   5.659   5.821  -0.056 -0.5514 -0.0611  0.9032
 8270TIP3    H246226   5.799   5.873  -0.027 -0.0186 -0.8478 -0.2226
 8271TIP3   OH246227   5.215   4.403  14.480  0.4297 -0.3750  0.2536
 8271TIP3    H146228   5.185   4.411  14.570 -0.3260  0.0177 -0.0288
 8271TIP3    H246229   5.279   4.332  14.482  0.1432 -0.6100  1.0317
 8272TIP3   OH246230   0.112   5.321   5.636 -0.6097 -0.2991  0.0447
 8272TIP3    H146231   0.188   5.277   5.675  0.6133  0.2161 -1.7016
 8272TIP3    H246232   0.149   5.396   5.590 -2.3555  0.7869  0.3857
 8273TIP3   OH246233   2.429   3.467   3.175  0.4013 -1.0581 -0.0244
 8273TIP3    H146234   2.425   3.534   3.243  1.3390 -0.3452 -0.6400
 8273TIP3    H246235   2.467   3.513   3.099 -0.7166 -1.8048 -1.0516
 8274TIP3   OH246236   6.562   2.807  15.218  0.1332 -0.0383  1.0171
 8274TIP3    H146237   6.586   2.899  15.233 -2.8398  1.0825 -0.6014
 8274TIP3    H246238   6.481   2.796  15.269 -1.8911 -0.4754 -2.1940
 8275TIP3   OH246239   4.090   2.518  10.280 -0.7346 -0.3578 -0.1535
 8275TIP3    H146240   4.071   2.459  10.353  0.0721 -0.2824  0.1166
 8275TIP3    H246241   4.142   2.466  10.220 -2.4203 -0.7990 -1.2604
 8276TIP3   OH246242   2.146   4.221   1.670  0.0594 -0.5629  0.2702
 8276TIP3    H146243   2.158   4.131   1.699 -0.7218 -1.1137 -1.0637
 8276TIP3    H246244   2.054   4.241   1.688 -0.1316 -0.5203 -0.7216
 8277TIP3   OH246245   2.300   0.272  15.159  0.5920 -0.4081 -0.0879
 8277TIP3    H146246   2.301   0.191  15.108 -1.8682 -0.7788  0.3941
 8277TIP3    H246247   2.295   0.243  15.250 -1.0433  0.2679  0.0520
 8278TIP3   OH246248   0.733   0.976  12.210  0.0983  0.5848  0.0625
 8278TIP3    H146249   0.778   1.033  12.148 -2.8542  2.3332 -0.5530
 8278TIP3    H246250   0.751   0.887  12.179  0.3182  1.3692 -2.1066
 8279TIP3   OH246251   6.737   0.408  11.808 -0.3785 -0.1064  0.0992
 8279TIP3    H146252   6.667   0.473  11.813 -1.6001 -1.5322  1.7003
 8279TIP3    H246253   6.692   0.325  11.797  1.1002 -0.9516  0.3535
 8280TIP3   OH246254   6.180   6.737  11.566 -0.3068 -0.0147 -0.3054
 8280TIP3    H146255   6.139   6.653  11.546 -0.9355 -0.2980  1.9765
 8280TIP3    H246256   6.114   6.783  11.619  1.4337  0.4680  1.4789
 8281TIP3   OH246257   5.101   0.698   5.839 -0.3859 -0.0708  0.1853
 8281TIP3    H146258   5.043   0.727   5.768 -0.5141 -0.9913 -0.0826
 8281TIP3    H246259   5.115   0.605   5.823  2.7506  0.5314 -0.8540
 8282TIP3   OH246260   3.756   2.621   0.928  0.6458 -0.2932  0.9949
 8282TIP3    H146261   3.730   2.707   0.961 -0.1529 -0.2752  0.3698
 8282TIP3    H246262   3.820   2.640   0.860 -1.8357  0.0513 -1.3612
 8283TIP3   OH246263   2.333   3.873  11.229 -0.4289  0.5201 -0.4123
 8283TIP3    H146264   2.372   3.865  11.316  2.4517 -0.0922 -1.7144
 8283TIP3    H246265   2.328   3.783  11.197 -2.2076  0.6712 -0.6096
 8284TIP3   OH246266   4.285   1.104  14.166 -0.1829 -0.1943 -0.2960
 8284TIP3    H146267   4.199   1.085  14.127  0.1885 -1.6023 -0.4312
 8284TIP3    H246268   4.331   1.152  14.098 -0.3517 -0.6734 -0.7506
 8285TIP3   OH246269   1.342   3.050   2.955  0.8191  0.1004  0.3294
 8285TIP3    H146270   1.330   2.984   3.023 -0.1853 -1.0172 -0.9014
 8285TIP3    H246271   1.303   3.011   2.876  0.5381  1.9982 -0.5113
 8286TIP3   OH246272   4.481   5.992  14.419  0.0412  0.2365 -0.1692
 8286TIP3    H146273   4.574   6.014  14.408 -0.4059  2.9620  1.2877
 8286TIP3    H246274   4.454   5.962  14.332  2.1788 -0.2209 -0.7137
 8287TIP3   OH246275   3.227   2.959  12.630  0.1755 -0.0137  0.2520
 8287TIP3    H146276   3.210   2.873  12.594 -2.6003  0.7650 -0.3736
 8287TIP3    H246277   3.281   3.003  12.563  0.2500 -0.7029 -0.1430
 8288TIP3   OH246278   6.226   1.906   3.142  0.0967  0.5142  0.3604
 8288TIP3    H146279   6.290   1.935   3.207 -0.0837 -0.6923  1.0870
 8288TIP3    H246280   6.146   1.954   3.164  0.1977  0.5423  0.6639
 8289TIP3   OH246281   5.423   6.576   1.765 -0.1905  0.3664 -0.2233
 8289TIP3    H146282   5.443   6.573   1.859 -1.4282 -1.5675  0.0112
 8289TIP3    H246283   5.429   6.669   1.743 -0.5519  0.9461  1.9209
 8290TIP3   OH246284   2.390   4.545   1.160 -0.5530  0.2208 -0.6190
 8290TIP3    H146285   2.299   4.575   1.162 -0.2330  1.1919  1.4864
 8290TIP3    H246286   2.442   4.626   1.168  0.4239 -0.4988  0.4383
 8291TIP3   OH246287   3.696   0.662   0.244  0.4762 -0.2712 -0.3053
 8291TIP3    H146288   3.624   0.720   0.220  0.5995 -0.1365 -0.3536
 8291TIP3    H246289   3.725   0.623   0.161  0.5376 -0.2323 -0.3025
 8292TIP3   OH246290   1.336   1.883  12.797 -0.8007  0.0487  0.0176
 8292TIP3    H146291   1.298   1.799  12.823  0.6562 -0.8773 -0.7849
 8292TIP3    H246292   1.387   1.863  12.718  0.2732  1.5082  0.3240
 8293TIP3   OH246293   4.990   0.082   1.250 -0.9221  0.4982  0.2239
 8293TIP3    H146294   4.949   0.018   1.308 -0.6188  1.6703  1.7856
 8293TIP3    H246295   4.991   0.163   1.302 -2.5337  2.1220 -2.1980
 8294TIP3   OH246296   2.697   2.385   0.720  0.4754  0.5114 -0.5784
 8294TIP3    H146297   2.604   2.381   0.740  0.3365  0.0439 -1.2969
 8294TIP3    H246298   2.717   2.301   0.678  1.3660  0.3293  0.1871
 8295TIP3   OH246299   6.205   3.230  11.637  0.4622  0.3259  0.0321
 8295TIP3    H146300   6.153   3.150  11.627 -1.2085  1.2250  1.3063
 8295TIP3    H246301   6.227   3.256  11.547  0.2527 -1.0652 -0.4308
 8296TIP3   OH246302   1.389   2.977  11.757 -0.4928  0.4046 -0.4479
 8296TIP3    H146303   1.450   3.016  11.821 -1.4895  0.7579  0.3069
 8296TIP3    H246304   1.423   3.004  11.672  0.6220  0.2801 -0.0484
 8297TIP3   OH246305   5.813   4.542   1.293 -0.3851  0.6270 -0.0717
 8297TIP3    H146306   5.768   4.614   1.338 -2.3405 -0.4988 -0.1602
 8297TIP3    H246307   5.893   4.581   1.258 -1.1697  2.6293  0.3130
 8298TIP3   OH246308   4.817   2.090   0.628  0.1080 -0.4694 -1.1699
 8298TIP3    H146309   4.730   2.049   0.628  0.5139 -1.3310 -1.2040
 8298TIP3    H246310   4.878   2.017   0.618  0.9607 -0.1375  1.1738
 8299TIP3   OH246311   4.208   2.334  17.177 -0.2865  0.2417  0.0040
 8299TIP3    H146312   4.279   2.340  17.241 -1.7686 -1.1018  1.8417
 8299TIP3    H246313   4.201   2.241  17.158 -1.2129  0.4176 -0.5490
 8300TIP3   OH246314   1.425   2.594   5.093  0.0029 -0.1847  0.3645
 8300TIP3    H146315   1.346   2.638   5.061  0.8056  1.2905  0.3928
 8300TIP3    H246316   1.492   2.614   5.028  0.3967 -1.3550  0.3922
 8301TIP3   OH246317   6.295   1.739   4.744 -0.3126  0.2893  0.0193
 8301TIP3    H146318   6.325   1.820   4.785 -1.7365  0.2102  1.2337
 8301TIP3    H246319   6.274   1.764   4.654  1.9721  0.6454 -0.4434
 8302TIP3   OH246320   1.491   0.986  14.829  0.0319  0.2480 -0.6661
 8302TIP3    H146321   1.471   1.078  14.811 -2.2132  0.7818  3.7178
 8302TIP3    H246322   1.581   0.987  14.863 -0.0973  0.9072 -0.3290
 8303TIP3   OH246323   4.345   1.517   3.308 -0.1035  0.4070 -0.3245
 8303TIP3    H146324   4.434   1.484   3.321  0.4035  1.0499 -2.0748
 8303TIP3    H246325   4.319   1.550   3.394  0.4338 -1.9199  0.7962
 8304TIP3   OH246326   5.961   4.417  12.899 -0.2731 -0.0567 -0.0960
 8304TIP3    H146327   5.887   4.356  12.902 -0.7887  0.5645  0.0195
 8304TIP3    H246328   6.017   4.384  12.829  0.4741 -1.8158  1.2816
 8305TIP3   OH246329   3.428   4.697   0.976  0.3326  0.0713  0.3553
 8305TIP3    H146330   3.422   4.602   0.962 -0.7849  0.5692 -2.9674
 8305TIP3    H246331   3.349   4.719   1.026  0.4221 -0.6832  0.8342
 8306TIP3   OH246332   0.994   1.797   6.443 -0.8856 -0.5240  0.2482
 8306TIP3    H146333   0.947   1.846   6.511 -0.5991  1.2400 -0.7961
 8306TIP3    H246334   1.072   1.763   6.488 -2.2651 -1.9992  1.5586
 8307TIP3   OH246335   1.248   2.179   3.633 -0.4366 -0.7353  0.2092
 8307TIP3    H146336   1.165   2.151   3.595  0.5292 -3.6636  0.1462
 8307TIP3    H246337   1.248   2.142   3.721 -1.0909  3.0118  1.9009
 8308TIP3   OH246338   2.065   0.292  13.865 -0.3468 -0.3800 -0.3923
 8308TIP3    H146339   2.006   0.326  13.798 -1.4196  0.2934  0.8566
 8308TIP3    H246340   2.129   0.362  13.879  0.0196 -0.6190 -0.8919
 8309TIP3   OH246341   2.230   5.859  13.762  0.2632 -0.4089  0.1380
 8309TIP3    H146342   2.169   5.793  13.795  1.9060 -2.5355 -0.9310
 8309TIP3    H246343   2.232   5.844  13.667  0.4190  1.4119 -0.1650
 8310TIP3   OH246344   2.168   4.271  13.447 -0.1278 -0.0590 -0.0194
 8310TIP3    H146345   2.167   4.287  13.541 -0.4097  0.5964 -0.1324
 8310TIP3    H246346   2.226   4.339  13.411  0.1898 -0.4671 -0.2892
 8311TIP3   OH246347   1.491   4.713  10.290 -0.4527 -0.0119 -0.2321
 8311TIP3    H146348   1.574   4.696  10.332 -0.7435  0.7832  0.6843
 8311TIP3    H246349   1.487   4.808  10.281 -1.4495 -0.0102  0.1261
 8312TIP3   OH246350   4.755   6.170   2.304 -0.0808  0.1368  0.0277
 8312TIP3    H146351   4.805   6.090   2.321 -3.1444 -1.4874  1.7508
 8312TIP3    H246352   4.778   6.195   2.215  0.2747 -3.1489 -0.8496
 8313TIP3   OH246353   3.853   0.438   3.646  0.2560 -0.2243 -0.1787
 8313TIP3    H146354   3.890   0.427   3.734 -0.1836  1.4250  0.2401
 8313TIP3    H246355   3.918   0.492   3.600  0.1748 -0.5352 -0.6552
 8314TIP3   OH246356   5.624   1.044   5.119  0.5668 -0.0530  0.1717
 8314TIP3    H146357   5.575   1.059   5.200  1.0668 -3.2103  1.1476
 8314TIP3    H246358   5.694   0.983   5.145  1.7312  0.1814 -2.3134
 8315TIP3   OH246359   1.766   5.931  16.510 -0.4612 -0.3042  0.0236
 8315TIP3    H146360   1.861   5.926  16.517 -0.3197 -0.2704 -1.7124
 8315TIP3    H246361   1.749   6.023  16.490 -0.8735 -0.3135  0.3107
 8316TIP3   OH246362   6.148   6.785  15.095 -0.5580  0.6171  0.3069
 8316TIP3    H146363   6.076   6.765  15.154 -0.5225  1.3765  0.6124
 8316TIP3    H246364   6.157   6.880  15.099  1.2909  0.4179  1.2624
 8317TIP3   OH246365   5.712   4.113   6.235  0.9257 -0.2645 -0.0330
 8317TIP3    H146366   5.623   4.086   6.210  1.1501 -0.7044 -0.3569
 8317TIP3    H246367   5.747   4.039   6.284  1.1121 -0.0897  0.0972
 8318TIP3   OH246368   4.208   1.514  11.034  0.4989 -0.2727 -0.0500
 8318TIP3    H146369   4.133   1.477  10.987  1.0616 -0.3378 -0.9007
 8318TIP3    H246370   4.247   1.439  11.079 -0.2075 -0.1623  0.7768
 8319TIP3   OH246371   3.649   4.724  15.369  1.1181  0.0076  0.2141
 8319TIP3    H146372   3.741   4.721  15.344  1.1694  0.3356  0.3576
 8319TIP3    H246373   3.607   4.659  15.313  1.8075 -1.7717  1.7577
 8320TIP3   OH246374   6.629   4.522   4.960  0.3375  0.1362 -0.0649
 8320TIP3    H146375   6.676   4.439   4.968 -0.5180 -0.4577 -1.0813
 8320TIP3    H246376   6.669   4.578   5.027  1.5456 -0.7883  0.0157
 8321TIP3   OH246377   5.555   2.181   4.435 -0.1215  0.6595 -0.5294
 8321TIP3    H146378   5.576   2.177   4.528  0.1312  0.7857 -0.5814
 8321TIP3    H246379   5.593   2.263   4.405 -2.3952  1.8622 -0.1971
 8322TIP3   OH246380   0.951   4.927  16.044 -0.2213 -0.4319 -0.0437
 8322TIP3    H146381   1.022   4.892  16.098  0.6645  1.0948 -0.1782
 8322TIP3    H246382   0.934   5.013  16.080  0.6604  0.7894 -2.4120
 8323TIP3   OH246383   4.210   4.968   5.024 -0.1382 -0.0097  0.2396
 8323TIP3    H146384   4.168   5.025   4.959  0.4594  0.2688  0.1029
 8323TIP3    H246385   4.267   5.026   5.074  2.4220 -0.9101 -1.5289
 8324TIP3   OH246386   4.374   3.984  10.910 -0.1040  0.3463  0.4843
 8324TIP3    H146387   4.447   4.034  10.872 -0.4110  0.7895  0.4688
 8324TIP3    H246388   4.315   3.969  10.836 -1.2815  2.2390  0.9991
 8325TIP3   OH246389   6.477   1.085   3.564 -0.0686  0.2535  0.2861
 8325TIP3    H146390   6.496   1.061   3.474  0.6434  0.3837  0.4012
 8325TIP3    H246391   6.449   1.176   3.560 -2.3809 -0.4350 -0.0995
 8326TIP3   OH246392   1.543   0.765  15.024  0.4031  0.6147  0.0757
 8326TIP3    H146393   1.499   0.846  14.997  1.2407  0.5623 -1.5167
 8326TIP3    H246394   1.565   0.780  15.116 -0.5950  1.6823  0.1589
 8327TIP3   OH246395   0.233   6.605  14.941  0.3545  0.3746 -0.5129
 8327TIP3    H146396   0.173   6.636  15.009 -1.6805 -0.2359 -1.9832
 8327TIP3    H246397   0.242   6.679  14.881 -1.7283 -0.5994 -2.1342
 8328TIP3   OH246398   1.626   2.707   0.017 -0.1790 -0.4110  0.2649
 8328TIP3    H146399   1.631   2.800   0.038 -0.0187 -1.0914  3.6078
 8328TIP3    H246400   1.671   2.698  -0.067  0.4656  2.4131  0.2818
 8329TIP3   OH246401   6.473   1.092  15.004  0.3529  0.5656 -0.2206
 8329TIP3    H146402   6.557   1.089  15.050  0.4562  0.4933 -0.4175
 8329TIP3    H246403   6.460   1.003  14.972 -0.3769  0.2735  0.8563
 8330TIP3   OH246404   5.099   1.893  15.332  0.2935  0.1114  0.8479
 8330TIP3    H146405   5.122   1.817  15.385 -0.2199  0.2795  1.3134
 8330TIP3    H246406   5.131   1.968  15.383 -2.3862  0.4318  2.1048
 8331TIP3   OH246407   5.570   0.491   2.647 -0.7824  0.0579  0.3942
 8331TIP3    H146408   5.478   0.464   2.641 -0.9309 -0.5510  4.2693
 8331TIP3    H246409   5.613   0.421   2.696  1.0790  1.8065  1.3419
 8332TIP3   OH246410   3.846   4.353   1.411  0.1925  0.4067 -0.0480
 8332TIP3    H146411   3.910   4.385   1.475 -0.4886 -1.3636  1.5581
 8332TIP3    H246412   3.763   4.393   1.436 -0.2205 -0.8468  0.6436
 8333TIP3   OH246413   6.355   4.558  14.967 -0.3051 -0.5116  0.4969
 8333TIP3    H146414   6.425   4.607  14.924 -0.9010 -1.0258 -1.1065
 8333TIP3    H246415   6.397   4.475  14.991 -0.5707 -1.1804 -1.2697
 8334TIP3   OH246416   1.070   1.320  11.968 -0.3028  0.1717  0.5758
 8334TIP3    H146417   1.043   1.273  11.890  2.8087  1.6683 -1.5164
 8334TIP3    H246418   1.154   1.279  11.992  0.0554  1.4635  1.5658
 8335TIP3   OH246419   1.638   5.226  16.060  0.1711 -0.6384 -0.0516
 8335TIP3    H146420   1.687   5.180  15.992 -0.8537  0.1568 -1.3651
 8335TIP3    H246421   1.676   5.314  16.062  0.6546 -0.8666  0.8918
 8336TIP3   OH246422   3.830   1.814  17.179 -0.3574  0.7554  0.1618
 8336TIP3    H146423   3.756   1.758  17.154 -0.0650  1.7569 -3.1585
 8336TIP3    H246424   3.796   1.903  17.170  1.4199  1.2464 -2.0358
 8337TIP3   OH246425   1.715   2.534  15.253 -0.2673 -0.2759 -0.4579
 8337TIP3    H146426   1.797   2.524  15.204 -1.2318  0.4139 -2.2708
 8337TIP3    H246427   1.685   2.622  15.231 -1.2334 -0.3337  0.6064
 8338TIP3   OH246428   3.881   2.527   5.652 -0.1355  0.0848 -0.0760
 8338TIP3    H146429   3.826   2.605   5.658 -0.0443  0.1819 -0.4891
 8338TIP3    H246430   3.971   2.561   5.658 -0.0956  0.0132 -0.2879
 8339TIP3   OH246431   3.479   4.547  17.067 -0.5596  0.0791 -0.0917
 8339TIP3    H146432   3.438   4.620  17.115  1.3945  0.3652  1.1912
 8339TIP3    H246433   3.569   4.575  17.054 -1.1950  0.3799 -4.7661
 8340TIP3   OH246434   4.067   1.110  16.517 -0.3364  0.4487 -0.6508
 8340TIP3    H146435   4.090   1.203  16.520  0.1286  0.3102  1.3556
 8340TIP3    H246436   3.994   1.104  16.456  0.3010  1.9737 -1.5821
 8341TIP3   OH246437   5.157   1.435   1.632  0.2192  0.2532 -0.4081
 8341TIP3    H146438   5.062   1.440   1.633  0.1376 -1.2000  1.1620
 8341TIP3    H246439   5.177   1.349   1.596  0.9774  0.8441 -1.4447
 8342TIP3   OH246440   5.357   1.767   2.688 -0.1231 -0.0488 -0.1151
 8342TIP3    H146441   5.304   1.761   2.768  0.4651 -0.0566  0.2791
 8342TIP3    H246442   5.293   1.775   2.617 -0.7508 -2.7472  0.0951
 8343TIP3   OH246443   5.503   2.653  12.753 -0.0315  0.1170 -0.5522
 8343TIP3    H146444   5.577   2.671  12.810  0.8211  2.3287 -2.2462
 8343TIP3    H246445   5.477   2.563  12.774  0.0928  0.9121  3.3911
 8344TIP3   OH246446   4.670   0.486  17.113 -0.7120  0.1419 -0.5725
 8344TIP3    H146447   4.620   0.567  17.106 -3.1860 -1.1638  0.9220
 8344TIP3    H246448   4.672   0.467  17.207  3.0789  0.3759 -0.5379
 8345TIP3   OH246449   3.754   1.081  14.616  0.3994 -0.4490 -0.1256
 8345TIP3    H146450   3.753   1.176  14.628  2.4491 -0.4517  0.2412
 8345TIP3    H246451   3.674   1.063  14.566 -0.3405  1.3800  0.3288
 8346TIP3   OH246452   2.990   5.721  10.938 -0.1927  0.3632 -0.3234
 8346TIP3    H146453   3.053   5.669  10.888  0.5276 -0.2555  1.2082
 8346TIP3    H246454   2.914   5.663  10.949  0.0501  0.1376  0.1694
 8347TIP3   OH246455   1.947   0.531   1.011 -0.0718 -0.2988 -0.1364
 8347TIP3    H146456   1.902   0.520   1.096  0.5491  0.5395  0.3082
 8347TIP3    H246457   1.940   0.624   0.993  1.4124 -0.1728 -0.1074
 8348TIP3   OH246458   2.242   0.432   0.863 -0.1763 -0.2349  0.4275
 8348TIP3    H146459   2.325   0.464   0.828  0.4485 -2.6892 -0.4807
 8348TIP3    H246460   2.183   0.430   0.788  0.0223 -1.8137  0.2784
 8349TIP3   OH246461   6.727   1.953  13.647  0.3751 -0.1359  0.4418
 8349TIP3    H146462   6.694   2.042  13.657  0.8607 -0.0437  1.2698
 8349TIP3    H246463   6.819   1.958  13.672 -0.0711 -1.2346  2.4414
 8350TIP3   OH246464   1.893   0.024   4.531  0.2302 -0.3695 -0.6732
 8350TIP3    H146465   1.983   0.052   4.511 -0.3033  0.4599 -2.0310
 8350TIP3    H246466   1.881  -0.056   4.481 -0.2464  0.3068 -1.6757
 8351TIP3   OH246467   3.586   0.351   3.599  0.1720 -0.1373  0.0220
 8351TIP3    H146468   3.662   0.383   3.646 -0.7285  0.6031  1.0034
 8351TIP3    H246469   3.610   0.359   3.506  1.0741  0.5827  0.3147
 8352TIP3   OH246470   0.090   4.500   6.809  0.0246 -0.1188  0.3262
 8352TIP3    H146471   0.165   4.471   6.861  0.9145  0.5725 -0.5456
 8352TIP3    H246472   0.027   4.533   6.872  0.6922 -0.1796  1.0236
 8353TIP3   OH246473   6.410   5.129   2.388 -0.2523  0.1536 -0.0094
 8353TIP3    H146474   6.341   5.170   2.335 -0.0647  1.4128  0.6967
 8353TIP3    H246475   6.362   5.074   2.450 -0.4531 -1.6752 -1.7304
 8354TIP3   OH246476   0.841   0.288   0.739 -0.5901  0.1049  0.0783
 8354TIP3    H146477   0.857   0.196   0.722 -1.3165 -0.4769  2.3540
 8354TIP3    H246478   0.802   0.322   0.658  2.1518 -0.9016 -1.7510
 8355TIP3   OH246479   4.266   6.539   1.643 -0.0978  0.5379  0.0438
 8355TIP3    H146480   4.188   6.552   1.589 -0.5555  0.4106  0.6704
 8355TIP3    H246481   4.264   6.445   1.663  0.4377  0.4597 -0.2787
 8356TIP3   OH246482   0.197   2.122   1.788  0.8808  0.4365  0.2794
 8356TIP3    H146483   0.249   2.202   1.788  0.1962  0.8809  0.9929
 8356TIP3    H246484   0.149   2.124   1.705  0.7817  0.8116  0.3487
 8357TIP3   OH246485   0.975   1.478   2.201 -0.3801 -0.7424 -0.0020
 8357TIP3    H146486   0.930   1.419   2.141 -0.3164  0.7622 -1.5612
 8357TIP3    H246487   1.019   1.541   2.144  2.4073 -1.2383  1.5234
 8358TIP3   OH246488   6.616   5.075  12.774 -0.4613 -0.6809 -0.6102
 8358TIP3    H146489   6.653   5.112  12.694  2.0850 -1.3977  0.1813
 8358TIP3    H246490   6.543   5.132  12.796  1.6846  2.2893 -0.9169
 8359TIP3   OH246491   1.857   5.549   3.986 -0.2994  0.4313  0.1096
 8359TIP3    H146492   1.818   5.617   3.930  2.9127  3.0770  0.8819
 8359TIP3    H246493   1.845   5.468   3.937 -4.2741  1.4995 -0.8587
 8360TIP3   OH246494   5.212   0.454   4.075 -0.4526  0.2770 -0.5333
 8360TIP3    H146495   5.255   0.369   4.079 -0.6331  0.2476  1.9269
 8360TIP3    H246496   5.218   0.481   3.983 -0.3309 -2.3332 -1.3101
 8361TIP3   OH246497   6.669   4.637   4.188  0.3516  0.9393  0.0842
 8361TIP3    H146498   6.752   4.683   4.198 -0.1792  1.9260  0.1066
 8361TIP3    H246499   6.672   4.601   4.099  2.0069 -1.5362  1.1215
 8362TIP3   OH246500   4.757   5.382  12.370 -0.1363 -0.2642 -0.5050
 8362TIP3    H146501   4.821   5.314  12.350  0.5629  0.0411  0.6379
 8362TIP3    H246502   4.802   5.439  12.433 -0.4710  1.6317 -1.9513
 8363TIP3   OH246503   5.781   2.059  12.792  0.6067 -0.0768  0.1953
 8363TIP3    H146504   5.787   2.027  12.882  0.4864 -0.5475  0.0373
 8363TIP3    H246505   5.746   2.148  12.800  1.2845  0.1541  0.6588
 8364TIP3   OH246506   5.957   6.083  11.829  0.4788  0.3912  0.3859
 8364TIP3    H146507   5.971   6.108  11.921  0.9758 -0.5603  0.5729
 8364TIP3    H246508   6.045   6.064  11.796  0.2396  0.1852 -0.1340
 8365TIP3   OH246509   4.194   0.833  11.037 -0.3699 -0.0760  0.3010
 8365TIP3    H146510   4.107   0.871  11.022 -0.6820 -1.4263 -1.4238
 8365TIP3    H246511   4.244   0.853  10.958  0.2334 -1.1202  0.4110
 8366TIP3   OH246512   1.256   6.225  10.811  0.0353 -0.3366 -0.1681
 8366TIP3    H146513   1.213   6.166  10.872 -0.4565 -1.4763 -1.5951
 8366TIP3    H246514   1.188   6.287  10.785 -0.3283 -1.1207 -1.1351
 8367TIP3   OH246515   1.461   6.498  14.504  0.4854 -0.1488  0.0838
 8367TIP3    H146516   1.518   6.488  14.581 -0.5582 -3.0154  0.5503
 8367TIP3    H246517   1.372   6.501  14.540 -0.1299 -3.0205 -1.0180
 8368TIP3   OH246518   3.687   3.749   5.664 -0.1399 -0.0040 -0.1236
 8368TIP3    H146519   3.596   3.759   5.635 -0.1978 -1.9127 -0.6593
 8368TIP3    H246520   3.684   3.770   5.758 -1.4596 -1.6481  0.2211
 8369TIP3   OH246521   5.384   4.290  15.737 -0.9608 -0.0113  0.5121
 8369TIP3    H146522   5.356   4.378  15.711  0.5741 -0.0033 -1.2752
 8369TIP3    H246523   5.409   4.248  15.654  1.0366 -1.1487  1.6661
 8370TIP3   OH246524   2.279   3.912   5.710 -0.2299  0.0222 -0.2819
 8370TIP3    H146525   2.366   3.881   5.733 -0.7126  0.4215  2.2159
 8370TIP3    H246526   2.288   4.007   5.702 -0.4956  0.0953  0.2721
 8371TIP3   OH246527   1.732   4.324   0.619  0.0640  0.5151  0.4778
 8371TIP3    H146528   1.803   4.298   0.677  0.5272 -0.4651 -0.4912
 8371TIP3    H246529   1.694   4.241   0.589 -1.7913  1.0134  1.3231
 8372TIP3   OH246530   0.051   0.469  16.188 -0.5367 -0.0064 -0.6230
 8372TIP3    H146531   0.024   0.431  16.104 -0.2596  1.0722 -1.2146
 8372TIP3    H246532  -0.016   0.534  16.207  0.8524  1.6947 -1.4030
 8373TIP3   OH246533   0.762   5.981   4.671  0.5469 -0.4340  0.3456
 8373TIP3    H146534   0.808   6.005   4.591 -1.5631 -0.3694 -0.8764
 8373TIP3    H246535   0.707   6.057   4.692  1.5619 -0.1832  2.2382
 8374TIP3   OH246536   0.618   3.839   2.945 -0.1663 -0.4862 -0.3122
 8374TIP3    H146537   0.629   3.744   2.945  1.6239 -0.3051  0.1258
 8374TIP3    H246538   0.645   3.866   2.858  1.5356 -0.1810  0.2824
 8375TIP3   OH246539   4.784   5.885   4.996  0.1085 -0.3522  0.4601
 8375TIP3    H146540   4.839   5.931   5.059  1.4051  1.3754 -1.8227
 8375TIP3    H246541   4.721   5.951   4.966  1.5779 -0.1653 -2.3954
 8376TIP3   OH246542   6.039   3.154  12.732 -0.3867  0.0013 -0.1884
 8376TIP3    H146543   5.989   3.211  12.790 -0.2136 -1.1714  1.1624
 8376TIP3    H246544   5.974   3.117  12.672 -0.8271  0.0231  0.2742
 8377TIP3   OH246545   5.643   2.970  14.731 -0.1744  0.2750  0.3989
 8377TIP3    H146546   5.720   2.922  14.761 -1.7048 -2.0960  0.6907
 8377TIP3    H246547   5.662   2.991  14.640 -0.2489 -2.7188 -0.3723
 8378TIP3   OH246548   1.739   2.593   4.014  0.3780 -0.4067  0.4690
 8378TIP3    H146549   1.794   2.530   3.966 -2.2900 -1.7655 -0.8906
 8378TIP3    H246550   1.734   2.557   4.103  0.9052 -0.7733  0.3532
 8379TIP3   OH246551   5.519   3.272  15.807 -0.1946  0.1429 -0.2401
 8379TIP3    H146552   5.578   3.275  15.732  0.5635  0.8541  0.3795
 8379TIP3    H246553   5.449   3.333  15.785 -0.9337 -1.0179 -1.1612
 8380TIP3   OH246554   4.514   1.612   0.253  0.1081  0.1436 -1.5801
 8380TIP3    H146555   4.587   1.666   0.284  0.4691  0.2808 -2.6613
 8380TIP3    H246556   4.470   1.666   0.187 -0.8278 -0.0376 -1.1087
 8381TIP3   OH246557   1.864   1.420   5.405 -0.0442 -0.1716 -0.5306
 8381TIP3    H146558   1.774   1.423   5.439 -0.1161  1.0465 -0.7963
 8381TIP3    H246559   1.917   1.397   5.481 -0.7426 -2.5032 -0.7223
 8382TIP3   OH246560   3.586   4.925   2.359  0.0888  0.1267 -0.0173
 8382TIP3    H146561   3.527   5.001   2.366 -0.2971 -0.1941  0.2324
 8382TIP3    H246562   3.656   4.955   2.301  0.2067  0.8498  0.4853
 8383TIP3   OH246563   4.453   6.373  16.422 -0.1930 -0.0732 -0.8277
 8383TIP3    H146564   4.473   6.280  16.418  0.8983  0.1509 -0.6597
 8383TIP3    H246565   4.532   6.416  16.389 -0.7503  0.7844 -1.0509
 8384TIP3   OH246566   3.906   5.458  14.484 -0.1995 -0.6553 -0.0066
 8384TIP3    H146567   3.892   5.434  14.393 -0.8660  0.7216 -0.2656
 8384TIP3    H246568   3.859   5.391  14.534 -0.3342 -1.0598 -0.6686
 8385TIP3   OH246569   1.868   5.258  14.763 -0.5405  0.2346  0.6632
 8385TIP3    H146570   1.801   5.213  14.711  1.0168  0.4320 -1.5762
 8385TIP3    H246571   1.827   5.341  14.789 -1.5918 -0.1907  0.3966
 8386TIP3   OH246572   1.652   3.577   2.797 -0.3639  0.0846 -0.2629
 8386TIP3    H146573   1.720   3.547   2.737  1.0372 -2.8381  2.6305
 8386TIP3    H246574   1.697   3.634   2.859 -1.3584  1.2445 -0.5729
 8387TIP3   OH246575   1.615   3.555   1.009  0.1930 -0.2920 -0.5226
 8387TIP3    H146576   1.576   3.611   0.942 -0.8034  0.5634  0.7321
 8387TIP3    H246577   1.657   3.484   0.961 -0.2815  0.4471 -2.0447
 8388TIP3   OH246578   0.796   6.306  13.738  0.3157  0.5232  0.5152
 8388TIP3    H146579   0.723   6.335  13.792  0.6961  0.4168  1.0924
 8388TIP3    H246580   0.862   6.276  13.801  0.4343 -0.3772 -0.0393
 8389TIP3   OH246581   2.022   2.723  12.292  0.3485 -0.9595  0.1535
 8389TIP3    H146582   2.079   2.770  12.352 -1.2967 -0.0835  1.0733
 8389TIP3    H246583   1.952   2.689  12.347 -1.9471  1.0340 -1.4324
 8390TIP3   OH246584   5.588   4.367   2.376  0.4782 -0.0942  0.3465
 8390TIP3    H146585   5.563   4.333   2.290  0.6624  1.6242 -0.4031
 8390TIP3    H246586   5.678   4.397   2.365  0.0985  1.2743  0.7714
 8391TIP3   OH246587   1.858   1.418  10.843 -0.2423  0.3162 -0.2218
 8391TIP3    H146588   1.936   1.434  10.896 -0.6991 -0.0238  0.5587
 8391TIP3    H246589   1.794   1.381  10.904 -1.1503  0.9595 -0.7705
 8392TIP3   OH246590   6.031   3.793   2.921  0.0173  0.1844 -0.1580
 8392TIP3    H146591   6.026   3.724   2.987 -0.8546  0.4812  0.0857
 8392TIP3    H246592   5.975   3.762   2.850 -0.0429  0.4443 -0.2237
 8393TIP3   OH246593   4.455   5.300  11.988  0.1649 -0.5194  0.0371
 8393TIP3    H146594   4.487   5.222  12.034 -1.2105 -1.1931 -0.0995
 8393TIP3    H246595   4.370   5.318  12.029  0.3608  0.7684 -0.1062
 8394TIP3   OH246596   4.829   2.207   5.324 -0.3542 -0.0110 -0.4277
 8394TIP3    H146597   4.845   2.159   5.405  3.0522  0.1402 -0.9605
 8394TIP3    H246598   4.735   2.195   5.308 -0.2931 -3.4418  1.3424
 8395TIP3   OH246599   5.653   4.954  15.115 -0.1703  0.2673  0.0501
 8395TIP3    H146600   5.625   4.895  15.046 -1.7867 -0.1950  1.0764
 8395TIP3    H246601   5.594   4.935  15.188  2.7422 -0.6899  2.2638
 8396TIP3   OH246602   3.950   1.611   6.037  0.0755 -0.4235 -0.3681
 8396TIP3    H146603   4.013   1.681   6.054 -0.3840 -0.1260  0.1337
 8396TIP3    H246604   3.921   1.626   5.947 -0.8791  0.7176  0.1228
 8397TIP3   OH246605   5.300   2.520   3.853  0.3883 -0.3365  0.2284
 8397TIP3    H146606   5.257   2.442   3.819  1.0819 -0.1667 -1.0750
 8397TIP3    H246607   5.372   2.486   3.908 -0.0325 -0.6066  0.6169
 8398TIP3   OH246608   6.395   6.779  15.349  0.2812 -0.2945 -0.4629
 8398TIP3    H146609   6.318   6.763  15.405  0.5250  0.2347  0.0354
 8398TIP3    H246610   6.392   6.873  15.332 -0.4801 -0.6476 -2.3713
 8399TIP3   OH246611   2.720   1.460  12.201 -0.1137 -0.5590 -0.1348
 8399TIP3    H146612   2.721   1.386  12.261  1.4578 -0.0462  0.4995
 8399TIP3    H246613   2.637   1.452  12.154 -0.4142 -2.1338  0.6414
 8400TIP3   OH246614   6.340   6.321  12.198  0.4157 -0.3326  0.3475
 8400TIP3    H146615   6.354   6.337  12.291 -1.0881 -0.7521  0.6606
 8400TIP3    H246616   6.388   6.391  12.154  2.0189 -0.7377  1.3914
 8401TIP3   OH246617   5.242   6.347   2.722 -0.0934  0.3671 -0.1177
 8401TIP3    H146618   5.281   6.261   2.738 -0.3233  0.1130 -0.9217
 8401TIP3    H246619   5.152   6.329   2.696 -0.6006  0.9328  1.1998
 8402TIP3   OH246620   2.479   4.203   4.744  0.0471  0.5345 -0.0078
 8402TIP3    H146621   2.485   4.131   4.808 -2.3687  0.2557 -0.0512
 8402TIP3    H246622   2.541   4.268   4.777 -0.8440  0.2283  2.4370
 8403TIP3   OH246623   2.932   1.480  12.865  0.1783 -0.1084 -0.4386
 8403TIP3    H146624   2.922   1.429  12.945 -3.1323  0.0998 -0.6520
 8403TIP3    H246625   2.928   1.571  12.895  2.1666  0.0236 -0.5070
 8404TIP3   OH246626   3.366   3.639  10.871 -0.2477 -0.4148 -0.6699
 8404TIP3    H146627   3.404   3.592  10.797 -0.6896 -1.1495 -0.4427
 8404TIP3    H246628   3.440   3.682  10.913  0.1788 -0.9809 -0.8362
 8405TIP3   OH246629   1.810   1.219   2.090  0.1676  0.1997  0.3522
 8405TIP3    H146630   1.773   1.184   2.010  2.9603  0.7664 -1.2654
 8405TIP3    H246631   1.792   1.313   2.086  0.2511  0.2190  0.4139
 8406TIP3   OH246632   3.932   2.212  14.496 -0.3116 -0.1838 -0.5161
 8406TIP3    H146633   3.997   2.277  14.469  0.0302  0.5478  1.9521
 8406TIP3    H246634   3.849   2.259  14.496 -0.4500 -0.4180 -1.0904
 8407TIP3   OH246635   4.575   2.007  12.148 -0.5092 -0.0144 -0.1194
 8407TIP3    H146636   4.670   1.995  12.145 -0.3458  1.3261 -0.7516
 8407TIP3    H246637   4.560   2.060  12.226 -0.8130 -0.7943  0.3599
 8408TIP3   OH246638   0.300   1.218  14.935  0.3449 -0.2797 -0.1694
 8408TIP3    H146639   0.342   1.163  14.869 -3.3178 -2.8005 -0.5194
 8408TIP3    H246640   0.348   1.198  15.016  1.3527 -1.2967 -0.9935
 8409TIP3   OH246641   1.759   5.547  12.824  0.0515 -0.1356  0.1892
 8409TIP3    H146642   1.762   5.630  12.871 -0.3807 -0.5931  1.0349
 8409TIP3    H246643   1.682   5.502  12.859  0.0081 -0.6918 -0.6023
 8410TIP3   OH246644   0.357   0.557   0.318  0.1752  0.0117  0.4733
 8410TIP3    H146645   0.441   0.545   0.361  0.8302  0.0683 -0.7663
 8410TIP3    H246646   0.317   0.470   0.318  0.4950 -0.1357  0.5522
 8411TIP3   OH246647   4.362   1.558  15.741 -0.2394 -0.4196  0.0977
 8411TIP3    H146648   4.330   1.648  15.747 -0.8778 -0.6570  0.3014
 8411TIP3    H246649   4.457   1.566  15.746 -0.2493  0.3202 -0.7838
 8412TIP3   OH246650   2.341   5.980  13.280 -0.1885  0.3744 -0.6145
 8412TIP3    H146651   2.436   5.970  13.270 -0.1434  1.9486 -2.0300
 8412TIP3    H246652   2.323   6.068  13.246 -1.8027  1.0936  1.9672
 8413TIP3   OH246653   0.981   4.977  12.827 -0.3095 -0.0856  0.1349
 8413TIP3    H146654   1.065   5.017  12.802 -0.7252  1.5934  1.3285
 8413TIP3    H246655   0.916   5.044  12.805 -1.0579 -0.2197  1.9245
 8414TIP3   OH246656   1.479   0.696   3.943  0.0033  0.1250 -0.3007
 8414TIP3    H146657   1.514   0.697   3.854  0.0631  0.2710 -0.2762
 8414TIP3    H246658   1.423   0.618   3.947  0.5504 -0.2686 -0.2578
 8415TIP3   OH246659   0.554   0.346  12.498 -0.3919 -0.4675  0.1881
 8415TIP3    H146660   0.622   0.387  12.444 -0.9803 -1.3585 -1.2608
 8415TIP3    H246661   0.568   0.252  12.486 -1.6547 -0.6569  0.1576
 8416TIP3   OH246662   3.900   4.321   0.959 -0.0551  0.4012  0.1347
 8416TIP3    H146663   3.882   4.227   0.966 -0.1671  0.6173  2.8915
 8416TIP3    H246664   3.816   4.363   0.974  0.7579  1.0524  3.2038
 8417TIP3   OH246665   5.231   2.825  16.545  0.6097 -0.2071 -0.2084
 8417TIP3    H146666   5.272   2.839  16.460  0.8971 -0.8422 -0.1773
 8417TIP3    H246667   5.297   2.775  16.595 -0.4738 -1.8597 -0.3958
 8418TIP3   OH246668   2.941   3.670   5.116  0.1019 -0.7817  0.2615
 8418TIP3    H146669   3.020   3.698   5.069 -1.1104  1.8920 -0.2665
 8418TIP3    H246670   2.969   3.662   5.207  1.2522 -0.9955 -0.0989
 8419TIP3   OH246671   4.384   6.051   5.515  0.2886 -0.0327  0.2567
 8419TIP3    H146672   4.373   5.982   5.449  0.7672 -0.7439  0.9046
 8419TIP3    H246673   4.479   6.056   5.528  0.1443 -0.6951  1.7075
 8420TIP3   OH246674   3.860   2.818  12.735 -0.1248 -0.3762 -0.5795
 8420TIP3    H146675   3.928   2.767  12.780  0.5834  1.4619  0.4634
 8420TIP3    H246676   3.908   2.887  12.690 -1.2574  0.5594 -0.3554
 8421TIP3   OH246677   4.821   5.523  12.107  0.5129 -0.9643 -0.2413
 8421TIP3    H146678   4.798   5.615  12.122 -3.0971 -1.8364  0.1240
 8421TIP3    H246679   4.860   5.495  12.190 -0.2248 -0.2869  0.3492
 8422TIP3   OH246680   0.353   5.851   5.208  0.2711  0.1156  0.0515
 8422TIP3    H146681   0.402   5.932   5.201 -0.7015  0.7132  0.0307
 8422TIP3    H246682   0.319   5.836   5.119 -0.7758  0.4830  0.3765
 8423TIP3   OH246683   3.955   5.595   4.559  0.4533 -0.0825 -0.0766
 8423TIP3    H146684   3.871   5.615   4.598 -0.2936 -0.6911 -1.3378
 8423TIP3    H246685   4.007   5.675   4.570 -0.2244  0.2252  0.8523
 8424TIP3   OH246686   0.257   4.125   4.501  0.1803 -0.3565  0.2101
 8424TIP3    H146687   0.278   4.188   4.432  1.8161  0.6157  1.5677
 8424TIP3    H246688   0.171   4.152   4.533 -0.5108 -0.7030 -1.2965
 8425TIP3   OH246689   5.171   1.335   4.736 -0.4918 -0.3440 -0.2869
 8425TIP3    H146690   5.154   1.374   4.822  2.0378  0.9948 -0.3430
 8425TIP3    H246691   5.087   1.340   4.690 -1.9144 -1.2682  2.1692
 8426TIP3   OH246692   5.577   4.987  17.167  0.6234 -0.3957 -0.2689
 8426TIP3    H146693   5.552   4.907  17.121 -0.3958  0.1370 -0.6539
 8426TIP3    H246694   5.503   5.006  17.224  1.0483  0.0348  0.1401
 8427TIP3   OH246695   6.060   1.645  12.731 -0.4699 -0.1076  0.1556
 8427TIP3    H146696   6.150   1.626  12.704 -0.6203  1.2376 -1.3766
 8427TIP3    H246697   6.024   1.560  12.756  1.0978 -0.7192  0.4070
 8428TIP3   OH246698   5.425   0.819   2.212  0.3952 -0.2640 -0.4373
 8428TIP3    H146699   5.507   0.790   2.251  0.4054  0.9079  0.4087
 8428TIP3    H246700   5.452   0.863   2.131  0.5622 -0.3759 -0.4434
 8429TIP3   OH246701   1.217   1.213   0.456  0.2162  0.5268  0.4552
 8429TIP3    H146702   1.283   1.233   0.522  0.8915 -0.3210  0.0291
 8429TIP3    H246703   1.134   1.234   0.499  0.4751 -2.2118  2.4341
 8430TIP3   OH246704   5.992   3.545   0.522  0.0113 -0.3579 -0.0280
 8430TIP3    H146705   5.937   3.514   0.593  0.5926  0.5590  0.8441
 8430TIP3    H246706   6.010   3.637   0.544 -0.1581  0.0633 -1.5824
 8431TIP3   OH246707   2.004   0.467   4.829  0.0912 -0.0761 -0.4380
 8431TIP3    H146708   2.058   0.437   4.903 -2.7970 -0.6927  1.5402
 8431TIP3    H246709   2.059   0.454   4.752  2.7661 -0.5886  1.4785
 8432TIP3   OH246710   5.215   1.788   2.915 -1.0247  0.1303 -0.4423
 8432TIP3    H146711   5.148   1.813   2.979 -0.0644  0.1759  0.5565
 8432TIP3    H246712   5.290   1.844   2.936 -0.5352 -0.1947 -1.3088
 8433TIP3   OH246713   0.098   3.406  12.560 -0.2175 -0.1236  0.4357
 8433TIP3    H146714   0.005   3.395  12.579 -0.4991  0.8723 -0.3451
 8433TIP3    H246715   0.138   3.323  12.587 -1.1866 -0.2128  1.6205
 8434TIP3   OH246716   3.597   4.797   1.601 -0.3374  0.7414 -0.1036
 8434TIP3    H146717   3.561   4.872   1.554 -1.8370  1.2776  1.8094
 8434TIP3    H246718   3.690   4.796   1.579 -0.5898  2.2984 -1.2775
 8435TIP3   OH246719   1.213   6.198   6.272  0.3394 -0.0233  0.3978
 8435TIP3    H146720   1.171   6.244   6.345  0.1236 -1.2172  1.0427
 8435TIP3    H246721   1.170   6.112   6.270  1.8913 -0.8134  0.2722
 8436TIP3   OH246722   4.687   6.125   5.551  0.0655  0.0843 -0.1010
 8436TIP3    H146723   4.725   6.210   5.528  1.0064 -0.5837 -1.0909
 8436TIP3    H246724   4.726   6.104   5.636  2.0358 -0.6317 -1.1439
 8437TIP3   OH246725   1.077   4.524   5.741 -0.1076 -1.1325 -0.2820
 8437TIP3    H146726   1.029   4.606   5.752 -1.1880 -1.3718 -2.8311
 8437TIP3    H246727   1.168   4.548   5.756 -0.8491 -0.5066  3.8018
 8438TIP3   OH246728   0.505   1.283  12.149  0.2377 -0.5998 -0.5674
 8438TIP3    H146729   0.541   1.320  12.229 -0.6011  0.1752 -0.5508
 8438TIP3    H246730   0.531   1.345  12.080  0.4927 -0.9832 -0.8211
 8439TIP3   OH246731   5.279   2.664  15.176 -0.0565  0.6606 -0.4387
 8439TIP3    H146732   5.190   2.684  15.149 -0.2024  0.0727 -0.3952
 8439TIP3    H246733   5.277   2.571  15.200  0.1847  1.0294  1.0878
 8440TIP3   OH246734   4.567   2.511   5.212 -0.4114  0.3995 -0.2157
 8440TIP3    H146735   4.510   2.488   5.286  0.5855 -1.3374  0.0314
 8440TIP3    H246736   4.508   2.511   5.136 -0.8395 -0.9641  0.0984
 8441TIP3   OH246737   2.712   4.144  12.699  0.5884 -0.7515 -0.7750
 8441TIP3    H146738   2.779   4.087  12.662 -0.1450 -2.5706  0.6431
 8441TIP3    H246739   2.706   4.217  12.637  0.7263 -2.7623 -3.2094
 8442TIP3   OH246740   3.084   2.608  11.241  0.0193  0.0507  0.2856
 8442TIP3    H146741   3.062   2.654  11.322  1.3769  0.1898  0.5906
 8442TIP3    H246742   3.011   2.547  11.228 -0.4150  0.3134  1.3955
 8443TIP3   OH246743   0.619   0.181   3.446  0.0050 -0.5998 -0.2454
 8443TIP3    H146744   0.552   0.124   3.484  0.4743 -1.2026 -0.3184
 8443TIP3    H246745   0.622   0.157   3.354 -1.7772  1.4889 -0.9045
 8444TIP3   OH246746   0.871   1.904  11.420  0.1460 -0.0696  0.7649
 8444TIP3    H146747   0.874   1.972  11.352 -0.6584 -1.9070 -1.1561
 8444TIP3    H246748   0.960   1.904  11.457  0.5304  1.1262 -0.1111
 8445TIP3   OH246749   3.707   2.904   1.543  0.2312  0.1271 -0.5178
 8445TIP3    H146750   3.629   2.864   1.582  0.0060 -0.0182 -1.1143
 8445TIP3    H246751   3.696   2.998   1.559  0.9000 -0.0474  1.1392
 8446TIP3   OH246752   0.963   3.712  13.557  0.1090  0.5000 -0.1582
 8446TIP3    H146753   0.903   3.703  13.483  1.6378  1.3717 -1.5401
 8446TIP3    H246754   1.002   3.799  13.546 -0.2532  0.9727  2.1472
 8447TIP3   OH246755   2.349   0.779  13.743  0.1331 -0.2605  0.7033
 8447TIP3    H146756   2.362   0.858  13.690 -0.1166 -0.4040  0.4321
 8447TIP3    H246757   2.407   0.714  13.703  1.3806  0.1633  1.7433
 8448TIP3   OH246758   4.302   3.687   0.820  0.2544 -0.4757  0.6597
 8448TIP3    H146759   4.254   3.739   0.884  0.8302 -1.6237  2.0569
 8448TIP3    H246760   4.306   3.742   0.742 -1.7559  0.3531  1.1111
 8449TIP3   OH246761   4.789   3.031   4.139  0.3012  0.5989 -0.6408
 8449TIP3    H146762   4.860   3.038   4.076 -0.0712 -1.1852 -1.2769
 8449TIP3    H246763   4.778   2.937   4.153 -0.3482  0.9438  1.2582
 8450TIP3   OH246764   0.909   3.162  16.336 -0.1357 -0.2241 -0.5844
 8450TIP3    H146765   0.865   3.080  16.315 -0.3818 -0.4681  0.8423
 8450TIP3    H246766   0.989   3.161  16.282 -1.2535 -0.3272 -2.2900
 8451TIP3   OH246767   3.872   4.615  14.165  0.3150  0.5119  0.7577
 8451TIP3    H146768   3.860   4.710  14.164  2.8600  0.8609  0.5475
 8451TIP3    H246769   3.932   4.599  14.238  1.2089 -0.7411 -0.2228
 8452TIP3   OH246770   2.920   4.396   4.087 -0.4421  0.3022  0.8579
 8452TIP3    H146771   2.872   4.393   4.004 -0.0934 -0.6175  0.6911
 8452TIP3    H246772   2.905   4.311   4.127 -1.7563  1.2183  2.4062
 8453TIP3   OH246773   2.355   2.898   1.112  0.7499  0.2075  0.2400
 8453TIP3    H146774   2.346   2.932   1.023  1.8491 -0.2050 -0.0345
 8453TIP3    H246775   2.264   2.886   1.142  0.2752 -3.7019 -2.4155
 8454TIP3   OH246776   2.278   2.546   4.144  0.1883 -0.0764 -0.0542
 8454TIP3    H146777   2.198   2.496   4.132 -0.8023  1.8385 -1.7761
 8454TIP3    H246778   2.286   2.556   4.239 -1.4682 -0.5030  0.1507
 8455TIP3   OH246779   4.698   3.287   1.074 -0.2865  0.1940  0.2728
 8455TIP3    H146780   4.737   3.256   0.992  1.2153 -0.2769  1.1696
 8455TIP3    H246781   4.736   3.373   1.087  0.5870 -0.3388  1.2405
 8456TIP3   OH246782   3.399   5.102  14.035 -0.0704 -0.0480 -0.0670
 8456TIP3    H146783   3.376   5.175  14.093 -1.6216 -0.6002  0.0130
 8456TIP3    H246784   3.388   5.024  14.089  2.7546 -0.3093  0.2167
 8457TIP3   OH246785   1.109   3.430  11.313 -0.2969  0.5411  0.6044
 8457TIP3    H146786   1.042   3.481  11.359 -1.3864  0.9785 -1.4365
 8457TIP3    H246787   1.153   3.381  11.383 -2.2491  0.8016  2.0658
 8458TIP3   OH246788   5.554   6.491   2.330  1.3142  0.0688  0.1421
 8458TIP3    H146789   5.541   6.453   2.417  1.6500  0.3999  0.3346
 8458TIP3    H246790   5.625   6.440   2.292 -1.3444 -2.6596 -1.4409
 8459TIP3   OH246791   3.503   6.595   2.245  0.1849  0.8493  0.4369
 8459TIP3    H146792   3.526   6.635   2.161  2.4643  0.3576  0.7859
 8459TIP3    H246793   3.568   6.630   2.306 -1.0609  0.7033  1.8681
 8460TIP3   OH246794   1.438   3.738  12.261  0.6848  0.4266  0.8574
 8460TIP3    H146795   1.527   3.704  12.253  0.7060  0.2920  1.6551
 8460TIP3    H246796   1.441   3.796  12.337  0.2603  0.9569  0.4682
 8461TIP3   OH246797   2.576   2.003   4.460  0.2612 -0.2621  0.4849
 8461TIP3    H146798   2.481   2.011   4.451  0.2666 -0.4983  0.2055
 8461TIP3    H246799   2.611   2.087   4.433 -0.0165  0.6914  2.9483
 8462TIP3   OH246800   2.887   5.922   3.845  0.1174 -0.4036  0.0202
 8462TIP3    H146801   2.942   5.858   3.890  2.8050  0.7482 -1.5237
 8462TIP3    H246802   2.939   6.002   3.844 -1.7047  0.8158 -1.2647
 8463TIP3   OH246803   1.373   4.705  14.340  0.0974 -0.7119  0.3806
 8463TIP3    H146804   1.429   4.711  14.417  0.4592 -0.6207  0.1134
 8463TIP3    H246805   1.417   4.758  14.274 -1.6131  1.4646  0.9383
 8464TIP3   OH246806   6.206   1.860  11.927 -0.0697 -0.4156  0.0870
 8464TIP3    H146807   6.185   1.937  11.874 -0.8978 -0.5526  0.1979
 8464TIP3    H246808   6.224   1.791  11.863  0.2535 -0.2417 -0.0107
 8465TIP3   OH246809   5.896   1.053   4.625 -0.1446 -0.6147 -1.3548
 8465TIP3    H146810   5.814   1.014   4.654  0.7795 -1.4765  0.1390
 8465TIP3    H246811   5.913   1.122   4.688 -0.4738  0.5632 -2.5342
 8466TIP3   OH246812   6.413   3.135   3.337 -0.1264  0.0894  0.7399
 8466TIP3    H146813   6.505   3.114   3.351 -0.1232 -0.1688  0.3696
 8466TIP3    H246814   6.370   3.113   3.420  0.0094 -0.6390  0.6241
 8467TIP3   OH246815   1.547   5.510  12.226 -0.3167 -0.3885 -0.2213
 8467TIP3    H146816   1.510   5.547  12.145  2.3531 -0.3093 -1.4536
 8467TIP3    H246817   1.565   5.587  12.281  1.2340 -0.1239 -1.0551
 8468TIP3   OH246818   1.464   0.565   5.171 -0.3497  0.0469 -0.0921
 8468TIP3    H146819   1.447   0.624   5.244 -0.0507 -0.0598  0.0671
 8468TIP3    H246820   1.462   0.477   5.211  0.3540  0.0193 -0.1052
 8469TIP3   OH246821   3.515   1.922   4.735  0.0580  0.4253 -0.0419
 8469TIP3    H146822   3.512   1.873   4.653 -1.4756  0.3371  0.0601
 8469TIP3    H246823   3.608   1.938   4.750  0.6470 -2.8774  0.1682
 8470TIP3   OH246824   5.738   5.410  13.825  0.1781 -0.0041 -0.2773
 8470TIP3    H146825   5.768   5.375  13.908  2.8572  2.0247 -0.3110
 8470TIP3    H246826   5.779   5.354  13.759 -0.1239 -0.2474 -0.2597
 8471TIP3   OH246827   2.234   6.693   5.695 -0.4891 -0.0375 -0.2173
 8471TIP3    H146828   2.285   6.612   5.694  1.3355  1.0747 -1.0187
 8471TIP3    H246829   2.235   6.722   5.604 -0.6881  1.1326  0.1498
 8472TIP3   OH246830   5.482   5.157   3.542  0.0173  0.2199 -0.1846
 8472TIP3    H146831   5.483   5.122   3.631 -0.4262  1.7561  0.4301
 8472TIP3    H246832   5.394   5.137   3.509 -0.1750  0.6042  0.1006
 8473TIP3   OH246833   4.062   3.556   4.461 -0.0246 -0.2105 -0.1714
 8473TIP3    H146834   4.072   3.494   4.533 -0.4458 -0.6728 -0.5054
 8473TIP3    H246835   4.118   3.630   4.485  1.0138 -1.0102 -0.0962
 8474TIP3   OH246836   0.973   0.926   3.893  0.6852  0.5634 -0.2233
 8474TIP3    H146837   0.920   0.998   3.927  1.8224  1.4992 -0.3862
 8474TIP3    H246838   1.062   0.961   3.891  1.3766 -1.1337  0.4768
 8475TIP3   OH246839   0.205   6.378  17.016 -0.1823 -0.0381  0.4250
 8475TIP3    H146840   0.245   6.451  16.969 -0.1061  1.0720  2.1785
 8475TIP3    H246841   0.112   6.385  16.997  0.3072 -2.4252 -3.3938
 8476TIP3   OH246842   5.234   3.510  10.815 -0.0935  0.5067 -0.3833
 8476TIP3    H146843   5.319   3.500  10.770  0.5121  1.1315  0.6014
 8476TIP3    H246844   5.227   3.431  10.869 -0.3152  0.2753 -0.7485
 8477TIP3   OH246845   5.719   0.591  15.725  0.1105  0.1648  0.1774
 8477TIP3    H146846   5.677   0.632  15.649 -0.7768 -0.5652  0.2680
 8477TIP3    H246847   5.698   0.648  15.798  0.3535  0.4789  0.0021
 8478TIP3   OH246848   4.828   0.165   0.399  0.1815 -0.5319 -0.8938
 8478TIP3    H146849   4.820   0.258   0.379  0.5666 -0.3362 -0.1423
 8478TIP3    H246850   4.793   0.156   0.488  0.3317 -1.0719 -0.8848
 8479TIP3   OH246851   1.556   6.445   1.559 -0.6617 -0.5314  0.6673
 8479TIP3    H146852   1.560   6.350   1.553  2.1805 -0.4202  0.4551
 8479TIP3    H246853   1.507   6.472   1.481 -0.4756 -1.7444  0.1234
 8480TIP3   OH246854   3.041   2.854   2.623 -0.4648  0.0770  0.6403
 8480TIP3    H146855   3.005   2.774   2.660 -1.9009  0.8630  0.9840
 8480TIP3    H246856   3.025   2.846   2.529  1.7318 -1.1913  0.3444
 8481TIP3   OH246857   0.829   2.633   4.805 -0.3449  0.1824  0.2022
 8481TIP3    H146858   0.874   2.683   4.738  0.9437 -0.0355  0.8911
 8481TIP3    H246859   0.737   2.634   4.778 -0.0156  1.0878 -0.9244
 8482TIP3   OH246860   2.185   0.896  11.034  0.8357 -0.2993  0.3229
 8482TIP3    H146861   2.116   0.953  11.002  1.4250 -0.2256 -0.8496
 8482TIP3    H246862   2.219   0.940  11.112  1.1224  0.8279 -0.4315
 8483TIP3   OH246863   2.732   3.970   1.680 -0.3277 -0.1534  0.1848
 8483TIP3    H146864   2.802   3.971   1.745 -1.0977  0.0866  1.0145
 8483TIP3    H246865   2.676   3.896   1.705 -1.8478  1.2675  1.1155
 8484TIP3   OH246866   4.486   1.038   3.545  0.4223 -0.1565  0.2491
 8484TIP3    H146867   4.484   0.943   3.531 -0.7331 -0.0504 -0.3370
 8484TIP3    H246868   4.413   1.055   3.605 -0.2950  0.5430 -0.8195
 8485TIP3   OH246869   5.059   5.837   4.060  0.1106 -0.4444 -0.0182
 8485TIP3    H146870   5.041   5.838   3.966  0.3608 -0.9465 -0.0713
 8485TIP3    H246871   4.994   5.776   4.096  1.0704 -1.5374 -0.0867
 8486TIP3   OH246872   3.517   3.476   5.670 -0.1535 -0.0081  0.5114
 8486TIP3    H146873   3.594   3.420   5.671  0.3179  0.6493  1.0295
 8486TIP3    H246874   3.508   3.507   5.760 -0.1712  1.0715  0.1514
 8487TIP3   OH246875   3.836   6.742   1.212  0.6453  0.5378 -0.5480
 8487TIP3    H146876   3.774   6.676   1.243 -1.1234  1.6221 -1.7053
 8487TIP3    H246877   3.891   6.761   1.288 -0.4593 -0.4002  0.5026
 8488TIP3   OH246878   3.697   0.296   3.914  0.1618  0.0664 -0.5611
 8488TIP3    H146879   3.790   0.287   3.896  0.3983 -0.6589  0.9511
 8488TIP3    H246880   3.680   0.389   3.906  1.9820  0.8754  3.4655
 8489TIP3   OH246881   5.451   5.853  16.875  0.3184  0.4560  0.2453
 8489TIP3    H146882   5.515   5.830  16.808  0.8068  1.1952  0.4446
 8489TIP3    H246883   5.446   5.949  16.870 -1.7705  0.3107 -0.6761
 8490TIP3   OH246884   5.008   2.241  12.800 -0.0863 -0.5413  0.5511
 8490TIP3    H146885   4.922   2.283  12.801  1.3522  2.5103  1.7249
 8490TIP3    H246886   5.000   2.171  12.734 -2.4545  1.8422 -1.7962
 8491TIP3   OH246887   6.324   0.036  16.113 -0.2633 -0.2771 -0.0997
 8491TIP3    H146888   6.267   0.089  16.169  0.3789  0.2131  0.0972
 8491TIP3    H246889   6.300   0.063  16.024  0.0446  0.3420 -0.0025
 8492TIP3   OH246890   6.777   3.328  12.879 -1.0138  0.0817 -0.1925
 8492TIP3    H146891   6.867   3.350  12.903 -1.6110  3.4255 -0.7467
 8492TIP3    H246892   6.760   3.244  12.921  2.8932 -1.4239 -1.3966
 8493TIP3   OH246893   0.638   0.677  13.791 -0.3168 -0.1207 -0.5023
 8493TIP3    H146894   0.604   0.689  13.702  0.0870 -1.7916 -0.9020
 8493TIP3    H246895   0.657   0.765  13.822 -2.0822  0.6198 -1.4305
 8494TIP3   OH246896   0.400   0.211   6.445 -0.0871 -0.5839 -0.2709
 8494TIP3    H146897   0.380   0.245   6.357  0.0902 -0.1145 -0.1338
 8494TIP3    H246898   0.362   0.276   6.504  0.4403 -0.5169 -0.0027
 8495TIP3   OH246899   0.441   4.340  12.389  0.1368  0.2230  0.3753
 8495TIP3    H146900   0.398   4.355  12.305  0.5854 -2.1274 -0.2967
 8495TIP3    H246901   0.376   4.292  12.441 -0.3884  2.2153  1.6601
 8496TIP3   OH246902   6.181   0.886   3.345 -0.0218  0.3263  0.3344
 8496TIP3    H146903   6.263   0.841   3.325 -0.8762 -2.1041  2.1049
 8496TIP3    H246904   6.203   0.980   3.340  2.9489 -0.2758  1.1841
 8497TIP3   OH246905   0.011   3.229  11.774  0.3132 -0.2717 -0.3027
 8497TIP3    H146906   0.034   3.138  11.793  3.1411  0.2174 -1.0851
 8497TIP3    H246907  -0.019   3.264  11.858  1.6090 -1.2605  0.5983
 8498TIP3   OH246908   1.011   6.371  14.645 -0.0731  0.5558  0.2138
 8498TIP3    H146909   1.057   6.337  14.568  0.5235 -0.1402  0.8676
 8498TIP3    H246910   1.005   6.295  14.704  1.1737  1.5329  1.6412
 8499TIP3   OH246911   0.278   0.800  16.489 -0.4624 -0.2482 -0.0370
 8499TIP3    H146912   0.311   0.711  16.496 -0.4059 -0.2838 -0.6976
 8499TIP3    H246913   0.183   0.792  16.494 -0.4435 -0.3204  0.1818
 8500TIP3   OH246914   3.540   4.252  16.605 -0.2162  0.4623 -0.2572
 8500TIP3    H146915   3.458   4.271  16.559 -1.7224 -1.9574  1.2890
 8500TIP3    H246916   3.531   4.294  16.690 -0.7320 -1.4188  0.6506
 8501TIP3   OH246917   2.893   2.667   1.537  0.2316 -0.6420 -0.3293
 8501TIP3    H146918   2.833   2.593   1.549 -0.1148  0.0374  2.7035
 8501TIP3    H246919   2.977   2.628   1.518 -0.0529 -1.8302  0.7946
 8502TIP3   OH246920   2.532   0.586  16.631 -0.3906 -0.0581 -0.0551
 8502TIP3    H146921   2.569   0.642  16.700 -0.0986 -0.9180  0.5029
 8502TIP3    H246922   2.609   0.552  16.584 -0.5374 -0.4368 -0.0252
 8503TIP3   OH246923   4.896   4.032  14.937 -0.2917 -0.0645  0.5137
 8503TIP3    H146924   4.852   4.112  14.966 -0.9230 -0.1254 -0.2743
 8503TIP3    H246925   4.885   4.031  14.842  2.5361  0.5804  0.1318
 8504TIP3   OH246926   5.828   4.305   1.172 -0.8050 -0.3553  0.1308
 8504TIP3    H146927   5.753   4.271   1.123 -1.2545  0.2210  0.4083
 8504TIP3    H246928   5.796   4.387   1.210  0.6274  1.0602 -1.5751
 8505TIP3   OH246929   1.878   2.019  15.127  0.3498 -0.7639  0.0883
 8505TIP3    H146930   1.844   2.105  15.154  3.8174  1.1142 -1.1977
 8505TIP3    H246931   1.828   1.997  15.048 -0.1014  0.3849  0.0436
 8506TIP3   OH246932   3.910   5.193  11.435  0.3539  0.0715  0.4103
 8506TIP3    H146933   3.822   5.230  11.439  0.6862  0.8434  0.4964
 8506TIP3    H246934   3.950   5.215  11.519  0.5520 -0.4739  0.4602
 8507TIP3   OH246935   2.380   3.650  13.944  0.5031 -0.2047 -0.2199
 8507TIP3    H146936   2.324   3.648  14.022  0.4950 -0.0524 -0.2207
 8507TIP3    H246937   2.385   3.743  13.921  1.2145 -0.1500  0.1151
 8508TIP3   OH246938   2.956   6.607   0.400  0.0922 -0.5660 -0.4725
 8508TIP3    H146939   2.951   6.589   0.494  0.5395 -1.3643 -0.6006
 8508TIP3    H246940   2.876   6.656   0.382  1.8341  3.0681  1.0614
 8509TIP3   OH246941   4.004   2.090   3.364  0.1879  0.2901  0.5690
 8509TIP3    H146942   3.986   2.043   3.282  1.7552 -0.7092  0.7843
 8509TIP3    H246943   3.967   2.177   3.349 -1.4509 -0.5230 -0.3950
 8510TIP3   OH246944   0.103   0.523  14.355 -0.6464  0.2041 -0.0154
 8510TIP3    H146945   0.149   0.549  14.275 -3.1435  0.8164 -1.3188
 8510TIP3    H246946   0.014   0.556  14.342 -0.9992  0.5807  3.1825
 8511TIP3   OH246947   6.706   5.150   5.572  0.2877 -0.5756 -0.1006
 8511TIP3    H146948   6.637   5.211   5.543 -0.4570 -0.8902  0.9674
 8511TIP3    H246949   6.771   5.206   5.614  0.4444 -0.3316 -0.6606
 8512TIP3   OH246950   2.402   2.523  13.453 -0.6292  0.1555 -1.1844
 8512TIP3    H146951   2.310   2.523  13.480  0.1727  0.1998  1.7546
 8512TIP3    H246952   2.421   2.431  13.434 -0.6708 -0.2411  0.5748
 8513TIP3   OH246953   3.758   0.602  16.660  0.5195  0.5595 -0.0960
 8513TIP3    H146954   3.729   0.594  16.751 -1.4266  0.0898 -0.7415
 8513TIP3    H246955   3.690   0.559  16.609  2.5007 -0.8266 -1.6701
 8514TIP3   OH246956   1.340   1.493  14.664 -0.3671 -0.2553 -0.1850
 8514TIP3    H146957   1.366   1.574  14.707  1.9645 -1.1767  0.2059
 8514TIP3    H246958   1.326   1.518  14.572 -0.6347  0.7702  0.1335
 8515TIP3   OH246959   0.530   1.297  12.429 -0.0864 -0.3096  0.5731
 8515TIP3    H146960   0.437   1.318  12.439 -0.3337  0.9388 -3.3923
 8515TIP3    H246961   0.576   1.374  12.462 -0.5716  0.2760 -0.0994
 8516TIP3   OH246962   4.396   1.138   2.425  0.4595  0.1878 -0.0256
 8516TIP3    H146963   4.455   1.140   2.350  3.5867 -2.8859  2.2109
 8516TIP3    H246964   4.444   1.181   2.496 -1.1665  0.2478  1.0916
 8517TIP3   OH246965   2.302   6.162  11.369  0.1970 -0.6569  0.0630
 8517TIP3    H146966   2.391   6.125  11.363  0.5912  0.4491 -1.1376
 8517TIP3    H246967   2.307   6.244  11.321 -1.4586 -0.5162  0.1069
 8518TIP3   OH246968   6.530   0.616   6.370 -0.0318  0.4515 -0.4161
 8518TIP3    H146969   6.493   0.539   6.415 -0.4107  1.4547  1.0361
 8518TIP3    H246970   6.612   0.585   6.333 -0.6043 -0.8863 -0.5915
 8519TIP3   OH246971   6.329   0.816  11.399 -0.4067 -0.0381  0.3915
 8519TIP3    H146972   6.416   0.781  11.381 -0.8711 -0.8023 -0.4177
 8519TIP3    H246973   6.283   0.809  11.316 -1.1296  0.6885  0.7265
 8520TIP3   OH246974   2.802   2.145   1.338 -0.0530 -0.2873  0.3934
 8520TIP3    H146975   2.741   2.132   1.266  0.3486 -2.8637  0.4715
 8520TIP3    H246976   2.747   2.147   1.416 -0.2237 -0.6787  0.2855
 8521TIP3   OH246977   3.519   4.420   2.179  0.6123 -0.3529  0.0891
 8521TIP3    H146978   3.588   4.478   2.211 -0.4891  2.2613 -2.1324
 8521TIP3    H246979   3.439   4.452   2.221 -0.3588  1.2388 -2.8477
 8522TIP3   OH246980   5.138   2.832   5.610  0.4345 -0.4372  0.3257
 8522TIP3    H146981   5.097   2.797   5.532 -0.5897 -0.8767  1.0507
 8522TIP3    H246982   5.099   2.782   5.682  0.9900  0.3089  1.1560
 8523TIP3   OH246983   0.003   2.481   1.853  0.2210  0.0284 -0.3636
 8523TIP3    H146984   0.091   2.501   1.885  0.7409 -0.4470 -1.4895
 8523TIP3    H246985  -0.055   2.530   1.912  1.2632  1.0154 -0.1373
 8524TIP3   OH246986   3.024   0.667   1.650  0.0129  0.1096  0.5600
 8524TIP3    H146987   3.108   0.679   1.607  0.6291 -1.2696  1.3243
 8524TIP3    H246988   3.038   0.700   1.739  0.3369 -1.8447  1.2578
 8525TIP3   OH246989   0.287   2.342   0.920 -0.0083 -0.3981 -0.2003
 8525TIP3    H146990   0.241   2.259   0.932 -2.6162  0.7888 -1.5594
 8525TIP3    H246991   0.263   2.393   0.997 -1.6947  0.5066 -1.2863
 8526TIP3   OH246992   1.838   3.628   6.170  0.3187 -0.0594 -0.3070
 8526TIP3    H146993   1.840   3.532   6.171  0.6661 -0.0416  1.0645
 8526TIP3    H246994   1.927   3.653   6.142  0.3459 -0.1298 -0.2840
 8527TIP3   OH246995   2.761   2.435  17.079 -0.1193 -0.5521 -0.6867
 8527TIP3    H146996   2.826   2.440  17.149  0.5775  1.9097 -1.4638
 8527TIP3    H246997   2.690   2.383  17.116  0.9606 -0.6861  1.2627
 8528TIP3   OH246998   1.087   3.472   2.374  0.2028  0.3070  0.4347
 8528TIP3    H146999   1.144   3.408   2.330 -0.5345 -0.1351  0.1041
 8528TIP3    H247000   1.145   3.545   2.395  0.7515  0.1659 -0.5295
 8529TIP3   OH247001   6.346   6.665   3.073 -0.1960 -0.3320  0.1928
 8529TIP3    H147002   6.366   6.705   2.989  0.5302  0.4078  0.7006
 8529TIP3    H247003   6.268   6.711   3.104  0.4624  0.5201  0.6377
 8530TIP3   OH247004   3.406   5.350  11.942  0.2204  0.1293 -0.0121
 8530TIP3    H147005   3.398   5.397  11.859  1.4995  0.2216 -0.0959
 8530TIP3    H247006   3.414   5.419  12.008  0.5471  0.0431  0.0384
 8531TIP3   OH247007   4.569   1.560  14.181  0.0243 -0.1640  0.2306
 8531TIP3    H147008   4.556   1.610  14.100 -0.1982 -0.0034  0.3669
 8531TIP3    H247009   4.506   1.596  14.242 -0.0494 -0.5271  0.3706
 8532TIP3   OH247010   2.647   4.228   1.546  0.0765  0.2310 -0.2683
 8532TIP3    H147011   2.647   4.164   1.617 -1.9841  1.9479  1.3294
 8532TIP3    H247012   2.590   4.189   1.479  1.8994 -1.3157 -0.9689
 8533TIP3   OH247013   3.723   3.336  13.469  0.3905 -0.0880 -0.5314
 8533TIP3    H147014   3.733   3.430  13.454 -0.7999  0.5017  2.0856
 8533TIP3    H247015   3.633   3.317  13.440 -0.0008 -0.0421  0.6387
 8534TIP3   OH247016   2.700   1.275  11.392  0.1184  0.3684 -0.2879
 8534TIP3    H147017   2.667   1.360  11.422  0.5942  0.0630  1.1266
 8534TIP3    H247018   2.786   1.295  11.355  1.9541 -0.0068  3.5601
 8535TIP3   OH247019   2.959   0.302  16.454 -0.4088  0.2760 -0.7466
 8535TIP3    H147020   3.007   0.254  16.522 -2.0539 -0.9509 -0.4451
 8535TIP3    H247021   3.008   0.286  16.374  0.5033  0.2123 -0.1840
 8536TIP3   OH247022   4.799   2.084   4.333 -0.2476  0.3305  0.5664
 8536TIP3    H147023   4.713   2.122   4.351 -0.9875 -0.2182 -1.6453
 8536TIP3    H247024   4.859   2.158   4.334 -0.8615  0.8208  1.4022
 8537TIP3   OH247025   3.448   3.914  13.748  0.7679 -0.4386  0.0912
 8537TIP3    H147026   3.507   3.918  13.822  1.9129 -3.6816 -0.5624
 8537TIP3    H247027   3.499   3.947  13.674  0.6392 -0.1317  0.1366
 8538TIP3   OH247028   6.582   6.001  16.580 -0.6264  0.7554  0.0225
 8538TIP3    H147029   6.612   5.921  16.538 -1.4458  1.8215 -2.6627
 8538TIP3    H247030   6.501   6.023  16.534 -0.4245  3.1088  0.7623
 8539TIP3   OH247031   4.602   0.318   1.675 -0.2376  0.4704  0.4159
 8539TIP3    H147032   4.634   0.318   1.585 -0.1040  3.3021  0.4181
 8539TIP3    H247033   4.637   0.398   1.714 -0.2813 -0.6992  3.0221
 8540TIP3   OH247034   2.768   0.704   6.242  0.2685 -0.0428 -0.0659
 8540TIP3    H147035   2.687   0.671   6.282 -0.1803 -0.3878 -1.2297
 8540TIP3    H247036   2.823   0.730   6.316 -0.3818 -1.0529  0.7874
 8541TIP3   OH247037   0.748   2.755  12.558  0.9798 -0.4084 -0.2055
 8541TIP3    H147038   0.836   2.768  12.593 -0.2144 -0.4747  2.9569
 8541TIP3    H247039   0.750   2.667  12.519  1.7997 -1.1996  1.5647
 8542TIP3   OH247040   3.562   5.804   1.821 -0.2151  0.1834  0.1515
 8542TIP3    H147041   3.642   5.857   1.828 -0.3745  0.7027 -1.6818
 8542TIP3    H247042   3.499   5.849   1.876 -0.0282  1.3230 -0.5456
 8543TIP3   OH247043   0.857   2.634  13.045  0.0129  0.3372 -0.1671
 8543TIP3    H147044   0.868   2.724  13.012 -0.4749  0.8046  0.9351
 8543TIP3    H247045   0.782   2.639  13.104 -1.0307 -1.1259 -1.3087
 8544TIP3   OH247046   1.381   0.895  14.366 -0.0046 -0.5383  0.3808
 8544TIP3    H147047   1.304   0.885  14.310  1.2533  1.0183 -1.6711
 8544TIP3    H247048   1.446   0.837  14.327  1.0984  1.0627 -0.1920
 8545TIP3   OH247049   0.258   0.263  13.905  0.2419 -0.6377 -0.2637
 8545TIP3    H147050   0.197   0.247  13.976 -0.7741  0.6767 -0.8221
 8545TIP3    H247051   0.320   0.328  13.940  0.4471 -0.8715 -0.1896
 8546TIP3   OH247052   0.075   6.460   6.121 -0.0702 -0.2765 -0.0786
 8546TIP3    H147053   0.123   6.543   6.121  0.2180 -0.4295  1.1615
 8546TIP3    H247054   0.142   6.395   6.100 -0.1001 -0.3052 -0.0822
 8547TIP3   OH247055   5.233   0.893  11.318 -0.4249  0.1578 -0.4492
 8547TIP3    H147056   5.152   0.851  11.346 -0.7668  1.0260 -0.0860
 8547TIP3    H247057   5.205   0.955  11.250 -0.3455  1.7646  0.9441
 8548TIP3   OH247058   1.714   6.279  11.468 -0.2651  0.1426  0.2880
 8548TIP3    H147059   1.776   6.308  11.535  0.4670  0.2308 -0.4189
 8548TIP3    H247060   1.769   6.256  11.393 -0.8536 -2.4132  0.5730
 8549TIP3   OH247061   4.566   4.568   5.878  0.0286  0.3371 -0.6012
 8549TIP3    H147062   4.526   4.515   5.947  1.9972 -0.3314  0.0426
 8549TIP3    H247063   4.552   4.518   5.798  2.9943 -1.8579  0.1703
 8550TIP3   OH247064   6.424   6.122  11.266 -0.5428  0.8212 -0.0216
 8550TIP3    H147065   6.361   6.098  11.333  0.4967 -0.6404  0.4528
 8550TIP3    H247066   6.423   6.049  11.205  0.8906  0.6688  0.1314
 8551TIP3   OH247067   6.018   1.795  14.712  0.0930  0.3720 -0.2250
 8551TIP3    H147068   6.102   1.813  14.669  1.7586  0.2267  2.8030
 8551TIP3    H247069   6.004   1.871  14.769 -0.3633 -0.9338  1.4308
 8552TIP3   OH247070   3.733   6.390  13.995 -0.1775  0.5443 -0.2025
 8552TIP3    H147071   3.766   6.300  13.989 -2.0616  0.0060 -3.3113
 8552TIP3    H247072   3.677   6.389  14.073  0.5078 -0.7379  0.2911
 8553TIP3   OH247073   2.565   3.355  13.587  0.3856 -0.3934 -0.1681
 8553TIP3    H147074   2.489   3.368  13.644  0.1222 -2.5938 -0.0059
 8553TIP3    H247075   2.609   3.441  13.587 -2.1692  0.9689 -0.4260
 8554TIP3   OH247076   1.417   2.087  13.287 -0.4466  0.5910  0.3402
 8554TIP3    H147077   1.507   2.119  13.294 -0.5395  0.9370 -0.0294
 8554TIP3    H247078   1.417   2.032  13.208 -0.4944  0.3772  0.4903
 8555TIP3   OH247079   4.012   5.054   6.124 -0.8195 -0.1925 -0.6760
 8555TIP3    H147080   3.970   5.139   6.130 -0.1201  0.1410 -0.4470
 8555TIP3    H247081   3.941   4.991   6.135 -1.2075  0.3659  0.0466
 8556TIP3   OH247082   4.552   3.793  15.586 -0.0598 -0.2951 -0.2423
 8556TIP3    H147083   4.641   3.760  15.574  1.0517  3.2287 -2.4786
 8556TIP3    H247084   4.526   3.822  15.499 -2.0208  2.0555  1.0745
 8557TIP3   OH247085   2.814   2.675  15.673 -0.1486  0.0305 -0.2393
 8557TIP3    H147086   2.754   2.678  15.599 -0.2643  0.6638 -0.1227
 8557TIP3    H247087   2.887   2.620  15.643 -1.0760 -1.2548 -0.1558
 8558TIP3   OH247088   0.779   0.130  13.357  0.2492 -0.4756  0.3796
 8558TIP3    H147089   0.771   0.085  13.440  0.0299 -2.4904 -0.7029
 8558TIP3    H247090   0.749   0.067  13.292  0.2449  1.1184 -1.2171
 8559TIP3   OH247091   1.116   6.713  13.566 -0.2839  0.0020 -0.4317
 8559TIP3    H147092   1.049   6.777  13.589 -1.2262 -1.8897  2.3353
 8559TIP3    H247093   1.083   6.630  13.600  1.9050 -1.5945 -2.0314
 8560TIP3   OH247094   1.823   6.037  13.568 -0.0386 -0.0529  0.2168
 8560TIP3    H147095   1.853   5.952  13.535 -3.1721 -0.8078 -0.8702
 8560TIP3    H247096   1.832   6.030  13.663  0.1044 -1.4802  0.1159
 8561TIP3   OH247097   0.513   1.094   0.837  0.2763 -0.1156 -0.1199
 8561TIP3    H147098   0.513   1.123   0.746 -0.2666  1.3928  0.3451
 8561TIP3    H247099   0.533   1.172   0.887  1.3641 -1.1092  1.0231
 8562TIP3   OH247100   1.603   1.550   2.445  0.0089  0.7915 -0.3948
 8562TIP3    H147101   1.689   1.515   2.468 -2.0717 -2.6789  2.7017
 8562TIP3    H247102   1.581   1.610   2.516 -0.5835  0.8622 -0.6297
 8563TIP3   OH247103   5.161   2.816  13.681  0.1059 -0.8382  0.4469
 8563TIP3    H147104   5.186   2.890  13.626 -0.6357 -1.2341 -0.4272
 8563TIP3    H247105   5.080   2.783  13.642 -0.1547 -1.4453  1.4686
 8564TIP3   OH247106   3.016   5.703   1.545  0.0814  1.5316 -0.3533
 8564TIP3    H147107   2.986   5.621   1.583  2.2717  1.0998  0.5293
 8564TIP3    H247108   2.958   5.718   1.470 -1.5355  0.1733  0.5934
 8565TIP3   OH247109   0.846   1.186   3.959 -0.5814 -0.3961 -0.2943
 8565TIP3    H147110   0.823   1.146   4.043  0.0323  0.1101  0.1227
 8565TIP3    H247111   0.787   1.261   3.952 -0.4836 -0.3122 -0.2147
 8566TIP3   OH247112   0.547   0.062  17.197 -0.4393 -0.0036 -0.1863
 8566TIP3    H147113   0.591  -0.021  17.182 -1.1263 -0.5661  0.7954
 8566TIP3    H247114   0.527   0.061  17.291 -2.2377  0.3757 -0.5488
 8567TIP3   OH247115   6.578   3.493  14.231 -0.5814  0.4710  0.1619
 8567TIP3    H147116   6.607   3.535  14.312 -0.1344  0.6827 -0.1041
 8567TIP3    H247117   6.644   3.519  14.166  0.4916 -1.7407  0.3001
 8568TIP3   OH247118   5.168   0.488  13.632  0.2881 -0.2683  0.1962
 8568TIP3    H147119   5.076   0.505  13.609  0.5496 -0.4704 -1.0414
 8568TIP3    H247120   5.187   0.549  13.703 -0.3490  0.8922 -0.6109
 8569TIP3   OH247121   5.619   3.489   0.935  0.2036 -0.0864 -0.0851
 8569TIP3    H147122   5.640   3.434   1.010  2.2052  1.8655  0.8259
 8569TIP3    H247123   5.524   3.479   0.924  0.0960 -1.4507  1.8401
 8570TIP3   OH247124   6.340   3.831  17.036  0.6076 -0.0959  0.0435
 8570TIP3    H147125   6.289   3.827  16.955  2.0884 -0.0689 -0.8978
 8570TIP3    H247126   6.278   3.865  17.101 -0.6746 -0.3907 -0.9956
 8571TIP3   OH247127   4.826   5.600   1.254 -0.1292  0.1882  0.2308
 8571TIP3    H147128   4.903   5.653   1.233  0.3551 -1.0934 -1.3068
 8571TIP3    H247129   4.768   5.611   1.179 -1.1070  0.4925  1.0154
 8572TIP3   OH247130   6.065   2.711   2.594 -0.4912 -0.3526 -0.0057
 8572TIP3    H147131   6.118   2.651   2.543  0.0060 -0.1871  0.3107
 8572TIP3    H247132   6.115   2.793   2.595 -0.5922 -0.2938  0.5701
 8573TIP3   OH247133   4.361   5.128  17.120 -0.3251  0.5695 -0.2225
 8573TIP3    H147134   4.448   5.093  17.098 -0.0305 -0.0582  1.8288
 8573TIP3    H247135   4.302   5.053  17.113  0.0400 -0.0459  2.5724
 8574TIP3   OH247136   0.640   0.091  11.651 -0.1424 -0.5133 -0.1296
 8574TIP3    H147137   0.581   0.071  11.578  1.7545  1.3713 -2.2573
 8574TIP3    H247138   0.714   0.032  11.639 -0.0142 -0.4952  0.5308
 8575TIP3   OH247139   2.699   4.112   6.655 -0.0513  0.1140 -0.6558
 8575TIP3    H147140   2.630   4.060   6.697  0.5082  0.7616  1.1186
 8575TIP3    H247141   2.677   4.203   6.677  1.2002  0.3427 -0.2996
 8576TIP3   OH247142   4.857   1.677   5.321  0.3551 -0.0861  0.6475
 8576TIP3    H147143   4.771   1.717   5.327  0.5968  0.4735  0.4479
 8576TIP3    H247144   4.845   1.587   5.352 -0.2667  0.0340  0.7466
 8577TIP3   OH247145   3.853   3.253  11.323 -1.0586  0.7047 -0.4794
 8577TIP3    H147146   3.845   3.216  11.235  0.1230 -1.6517  0.3515
 8577TIP3    H247147   3.939   3.295  11.323 -1.1499  0.8885 -0.5350
 8578TIP3   OH247148   3.433   3.188   3.587  0.3365  0.1174 -0.3479
 8578TIP3    H147149   3.500   3.236   3.636  0.8396 -0.4656 -0.4693
 8578TIP3    H247150   3.479   3.152   3.511  0.6487 -3.0652  1.2761
 8579TIP3   OH247151   0.906   4.348   0.132 -0.3455 -0.6827  0.3801
 8579TIP3    H147152   0.847   4.335   0.058 -0.0012  1.2542 -0.2487
 8579TIP3    H247153   0.912   4.443   0.142  1.4856 -0.8847  1.3805
 8580TIP3   OH247154   4.029   3.199  15.400  0.8963  0.2546 -0.2026
 8580TIP3    H147155   3.980   3.275  15.367  0.3423  1.1906  2.6645
 8580TIP3    H247156   3.980   3.170  15.477  3.3477 -0.4580  1.1490
 8581TIP3   OH247157   1.592   0.096   2.056  0.1088 -0.1681 -0.0360
 8581TIP3    H147158   1.637   0.127   1.978 -0.5983  1.9116  0.3333
 8581TIP3    H247159   1.660   0.090   2.123  0.4781 -0.6090 -0.4575
 8582TIP3   OH247160   4.451   2.523   4.957 -0.1709  0.4916 -0.5646
 8582TIP3    H147161   4.397   2.444   4.954  0.3228  0.0116  1.9512
 8582TIP3    H247162   4.398   2.590   4.914 -2.2509 -0.2757  0.7512
 8583TIP3   OH247163   1.680   1.612   2.923  0.3057 -0.1393 -0.4208
 8583TIP3    H147164   1.604   1.669   2.912  1.0779  0.8546 -0.7555
 8583TIP3    H247165   1.675   1.583   3.014 -0.2618  0.2483 -0.3265
 8584TIP3   OH247166   6.704   5.325   3.104  0.0277  0.1693 -0.5269
 8584TIP3    H147167   6.672   5.270   3.033  2.2363 -0.6004 -0.9677
 8584TIP3    H247168   6.800   5.316   3.100  0.2285  0.8010  1.9722
 8585TIP3   OH247169   0.744   4.773  13.700 -0.1352 -0.3684 -0.0074
 8585TIP3    H147170   0.832   4.756  13.734  0.0357 -1.6365 -1.0227
 8585TIP3    H247171   0.754   4.850  13.644  0.4160 -0.7074 -0.3900
 8586TIP3   OH247172   4.738   5.643  11.715 -0.5548  0.3731 -0.1214
 8586TIP3    H147173   4.684   5.623  11.638  0.1310  0.1787 -0.5684
 8586TIP3    H247174   4.823   5.667  11.678  0.1549 -0.9449  0.6252
 8587TIP3   OH247175   0.089   5.419   2.028  0.4590 -0.6658 -0.6064
 8587TIP3    H147176   0.175   5.435   2.066  0.0177  2.1786 -0.6435
 8587TIP3    H247177   0.104   5.416   1.933  0.2619  2.0345 -0.7558
 8588TIP3   OH247178   2.397   5.572  13.222  0.3518 -0.2834 -0.8392
 8588TIP3    H147179   2.335   5.643  13.206  0.4973 -0.2626 -1.3187
 8588TIP3    H247180   2.483   5.612  13.211  0.5355  0.1601  1.7013
 8589TIP3   OH247181   3.018   6.367   5.143  0.4433  0.3122 -0.3426
 8589TIP3    H147182   3.035   6.282   5.183  0.8111  1.2078  1.4725
 8589TIP3    H247183   2.927   6.386   5.164  0.3284  0.3169 -0.8440
 8590TIP3   OH247184   1.917   0.016  12.990  0.2591 -0.6670 -0.0823
 8590TIP3    H147185   1.971   0.040  12.915  0.3165  2.7869  0.9792
 8590TIP3    H247186   1.869  -0.062  12.962  1.1197 -0.0848 -3.2737
 8591TIP3   OH247187   5.183   6.318  12.890  0.1399  0.1880 -0.2192
 8591TIP3    H147188   5.178   6.270  12.972  1.0277  0.2005 -0.1530
 8591TIP3    H247189   5.180   6.410  12.915 -0.5035  0.1803 -0.2689
 8592TIP3   OH247190   0.245   5.649   0.006 -0.7638 -0.0773 -0.4062
 8592TIP3    H147191   0.220   5.587   0.075 -1.8705  0.3976 -0.3725
 8592TIP3    H247192   0.332   5.679   0.031 -0.8154 -0.5344  0.3348
 8593TIP3   OH247193   0.526   2.390   1.090 -0.1996 -0.4275  0.1837
 8593TIP3    H147194   0.535   2.397   0.995  0.7846 -0.2978  0.2847
 8593TIP3    H247195   0.445   2.339   1.102 -0.0262 -0.9444 -0.7273
 8594TIP3   OH247196   4.024   2.462  13.675  0.2473 -0.2157  0.0092
 8594TIP3    H147197   3.979   2.433  13.596 -0.6966 -1.1033  0.8573
 8594TIP3    H247198   4.081   2.533  13.645 -0.5876 -0.0920 -1.3369
 8595TIP3   OH247199   2.065   5.320   1.172  0.6794  0.0309 -0.2271
 8595TIP3    H147200   2.017   5.261   1.113  0.7183  1.0264 -1.2763
 8595TIP3    H247201   2.151   5.330   1.130  1.3148 -0.6117  0.8991
 8596TIP3   OH247202   5.544   4.898   4.174 -0.5965  0.0963  0.8902
 8596TIP3    H147203   5.471   4.904   4.112 -1.1534 -3.0916  1.1565
 8596TIP3    H247204   5.593   4.822   4.145  1.7072  1.2214  1.7463
 8597TIP3   OH247205   4.551   4.392   6.473 -0.0285 -0.0910  0.2248
 8597TIP3    H147206   4.511   4.450   6.408  0.7384  0.1602 -0.0223
 8597TIP3    H247207   4.527   4.304   6.444  0.0744  0.0329 -0.2403
 8598TIP3   OH247208   0.028   2.343  13.025  0.1038  0.3573  0.6840
 8598TIP3    H147209   0.038   2.252  12.996 -3.6074  0.3111 -0.7952
 8598TIP3    H247210   0.031   2.339  13.120 -1.5822 -1.5915  0.6932
 8599TIP3   OH247211   0.705   3.014  13.781  0.5417  0.0971  0.2427
 8599TIP3    H147212   0.701   3.009  13.877 -0.8270 -0.4818  0.1605
 8599TIP3    H247213   0.761   2.941  13.756  0.1561 -0.3162  0.5588
 8600TIP3   OH247214   6.521   6.761  14.264  0.1996 -0.2793 -0.1668
 8600TIP3    H147215   6.524   6.854  14.288 -1.4320 -0.3821  0.5697
 8600TIP3    H247216   6.466   6.758  14.186 -0.4987 -0.7105  0.3339
 8601TIP3   OH247217   2.867   4.039  15.996  0.0833  0.4069  0.2473
 8601TIP3    H147218   2.934   4.024  15.930 -0.7278 -2.2578 -0.0320
 8601TIP3    H247219   2.909   4.012  16.078 -0.5007 -0.9653  0.1119
 8602TIP3   OH247220   5.697   3.576  14.396  0.3458 -0.1556  0.3082
 8602TIP3    H147221   5.638   3.636  14.442 -0.8669 -1.7840  0.9168
 8602TIP3    H247222   5.780   3.624  14.390 -0.3819  1.2882  1.4479
 8603TIP3   OH247223   2.509   0.707  16.947  0.2017 -0.1588 -0.1985
 8603TIP3    H147224   2.575   0.774  16.962  0.4434 -0.5376  0.4521
 8603TIP3    H247225   2.445   0.749  16.890  1.6073 -0.1656 -1.8123
 8604TIP3   OH247226   0.631   0.916   4.756 -0.4930  0.3809 -0.4960
 8604TIP3    H147227   0.582   0.939   4.835  0.2128  0.1382  0.0179
 8604TIP3    H247228   0.689   0.992   4.741 -0.8962  0.5920 -1.0006
 8605TIP3   OH247229   0.507   4.735  11.455 -0.3288  0.3556  0.1405
 8605TIP3    H147230   0.545   4.803  11.400  0.7686  0.0998  0.5811
 8605TIP3    H247231   0.574   4.667  11.460 -0.1162  0.7140  2.4386
 8606TIP3   OH247232   1.009   5.856  10.984 -0.1336  0.0354 -0.6031
 8606TIP3    H147233   1.093   5.848  10.939  1.1928 -0.7685  1.9350
 8606TIP3    H247234   0.948   5.803  10.931  0.7144  1.3596 -2.9516
 8607TIP3   OH247235   6.507   0.321   0.745 -0.9074 -0.1299 -0.3169
 8607TIP3    H147236   6.474   0.282   0.664 -1.9728  1.2945 -0.5990
 8607TIP3    H247237   6.573   0.260   0.777  0.9881  0.2751 -3.3266
 8608TIP3   OH247238   2.648   4.234   2.641 -0.1280  0.2846 -0.1229
 8608TIP3    H147239   2.663   4.181   2.563 -1.9058 -1.6611  0.7928
 8608TIP3    H247240   2.698   4.314   2.627  1.5333 -1.0887 -2.1526
 8609TIP3   OH247241   5.180   5.802  11.526  0.3727 -0.4335 -0.0167
 8609TIP3    H147242   5.146   5.717  11.554  0.2155  0.0648  1.3556
 8609TIP3    H247243   5.239   5.782  11.453  1.5240 -1.8791  1.2751
 8610TIP3   OH247244   2.891   2.603  11.488  0.1092 -0.5144 -0.9252
 8610TIP3    H147245   2.966   2.558  11.529 -0.1532  0.4917  0.7288
 8610TIP3    H247246   2.817   2.546  11.506 -0.1558  0.3497  0.8239
 8611TIP3   OH247247   5.246   6.139  13.371 -0.1778  0.0960 -0.0957
 8611TIP3    H147248   5.168   6.163  13.320 -0.7792  0.0804  0.8190
 8611TIP3    H247249   5.231   6.176  13.458  1.9799  2.3246 -0.6167
 8612TIP3   OH247250   4.591   3.766   5.998 -0.8525  0.1667 -0.1220
 8612TIP3    H147251   4.519   3.709   5.972 -0.5414 -1.0760  1.6175
 8612TIP3    H247252   4.549   3.835   6.050 -0.9736  0.3311 -0.4374
 8613TIP3   OH247253   0.455   0.977   1.932  0.3572  0.5687 -0.0676
 8613TIP3    H147254   0.385   0.913   1.918 -0.0042  0.9183  0.1313
 8613TIP3    H247255   0.442   1.042   1.863  0.2923  0.8022  0.1638
 8614TIP3   OH247256   4.402   1.702  11.733 -0.5204  0.5292  0.2579
 8614TIP3    H147257   4.434   1.792  11.737  0.0268  0.2915  1.7087
 8614TIP3    H247258   4.453   1.656  11.800 -0.2791 -1.0254 -0.9725
 8615TIP3   OH247259   3.930   5.729   3.051  0.1687  0.5143 -0.4836
 8615TIP3    H147260   3.901   5.814   3.085  0.8269  0.9184 -0.9197
 8615TIP3    H247261   3.870   5.710   2.979 -0.7923 -0.0153  0.4316
 8616TIP3   OH247262   6.189   6.259   2.319 -0.0546  0.3148  0.3808
 8616TIP3    H147263   6.116   6.321   2.317  1.4141  2.0777 -0.5015
 8616TIP3    H247264   6.202   6.241   2.412 -1.1173  0.5974  0.5929
 8617TIP3   OH247265   6.327   1.008  15.783  0.0597 -0.1377  0.0318
 8617TIP3    H147266   6.387   1.082  15.793  0.3112 -0.2961 -0.3084
 8617TIP3    H247267   6.293   1.017  15.694 -1.6635  0.8933  0.7631
 8618TIP3   OH247268   1.611   1.702  14.779 -0.2619 -0.1216 -0.0959
 8618TIP3    H147269   1.667   1.628  14.753 -0.2938 -0.4880  0.8492
 8618TIP3    H247270   1.601   1.753  14.699 -1.2441 -1.7793 -1.0680
 8619TIP3   OH247271   2.106   0.563  13.499  0.1473  0.0542 -0.4695
 8619TIP3    H147272   2.125   0.528  13.412 -1.6444 -0.3065 -0.7392
 8619TIP3    H247273   2.134   0.654  13.496 -0.1165  0.1017 -1.5015
 8620TIP3   OH247274   2.795   1.323   0.135  0.3299 -0.0350 -0.3290
 8620TIP3    H147275   2.752   1.366   0.061 -2.3613 -0.9335  0.6677
 8620TIP3    H247276   2.805   1.232   0.107 -0.4134 -0.3091  0.2985
 8621TIP3   OH247277   5.742   0.808   2.260 -0.3523 -0.1843  0.0265
 8621TIP3    H147278   5.835   0.790   2.275  0.0728  0.9794 -1.0761
 8621TIP3    H247279   5.735   0.817   2.165 -1.1686  1.9844  0.2619
 8622TIP3   OH247280   3.308   5.320   3.103 -0.4375 -0.1901  0.4749
 8622TIP3    H147281   3.287   5.411   3.082  0.8827  0.2331  0.9617
 8622TIP3    H247282   3.403   5.316   3.104 -0.4737 -1.4815  0.9077
 8623TIP3   OH247283   0.952   3.028  15.431 -0.3277 -0.5106  0.2027
 8623TIP3    H147284   0.946   3.057  15.340 -1.1322 -0.2360  0.3390
 8623TIP3    H247285   0.968   2.934  15.426 -2.1949 -0.8229 -0.2191
 8624TIP3   OH247286   1.787   5.133   3.322 -0.5837 -0.3496  0.4277
 8624TIP3    H147287   1.861   5.152   3.264  0.6539 -2.6430  1.1885
 8624TIP3    H247288   1.736   5.066   3.275 -0.4666 -1.0311  1.2586
 8625TIP3   OH247289   2.521   4.756  11.994 -0.1965  0.5377 -0.0434
 8625TIP3    H147290   2.480   4.843  11.992  0.9786  1.0847 -0.2866
 8625TIP3    H247291   2.564   4.748  11.909  0.2860 -0.0018  0.2508
 8626TIP3   OH247292   2.106   1.891   2.382 -0.3456 -1.1760  0.7981
 8626TIP3    H147293   2.191   1.932   2.367  0.0453 -2.1701  0.2565
 8626TIP3    H247294   2.068   1.940   2.455 -0.2480  0.6653 -0.3530
 8627TIP3   OH247295   0.111   1.121  11.385 -0.0066  0.1252  0.6403
 8627TIP3    H147296   0.195   1.142  11.343  0.2170  0.3806  1.2076
 8627TIP3    H247297   0.123   1.149  11.476 -0.5531 -0.2569  0.8262
 8628TIP3   OH247298   3.852   3.947   4.996 -0.0014 -0.1659  0.3604
 8628TIP3    H147299   3.813   3.928   4.911 -0.2385  0.9519  0.2056
 8628TIP3    H247300   3.947   3.943   4.981 -0.0306  1.0365 -0.2090
 8629TIP3   OH247301   2.515   0.081   0.530  0.1893 -0.0926 -0.5794
 8629TIP3    H147302   2.557   0.038   0.604  1.9036  1.4608 -0.5975
 8629TIP3    H247303   2.435   0.032   0.515  1.3011 -2.2487  0.3965
 8630TIP3   OH247304   3.012   1.917   1.385 -0.4573  0.4231 -0.2997
 8630TIP3    H147305   3.098   1.957   1.402  0.0344 -0.1982 -1.3300
 8630TIP3    H247306   2.957   1.990   1.358  0.6349  0.3243 -2.9153
 8631TIP3   OH247307   1.084   5.508   4.447 -0.0621 -0.5301 -0.5727
 8631TIP3    H147308   0.999   5.533   4.411  0.4881 -0.7506 -2.0373
 8631TIP3    H247309   1.066   5.489   4.539 -1.5153 -0.1516 -0.7679
 8632TIP3   OH247310   1.166   5.562  12.216  0.1053 -0.3200 -0.5520
 8632TIP3    H147311   1.222   5.639  12.226  1.5473 -1.3657 -0.5035
 8632TIP3    H247312   1.167   5.544  12.122 -1.3048  0.4988 -0.7353
 8633TIP3   OH247313   2.525   5.921   1.902  0.4713  0.0212 -0.2428
 8633TIP3    H147314   2.514   5.885   1.990 -2.5667  1.0086 -0.1635
 8633TIP3    H247315   2.471   6.000   1.901  0.6460  0.1695 -2.9429
 8634TIP3   OH247316   2.412   0.196  14.825  0.2627 -0.1482  0.2963
 8634TIP3    H147317   2.454   0.183  14.910 -1.0248  1.7893  1.2763
 8634TIP3    H247318   2.481   0.236  14.771  0.9295 -0.8880  0.5950
 8635TIP3   OH247319   0.961   2.355   2.928  0.4231  0.4238 -0.1238
 8635TIP3    H147320   0.953   2.269   2.887 -0.4638  0.1392  0.6161
 8635TIP3    H247321   0.870   2.383   2.944  0.7338 -0.0332  2.7509
 8636TIP3   OH247322   1.364   6.072  11.687  0.4549  0.2139  0.4669
 8636TIP3    H147323   1.306   6.119  11.747 -0.7156  2.7609 -2.4573
 8636TIP3    H247324   1.449   6.071  11.730 -0.2414  2.3408  1.9736
 8637TIP3   OH247325   0.358   2.360   0.662  0.3576 -0.4171  0.2021
 8637TIP3    H147326   0.417   2.320   0.727  0.9586 -0.1679 -0.1805
 8637TIP3    H247327   0.278   2.380   0.711  0.3728 -1.2933  0.5967
 8638TIP3   OH247328   2.770   3.169   4.645  0.6599 -0.0923  0.1701
 8638TIP3    H147329   2.788   3.207   4.559 -0.5036  1.6183  0.6463
 8638TIP3    H247330   2.856   3.141   4.677  1.3442  0.8189 -0.8315
 8639TIP3   OH247331   2.260   4.213  16.045  0.4938 -0.5060  0.5613
 8639TIP3    H147332   2.283   4.143  15.983  0.8234 -0.2787  0.4172
 8639TIP3    H247333   2.341   4.229  16.094 -0.0775 -1.4681  1.8439
 8640TIP3   OH247334   0.384   2.691  14.068 -0.5866  0.5377 -0.1036
 8640TIP3    H147335   0.303   2.688  14.016  0.7155 -1.2510 -2.0849
 8640TIP3    H247336   0.451   2.721  14.007  0.8413 -0.9863  0.6703
 8641TIP3   OH247337   6.688   5.085   2.392  0.2995 -0.3516 -0.3213
 8641TIP3    H147338   6.592   5.088   2.400  0.3033  3.2154 -0.6683
 8641TIP3    H247339   6.703   5.059   2.301 -0.4010  1.0096 -0.8455
 8642TIP3   OH247340   5.907   5.945  14.184 -0.4104  0.2384  0.1179
 8642TIP3    H147341   5.876   5.968  14.271 -0.2216  2.6596 -0.4352
 8642TIP3    H247342   5.971   6.013  14.162  0.2884 -0.9108 -1.4969
 8643TIP3   OH247343   2.774   0.894   4.473 -0.0541  0.1468  0.0727
 8643TIP3    H147344   2.827   0.965   4.435 -3.0278  2.5214  0.1691
 8643TIP3    H247345   2.766   0.830   4.402 -0.0956  1.4820 -1.1611
 8644TIP3   OH247346   2.557   0.857  13.198  0.2618  0.7544 -0.0177
 8644TIP3    H147347   2.555   0.875  13.104  0.7431 -0.9818 -0.3747
 8644TIP3    H247348   2.528   0.766  13.206 -0.0395  0.9726  1.5405
 8645TIP3   OH247349   2.159   4.968  13.969 -0.0416 -0.3736  0.1118
 8645TIP3    H147350   2.170   4.983  14.063  0.4408  1.8258 -0.2587
 8645TIP3    H247351   2.093   5.032  13.943 -0.9561 -1.7001 -0.8682
 8646TIP3   OH247352   6.101   4.927   0.016  0.0539  0.1028 -0.3594
 8646TIP3    H147353   6.067   5.008  -0.021  0.3058  0.0638 -0.6799
 8646TIP3    H247354   6.061   4.921   0.103 -0.3526  0.3178 -0.5314
 8647TIP3   OH247355   4.147   2.913   5.678  0.2947  0.3864 -0.2334
 8647TIP3    H147356   4.112   2.825   5.690 -2.1116  1.0300 -2.0980
 8647TIP3    H247357   4.102   2.966   5.743  2.5302  0.0849  1.6111
 8648TIP3   OH247358   6.465   0.589   5.307 -0.3439 -0.7836 -0.3976
 8648TIP3    H147359   6.407   0.524   5.268  0.9317 -1.0860 -1.8414
 8648TIP3    H247360   6.549   0.575   5.263  0.5921  0.2002  1.0581
 8649TIP3   OH247361   1.658   5.784   4.308 -0.1114  0.0240  0.7573
 8649TIP3    H147362   1.725   5.715   4.305  2.0539  2.0761  0.8730
 8649TIP3    H247363   1.640   5.794   4.402  1.4769  1.3505  0.9550
 8650TIP3   OH247364   4.046   3.826  12.788  0.4225 -0.0935  0.1147
 8650TIP3    H147365   4.094   3.746  12.766  1.8469  1.0321 -0.9625
 8650TIP3    H247366   3.960   3.815  12.750  0.7835 -0.9078 -0.4636
 8651TIP3   OH247367   0.227   6.748  15.620  0.2822 -0.3519  0.1891
 8651TIP3    H147368   0.221   6.839  15.648 -0.5248  0.0330 -1.1861
 8651TIP3    H247369   0.140   6.711  15.637  0.4409 -0.7141  0.2310
 8652TIP3   OH247370   5.229   4.129   1.401 -1.1665  0.1248  0.1542
 8652TIP3    H147371   5.279   4.210   1.414 -1.0026  0.0313  0.0956
 8652TIP3    H247372   5.184   4.116   1.485 -0.2969 -0.3411  0.5614
 8653TIP3   OH247373   1.856   4.623   0.597  0.2678 -0.0037  0.4383
 8653TIP3    H147374   1.921   4.619   0.667  1.4498  0.1292 -0.6244
 8653TIP3    H247375   1.828   4.533   0.584  3.0278 -0.6237 -1.6252
 8654TIP3   OH247376   4.143   5.797   4.527  1.0689 -0.4521 -0.2197
 8654TIP3    H147377   4.076   5.865   4.534  1.2869 -0.3572  0.9280
 8654TIP3    H247378   4.209   5.820   4.592  1.3541 -1.5254 -0.1154
 8655TIP3   OH247379   5.453   1.437   2.911  0.0333  0.1551 -0.3177
 8655TIP3    H147380   5.425   1.398   2.827  0.2894 -0.0044 -0.3278
 8655TIP3    H247381   5.371   1.469   2.950  0.1673  2.2808 -1.6639
 8656TIP3   OH247382   0.337   3.996   2.345 -0.1679  0.4177  0.2016
 8656TIP3    H147383   0.336   3.957   2.258 -2.2018  0.2965  0.2547
 8656TIP3    H247384   0.328   3.922   2.405  0.1195  0.5983  0.4702
 8657TIP3   OH247385   4.472   2.451  14.943  0.4111  0.0344 -0.1133
 8657TIP3    H147386   4.378   2.436  14.937  0.5718 -0.3003 -2.3928
 8657TIP3    H247387   4.497   2.413  15.027 -1.1570 -1.7828 -0.4246
 8658TIP3   OH247388   2.458   3.411   2.870  0.3209 -0.1765 -0.4414
 8658TIP3    H147389   2.416   3.488   2.832  0.6596 -0.7246 -1.9817
 8658TIP3    H247390   2.391   3.371   2.925  0.0915  1.1138  0.2336
 8659TIP3   OH247391   3.732   2.157   2.406  0.5105  0.2058  0.4428
 8659TIP3    H147392   3.666   2.087   2.406  0.5979  0.0553 -2.0360
 8659TIP3    H247393   3.693   2.226   2.353  1.6699  0.7923  0.3383
 8660TIP3   OH247394   4.065   6.754   3.480 -0.0331 -0.3524  0.5351
 8660TIP3    H147395   4.116   6.827   3.445 -2.0172  0.3546 -0.9278
 8660TIP3    H247396   4.092   6.679   3.427  1.2179 -0.5126  1.3484
 8661TIP3   OH247397   4.839   4.152   5.540 -0.2221 -0.1271  0.1109
 8661TIP3    H147398   4.837   4.065   5.580 -0.7310  0.5139  1.5092
 8661TIP3    H247399   4.840   4.212   5.614  0.0483  1.0659 -0.8504
 8662TIP3   OH247400   5.362   6.259   1.177  0.3115 -0.3076 -0.4230
 8662TIP3    H147401   5.277   6.222   1.156 -1.3343  2.4314  1.1957
 8662TIP3    H247402   5.397   6.289   1.092 -1.3690  0.6352 -0.7979
 8663TIP3   OH247403   4.166   3.210  14.698 -0.0669  0.3006  0.8969
 8663TIP3    H147404   4.083   3.231  14.739 -0.6024 -0.0485  0.0084
 8663TIP3    H247405   4.165   3.115  14.687  0.1965  0.3573  0.3561
 8664TIP3   OH247406   0.718   0.360  15.288 -0.4042 -0.2589 -0.5077
 8664TIP3    H147407   0.806   0.330  15.265 -0.6984 -1.2854 -0.3139
 8664TIP3    H247408   0.665   0.280  15.292 -1.0122  0.1982  0.8660
 8665TIP3   OH247409   0.131   2.874   1.785  0.4722  0.0139  0.1382
 8665TIP3    H147410   0.036   2.873   1.771  0.4555 -2.0387  0.3025
 8665TIP3    H247411   0.141   2.863   1.880  0.8847 -1.8781 -0.1002
 8666TIP3   OH247412   5.392   6.411   5.951 -0.3009 -0.5401 -0.4455
 8666TIP3    H147413   5.318   6.371   5.996  0.2788 -2.1114 -0.8607
 8666TIP3    H247414   5.364   6.418   5.859  0.0482 -1.1250 -0.6005
 8667TIP3   OH247415   0.132   4.547  14.928 -0.5913  0.0679 -0.2879
 8667TIP3    H147416   0.105   4.455  14.926 -0.3323 -0.0652  1.4701
 8667TIP3    H247417   0.213   4.549  14.878 -0.0111 -0.8713  0.5861
 8668TIP3   OH247418   5.415   3.901   3.265 -0.7841 -0.0836 -0.0527
 8668TIP3    H147419   5.415   3.991   3.232 -0.1811  0.6959  1.9412
 8668TIP3    H247420   5.431   3.911   3.359 -0.0222 -2.3249  0.0817
 8669TIP3   OH247421   6.748   6.348   4.803 -0.2771  0.6156 -0.8650
 8669TIP3    H147422   6.740   6.304   4.888  2.6437  0.3059 -0.6879
 8669TIP3    H247423   6.759   6.277   4.740  1.6580  0.9498 -0.9398
 8670TIP3   OH247424   2.758   2.078  15.459  0.2136 -0.5604 -0.4597
 8670TIP3    H147425   2.675   2.127  15.462 -0.9003 -2.2657 -2.0498
 8670TIP3    H247426   2.731   1.987  15.445  2.3935 -1.0121 -1.9221
 8671TIP3   OH247427   0.403   2.415   6.051  0.1035  0.5206 -1.0305
 8671TIP3    H147428   0.444   2.333   6.078 -2.5113 -0.1739  1.0992
 8671TIP3    H247429   0.474   2.468   6.017  2.1097 -2.0191 -0.9276
 8672TIP3   OH247430   0.981   1.628   1.460  0.5047  0.3998 -0.0385
 8672TIP3    H147431   1.042   1.632   1.386 -0.0286  0.2134 -0.4892
 8672TIP3    H247432   0.933   1.547   1.447 -0.8852  1.2694 -0.5172
 8673TIP3   OH247433   4.201   4.642  16.591 -0.5372  0.0281 -0.4067
 8673TIP3    H147434   4.176   4.659  16.500 -0.2737 -0.4478 -0.5675
 8673TIP3    H247435   4.203   4.547  16.597  0.1850  0.0643 -0.1009
 8674TIP3   OH247436   3.270   5.440  15.497 -0.5197 -0.3515  0.2442
 8674TIP3    H147437   3.365   5.436  15.507 -0.4534 -0.8876 -0.5883
 8674TIP3    H247438   3.252   5.530  15.471 -0.4437  0.3463  2.5340
 8675TIP3   OH247439   3.974   3.537  11.741  0.7950  0.0814  0.2492
 8675TIP3    H147440   4.002   3.454  11.780  1.1666 -0.2882 -0.7854
 8675TIP3    H247441   3.879   3.531  11.738  0.8211 -0.3163  0.1619
 8676TIP3   OH247442   0.945   0.073   5.533 -0.0408  0.1683 -0.2271
 8676TIP3    H147443   0.850   0.088   5.525 -0.4259 -1.3781  1.2441
 8676TIP3    H247444   0.952  -0.011   5.578  2.0506  0.8128  0.6756
 8677TIP3   OH247445   2.829   0.473  12.876 -0.2622 -1.0305 -0.1099
 8677TIP3    H147446   2.794   0.398  12.827  0.1936 -2.4225  1.6119
 8677TIP3    H247447   2.863   0.434  12.957  0.9556  0.9210  0.3449
 8678TIP3   OH247448   3.927   0.358   0.156 -0.0725 -0.1371  1.2613
 8678TIP3    H147449   3.877   0.431   0.120  1.7139  0.7565  0.5664
 8678TIP3    H247450   3.955   0.389   0.243 -0.2449 -0.4388  1.4271
 8679TIP3   OH247451   0.791   4.105  11.242  0.8054  0.6377 -0.0759
 8679TIP3    H147452   0.808   4.019  11.279  0.1640  0.6872  0.3255
 8679TIP3    H247453   0.798   4.092  11.147 -0.0421 -0.0197 -0.0515
 8680TIP3   OH247454   5.350   4.390   3.174  0.1244  0.1045 -0.6811
 8680TIP3    H147455   5.406   4.439   3.114  0.6397 -0.2391 -0.4834
 8680TIP3    H247456   5.300   4.457   3.221 -0.9748  0.3523 -2.1526
 8681TIP3   OH247457   0.915   4.466  13.968 -0.0315 -0.0589  0.0918
 8681TIP3    H147458   0.970   4.545  13.968  2.3956 -1.6855  1.1011
 8681TIP3    H247459   0.841   4.488  14.025  1.3065  1.0447  1.4585
 8682TIP3   OH247460   3.826   2.129   0.986  0.0944  0.4494  0.1581
 8682TIP3    H147461   3.795   2.079   1.062 -1.5196  2.5501  0.9438
 8682TIP3    H247462   3.745   2.161   0.945  1.0529  1.4359 -0.9696
 8683TIP3   OH247463   2.367   2.886   3.330  0.1185  0.8286 -0.0267
 8683TIP3    H147464   2.462   2.876   3.335  0.0982  1.2828  1.3884
 8683TIP3    H247465   2.348   2.960   3.387 -1.1992  0.0456  0.5498
 8684TIP3   OH247466   5.713   6.549  16.110  0.1042 -0.1013 -0.2419
 8684TIP3    H147467   5.801   6.581  16.129 -0.4109  0.4963  1.2034
 8684TIP3    H247468   5.698   6.480  16.174 -1.8703  2.3061  2.0073
 8685TIP3   OH247469   1.882   3.219   5.772 -0.1418  0.2126  0.0400
 8685TIP3    H147470   1.829   3.156   5.723 -0.7975 -0.2931  1.3796
 8685TIP3    H247471   1.823   3.292   5.788 -0.6960 -0.6730  2.1897
 8686TIP3   OH247472   2.891   2.105  11.541 -0.6277  0.1010  0.7515
 8686TIP3    H147473   2.920   2.195  11.553 -1.9708  0.3733  2.0079
 8686TIP3    H247474   2.796   2.108  11.553 -0.6585 -1.5141  1.0386
 8687TIP3   OH247475   4.121   3.040  15.965 -0.4855 -0.0750 -0.0693
 8687TIP3    H147476   4.171   3.110  15.923 -1.7570  0.9448  0.0878
 8687TIP3    H247477   4.045   3.027  15.908 -0.7783 -0.6333  0.4370
 8688TIP3   OH247478   1.494   5.199   1.201  0.2035  0.3917  0.0772
 8688TIP3    H147479   1.582   5.208   1.238  0.9093  1.0119 -1.7089
 8688TIP3    H247480   1.487   5.271   1.138 -1.1835 -0.3153 -0.6027
 8689TIP3   OH247481   4.935   4.003  15.597  0.3965  0.4192  0.0302
 8689TIP3    H147482   4.888   4.075  15.555  0.4767  0.3844 -0.1222
 8689TIP3    H247483   4.903   3.924  15.554  0.5908  0.3952 -0.0727
 8690TIP3   OH247484   4.388   4.653   1.065  0.2836 -0.2043  0.4341
 8690TIP3    H147485   4.423   4.593   1.000  1.9973 -0.6971  1.7849
 8690TIP3    H247486   4.293   4.636   1.064  0.4704 -1.2427 -0.8663
 8691TIP3   OH247487   0.859   3.814  14.635  0.2366  0.7958  0.2408
 8691TIP3    H147488   0.928   3.772  14.584 -0.6774  1.1473 -1.3351
 8691TIP3    H247489   0.866   3.907  14.614 -1.5130  0.6799 -0.9516
 8692TIP3   OH247490   5.487   1.315   4.421 -0.2877  0.0757  0.0851
 8692TIP3    H147491   5.450   1.279   4.502  0.4598  2.3341  1.4377
 8692TIP3    H247492   5.410   1.343   4.371 -0.7225 -0.8458  0.2226
 8693TIP3   OH247493   5.652   1.269  15.015 -0.0280 -0.2571 -0.0126
 8693TIP3    H147494   5.724   1.268  15.078  0.1647  1.3259 -0.1921
 8693TIP3    H247495   5.695   1.274  14.930 -0.3086 -1.4902 -0.2334
 8694TIP3   OH247496   4.461   5.205  15.866 -0.1234  0.3023 -0.3463
 8694TIP3    H147497   4.454   5.289  15.910 -1.6745  0.5773 -1.0857
 8694TIP3    H247498   4.507   5.225  15.784 -0.5286  0.4460 -0.5412
 8695TIP3   OH247499   6.160   2.247   3.204  0.1733 -0.0205  0.0006
 8695TIP3    H147500   6.151   2.259   3.298 -2.3561  0.1722 -0.2431
 8695TIP3    H247501   6.112   2.166   3.185  2.1566 -1.0370 -0.8939
 8696TIP3   OH247502   5.287   3.504   4.654  0.0266 -0.0445  0.5541
 8696TIP3    H147503   5.339   3.461   4.721 -0.4376  0.1239  1.0275
 8696TIP3    H247504   5.318   3.466   4.571 -0.6480 -1.5771  0.9874
 8697TIP3   OH247505   2.196   3.018   2.781 -0.0121  0.7343  0.2243
 8697TIP3    H147506   2.209   3.012   2.876 -0.7173  2.1000  0.4261
 8697TIP3    H247507   2.137   2.946   2.761  1.7136 -0.7933  0.4925
 8698TIP3   OH247508   2.911   0.164   4.216 -0.8175 -0.2544 -0.0894
 8698TIP3    H147509   2.901   0.118   4.132 -0.0358 -0.0399 -0.3129
 8698TIP3    H247510   2.867   0.108   4.280 -1.7310 -0.2479 -0.6968
 8699TIP3   OH247511   4.197   2.400  11.621 -0.1105 -0.3065  0.2479
 8699TIP3    H147512   4.190   2.307  11.598  1.0053 -0.6486  1.2297
 8699TIP3    H247513   4.111   2.436  11.601 -0.8941 -1.7875  0.8938
 8700TIP3   OH247514   5.522   4.907  13.897  0.4336 -0.1782  0.2569
 8700TIP3    H147515   5.598   4.866  13.938  0.9012  0.2078 -0.2208
 8700TIP3    H247516   5.557   4.950  13.819 -0.1881  0.4476  0.3224
 8701TIP3   OH247517   4.082   3.886  15.494 -0.4188 -0.0244  0.0409
 8701TIP3    H147518   4.156   3.825  15.497 -0.7349 -0.4578 -0.9527
 8701TIP3    H247519   4.119   3.967  15.459 -0.4900 -0.3429 -0.7642
 8702TIP3   OH247520   0.174   5.809  15.152 -0.0895 -0.8849 -0.2878
 8702TIP3    H147521   0.220   5.744  15.206 -0.3788 -0.1185  0.8973
 8702TIP3    H247522   0.101   5.760  15.113  1.2185 -1.8954 -1.4920
 8703TIP3   OH247523   4.888   5.173   6.300 -0.1566 -0.3216  0.0904
 8703TIP3    H147524   4.916   5.127   6.221 -0.2365 -0.8069  0.3420
 8703TIP3    H247525   4.879   5.104   6.366 -0.8009 -0.0139  0.3279
 8704TIP3   OH247526   4.263   5.468   0.237  0.3340 -0.0015  0.0057
 8704TIP3    H147527   4.278   5.562   0.245  1.5707 -0.2613  0.8530
 8704TIP3    H247528   4.303   5.445   0.154  0.2769  0.1636 -0.0687
 8705TIP3   OH247529   3.496   0.986   4.799  0.4449 -0.3319  0.9257
 8705TIP3    H147530   3.400   0.988   4.803  0.3944 -0.1764 -0.2288
 8705TIP3    H247531   3.524   1.028   4.881 -0.4811  1.6533  0.2573
 8706TIP3   OH247532   5.519   3.389  13.308  0.1580  0.4200 -0.1365
 8706TIP3    H147533   5.549   3.475  13.336  0.0625  0.3453  0.1943
 8706TIP3    H247534   5.597   3.346  13.273 -0.0449  1.1266 -1.5265
 8707TIP3   OH247535   4.600   6.647   6.089  0.2250  0.3762  0.7613
 8707TIP3    H147536   4.668   6.711   6.109  0.8346  0.3993 -1.3001
 8707TIP3    H247537   4.634   6.565   6.126  1.5076  0.3360 -0.4652
 8708TIP3   OH247538   6.194   2.065  16.139  0.2854 -0.4744 -0.2425
 8708TIP3    H147539   6.210   1.970  16.134  2.4465 -0.0621 -1.9488
 8708TIP3    H247540   6.111   2.077  16.093  0.1887 -1.4869 -0.3547
 8709TIP3   OH247541   0.425   3.826  16.599  0.0055  0.1065 -0.0274
 8709TIP3    H147542   0.481   3.831  16.521  0.9189 -0.9099  0.5488
 8709TIP3    H247543   0.432   3.735  16.628 -0.5215  0.4174  1.1026
 8710TIP3   OH247544   2.565   0.980   6.153  0.4244 -0.0957 -0.1310
 8710TIP3    H147545   2.653   0.949   6.128  1.1189  1.0059  0.9015
 8710TIP3    H247546   2.569   1.074   6.138  0.0541  0.2326  1.7902
 8711TIP3   OH247547   5.289   3.213   1.606  0.2398  0.2954  0.2367
 8711TIP3    H147548   5.323   3.134   1.564 -2.5762 -0.8700  0.0365
 8711TIP3    H247549   5.231   3.181   1.675 -0.4792  2.1708  0.5463
 8712TIP3   OH247550   3.683   4.172  15.267 -0.2959  0.0149 -0.1417
 8712TIP3    H147551   3.735   4.099  15.234 -0.7899  0.0245 -0.9652
 8712TIP3    H247552   3.649   4.141  15.351  1.4114  0.1877  0.6380
 8713TIP3   OH247553   0.099   0.186   2.026 -0.1034 -0.2023  0.0976
 8713TIP3    H147554   0.119   0.279   2.013 -1.1028  0.0059 -0.0095
 8713TIP3    H247555   0.006   0.185   2.049 -0.2162 -1.2202 -0.3924
 8714TIP3   OH247556   3.163   3.092   3.199 -0.7268  0.3737  0.5078
 8714TIP3    H147557   3.232   3.137   3.247 -0.3168  0.9377 -0.5823
 8714TIP3    H247558   3.146   3.012   3.249  0.7983  0.1738  0.7234
 8715TIP3   OH247559   5.541   3.240  14.721 -0.5298  0.6111 -0.5290
 8715TIP3    H147560   5.467   3.256  14.780  0.6760  0.4145  1.0723
 8715TIP3    H247561   5.566   3.150  14.738  1.5845  1.3884  0.7231
 8716TIP3   OH247562   4.090   2.043   4.137 -0.5376 -0.1591  0.0695
 8716TIP3    H147563   4.008   2.090   4.127 -0.1372  0.3933 -0.6131
 8716TIP3    H247564   4.116   2.019   4.048  0.6151  0.6642  0.1672
 8717TIP3   OH247565   4.667   3.066   3.381  0.2089  0.2542 -0.0655
 8717TIP3    H147566   4.753   3.045   3.346 -0.4099 -2.4642 -0.0660
 8717TIP3    H247567   4.684   3.096   3.470  1.2183  0.5793 -0.3628
 8718TIP3   OH247568   2.756   4.438  10.893 -0.2513  0.4382  0.0084
 8718TIP3    H147569   2.726   4.372  10.831 -0.9324  1.1385 -0.4190
 8718TIP3    H247570   2.727   4.521  10.855  0.0897  0.9368  0.8272
 8719TIP3   OH247571   3.300   1.366   4.488  0.6981  0.1421  0.1415
 8719TIP3    H147572   3.260   1.385   4.404  1.2081 -1.0018 -0.3681
 8719TIP3    H247573   3.329   1.275   4.481  2.3312  0.5873  0.9111
 8720TIP3   OH247574   4.135   3.200  16.207 -0.5501  0.0453 -0.5488
 8720TIP3    H147575   4.148   3.260  16.280 -1.3492 -0.2767 -0.1349
 8720TIP3    H247576   4.223   3.173  16.181 -0.1431  1.8480 -1.1207
 8721TIP3   OH247577   4.699   1.193  12.885 -0.0030  0.1527  0.2929
 8721TIP3    H147578   4.633   1.247  12.840 -0.5091 -1.2712 -0.7169
 8721TIP3    H247579   4.775   1.194  12.826 -0.4775 -1.2752 -0.3794
 8722TIP3   OH247580   3.070   3.088   2.043 -0.1228  0.4374  0.1237
 8722TIP3    H147581   3.031   3.010   2.005 -2.4240  1.1896  0.8293
 8722TIP3    H247582   3.103   3.138   1.968  0.5646 -0.7545 -0.3924
 8723TIP3   OH247583   1.907   0.001  16.183 -0.5540  0.0968  0.6574
 8723TIP3    H147584   1.872   0.052  16.110 -1.6575  0.1142  1.1881
 8723TIP3    H247585   2.002   0.004  16.172 -0.6971  0.6034 -0.4297
 8724TIP3   OH247586   0.653   1.157  13.339  0.5720  0.3134 -0.1214
 8724TIP3    H147587   0.677   1.108  13.260  0.7307 -0.5239  0.4300
 8724TIP3    H247588   0.719   1.225  13.347  1.0119 -0.0939 -0.2831
 8725TIP3   OH247589   4.817   2.284   0.446  0.0220  0.1461  0.3864
 8725TIP3    H147590   4.853   2.225   0.380 -0.7812  0.2661 -0.1685
 8725TIP3    H247591   4.822   2.235   0.528  1.5779  0.2211  0.3421
 8726TIP3   OH247592   3.569   5.045  14.587 -0.4115  0.0334  0.0924
 8726TIP3    H147593   3.542   5.060  14.496 -1.1137  1.7277  0.5775
 8726TIP3    H247594   3.585   4.950  14.591  2.0531  0.2772 -2.4484
 8727TIP3   OH247595   2.199   1.865   6.572 -0.3471 -0.2244 -0.2077
 8727TIP3    H147596   2.178   1.932   6.507  0.4810 -0.4063 -0.6713
 8727TIP3    H247597   2.122   1.808   6.574 -1.2104  0.9494  0.4647
 8728TIP3   OH247598   4.217   2.714  14.401  0.4323  0.4697 -0.0352
 8728TIP3    H147599   4.171   2.762  14.332  2.1208  2.3099  0.0978
 8728TIP3    H247600   4.193   2.760  14.482  2.0396  1.1005  0.0926
 8729TIP3   OH247601   4.583   4.462  11.400  0.3432 -0.0828  0.0503
 8729TIP3    H147602   4.551   4.548  11.372 -1.8972 -0.0894  2.4190
 8729TIP3    H247603   4.525   4.399  11.356 -0.5635 -0.2111  1.3768
 8730TIP3   OH247604   4.993   6.487  11.949  0.4041  0.2853  0.2295
 8730TIP3    H147605   5.087   6.490  11.935  0.4734  0.9039  0.7825
 8730TIP3    H247606   4.977   6.402  11.989  0.4843 -0.5732 -1.5207
 8731TIP3   OH247607   5.699   5.153   1.753  0.5048 -0.2781 -0.1711
 8731TIP3    H147608   5.761   5.214   1.712 -0.6567  1.1053  0.0860
 8731TIP3    H247609   5.650   5.117   1.679  1.2499 -0.9978 -0.3312
 8732TIP3   OH247610   4.311   2.589   2.233  0.9355  0.4378 -0.3212
 8732TIP3    H147611   4.387   2.602   2.176  0.8033 -1.8446 -1.0722
 8732TIP3    H247612   4.236   2.619   2.181  0.7829 -1.8978 -1.4936
 8733TIP3   OH247613   3.291   0.309   3.007 -0.0818  0.3993 -0.2365
 8733TIP3    H147614   3.240   0.273   3.080  1.5436 -0.6182  0.4162
 8733TIP3    H247615   3.327   0.391   3.041  1.2111 -0.3983  0.3367
 8734TIP3   OH247616   4.141   6.743  16.130 -0.5499 -0.2888  0.8110
 8734TIP3    H147617   4.137   6.826  16.083 -1.1411 -1.2099 -0.7972
 8734TIP3    H247618   4.077   6.688  16.086  0.5308 -1.9237  1.2602
 8735TIP3   OH247619   2.246   5.783  13.109 -0.3797 -0.2483 -0.5537
 8735TIP3    H147620   2.270   5.850  13.172 -0.8878  1.2116 -1.8887
 8735TIP3    H247621   2.247   5.827  13.024  0.3985 -2.1973 -1.6105
 8736TIP3   OH247622   2.495   6.537  14.932 -0.4489 -0.9085  0.2961
 8736TIP3    H147623   2.556   6.610  14.928 -2.6280  1.1025  2.0255
 8736TIP3    H247624   2.452   6.538  14.846 -2.3121  1.5881  1.1908
 8737TIP3   OH247625   6.775   6.726  11.302  0.4656 -0.1668  0.5792
 8737TIP3    H147626   6.800   6.743  11.393  3.8959  0.1723 -0.3566
 8737TIP3    H247627   6.708   6.792  11.283 -0.7482 -0.6351  3.0178
 8738TIP3   OH247628   6.620   6.100   4.106  0.1833  0.1158 -0.5078
 8738TIP3    H147629   6.688   6.156   4.144 -0.1068  1.0368 -1.3100
 8738TIP3    H247630   6.663   6.055   4.033  0.8357 -1.9270  1.0977
 8739TIP3   OH247631   4.249   4.722   2.098  0.2448 -0.5764  0.2528
 8739TIP3    H147632   4.255   4.628   2.083  0.5108 -0.3390 -1.1798
 8739TIP3    H247633   4.252   4.761   2.011 -2.9529  0.6113  0.5829
 8740TIP3   OH247634   3.257   1.570   0.119 -0.5774  0.3956 -0.1016
 8740TIP3    H147635   3.167   1.563   0.151 -1.3634 -0.7421 -2.4079
 8740TIP3    H247636   3.291   1.481   0.124 -0.0705  0.5609 -0.6084
 8741TIP3   OH247637   6.473   4.803   3.521 -0.3729 -0.0428  0.2118
 8741TIP3    H147638   6.430   4.868   3.464 -1.2068 -0.4926  0.3233
 8741TIP3    H247639   6.427   4.811   3.604  0.9563  0.7283  0.8838
 8742TIP3   OH247640   1.711   2.076  13.578  0.4938 -0.1597  0.4476
 8742TIP3    H147641   1.750   2.090  13.665  1.6619 -1.4183  0.1518
 8742TIP3    H247642   1.760   2.134  13.520  1.4119 -1.1395  0.2193
 8743TIP3   OH247643   0.491   4.555  15.674 -0.0601  0.2594  0.1198
 8743TIP3    H147644   0.459   4.594  15.593 -2.8859 -0.6345  0.7402
 8743TIP3    H247645   0.580   4.588  15.683  0.2300  0.5692 -3.2081
 8744TIP3   OH247646   0.205   4.450  12.944 -0.2530 -0.1165 -0.3719
 8744TIP3    H147647   0.138   4.518  12.951 -0.3883 -0.1792 -1.0167
 8744TIP3    H247648   0.162   4.379  12.896  0.7190  0.4465 -2.1559
 8745TIP3   OH247649   3.341   2.799  13.080 -0.3248  0.5355 -0.3506
 8745TIP3    H147650   3.303   2.886  13.067 -1.3573  0.1152 -0.2429
 8745TIP3    H247651   3.279   2.740  13.037  0.0469 -0.2011  0.1218
 8746TIP3   OH247652   5.098   2.792   1.489 -0.0950  0.1357  0.0120
 8746TIP3    H147653   5.063   2.737   1.559 -0.6129 -0.3006 -0.5723
 8746TIP3    H247654   5.057   2.757   1.409 -0.0077  1.0331 -0.4293
 8747TIP3   OH247655   3.123   0.776   3.168 -1.0234 -0.4166  0.4914
 8747TIP3    H147656   3.038   0.803   3.133 -0.6298  1.2490  0.7856
 8747TIP3    H247657   3.185   0.835   3.126 -0.0258 -1.5045  0.4279
 8748TIP3   OH247658   4.832   6.521  12.672 -0.0548  0.1339  0.2948
 8748TIP3    H147659   4.753   6.574  12.685 -0.5669 -0.4711 -0.2861
 8748TIP3    H247660   4.838   6.468  12.751 -0.2169  0.1964  0.3515
 8749TIP3   OH247661   2.935   3.057  16.302  0.2059  0.2217 -0.2822
 8749TIP3    H147662   2.901   3.139  16.268  0.0895  0.3154  0.0533
 8749TIP3    H247663   2.870   2.991  16.278  0.5543  0.1359 -1.0152
 8750TIP3   OH247664   4.173   1.986  13.606  0.4881 -0.1495 -0.0552
 8750TIP3    H147665   4.127   2.036  13.673  1.6502 -0.5272  1.0448
 8750TIP3    H247666   4.107   1.927  13.570 -0.5669  1.2554 -0.4609
 8751TIP3   OH247667   2.354   2.115  11.495 -0.1644 -0.0176  0.4889
 8751TIP3    H147668   2.333   2.089  11.405 -1.2416  0.7199  0.5170
 8751TIP3    H247669   2.342   2.035  11.546  0.3660 -0.4207  0.0001
 8752TIP3   OH247670   1.101   1.208  12.917 -0.1678  0.0750 -0.3890
 8752TIP3    H147671   1.189   1.170  12.914  0.3042  1.1323 -0.0672
 8752TIP3    H247672   1.052   1.159  12.851 -0.1273 -2.4526  1.3988
 8753TIP3   OH247673   5.243   0.369  15.451 -0.2168 -0.2791  0.2797
 8753TIP3    H147674   5.338   0.353  15.445 -0.1627 -0.4736  1.5672
 8753TIP3    H247675   5.227   0.440  15.389  0.5240 -1.2393 -1.0455
 8754TIP3   OH247676   0.661   2.475  16.035 -0.3067 -0.5428 -0.5060
 8754TIP3    H147677   0.705   2.397  16.068  0.1343  0.0650  0.3559
 8754TIP3    H247678   0.732   2.535  16.014 -0.6687 -0.1762 -0.6786
 8755TIP3   OH247679   0.852   1.548   5.748  0.1118 -0.1872  0.6208
 8755TIP3    H147680   0.825   1.457   5.742 -0.2752  0.0095 -1.0741
 8755TIP3    H247681   0.944   1.548   5.722  0.8489 -0.4272  3.1811
 8756TIP3   OH247682   1.182   1.220  14.069  0.1747 -0.1726  0.3944
 8756TIP3    H147683   1.227   1.302  14.088  0.4739 -0.4539  0.9133
 8756TIP3    H247684   1.100   1.246  14.026  0.6372  0.3578 -0.1727
 8757TIP3   OH247685   2.036   1.030  15.584 -0.0923 -0.0953 -0.6875
 8757TIP3    H147686   1.963   0.994  15.535 -1.4023  0.4845  0.8032
 8757TIP3    H247687   2.066   1.104  15.531 -0.9157 -0.0193 -1.0533
 8758TIP3   OH247688   1.199   5.573   0.696  0.5678  0.7787 -0.2384
 8758TIP3    H147689   1.229   5.597   0.784  0.3214  0.2173 -0.0025
 8758TIP3    H247690   1.105   5.591   0.697 -0.1043 -2.5571  0.7504
 8759TIP3   OH247691   3.218   0.040  15.086  0.0493 -0.0947  0.7122
 8759TIP3    H147692   3.307   0.026  15.118  0.1831 -2.5717 -0.6008
 8759TIP3    H247693   3.201   0.133  15.100  2.2880  0.1021  2.3400
 8760TIP3   OH247694   5.857   0.419  15.551  0.1784  0.0774 -0.2720
 8760TIP3    H147695   5.812   0.471  15.617 -0.9161 -1.9215  0.6150
 8760TIP3    H247696   5.904   0.483  15.497 -3.3605  2.1750 -0.9709
 8761TIP3   OH247697   2.449   2.348   4.883 -0.0021  0.4739  0.0361
 8761TIP3    H147698   2.482   2.425   4.837 -0.4161  0.3994 -0.3825
 8761TIP3    H247699   2.502   2.344   4.963 -0.4717  1.6043  0.4127
 8762TIP3   OH247700   0.131   0.345  15.279  0.0792 -0.3109  0.0383
 8762TIP3    H147701   0.212   0.329  15.327  0.5799  1.4788 -0.1719
 8762TIP3    H247702   0.147   0.310  15.191  0.9583  0.8230 -0.2593
 8763TIP3   OH247703   2.533   4.387   3.417  0.2678 -0.4716  0.2246
 8763TIP3    H147704   2.452   4.438   3.424 -0.5155 -1.0324 -3.6389
 8763TIP3    H247705   2.514   4.305   3.463 -0.9561 -0.1141  0.3731
 8764TIP3   OH247706   0.193   3.439  11.713 -0.3454  0.0603 -0.3321
 8764TIP3    H147707   0.130   3.500  11.676  0.5331  0.6250 -0.9389
 8764TIP3    H247708   0.143   3.360  11.733 -1.1861  0.4109 -1.0335
 8765TIP3   OH247709   6.396   5.648   2.497  0.3146  0.5094  0.7571
 8765TIP3    H147710   6.467   5.704   2.466  3.2036 -2.2567  2.0213
 8765TIP3    H247711   6.366   5.602   2.418  2.0179 -0.4591  0.6316
 8766TIP3   OH247712   2.072   1.801  14.033  0.1660  0.3022  0.1221
 8766TIP3    H147713   2.038   1.840  13.953  2.7883 -0.9976 -1.6934
 8766TIP3    H247714   1.994   1.775  14.082 -1.5246  3.3438 -0.8419
 8767TIP3   OH247715   5.668   2.731  13.001  0.6886 -0.6230  0.0710
 8767TIP3    H147716   5.681   2.826  13.000 -1.3349 -0.3267  0.1648
 8767TIP3    H247717   5.675   2.707  13.093  2.9595 -0.8504 -0.1285
 8768TIP3   OH247718   5.491   4.820  15.583 -0.0236  0.6062  0.3003
 8768TIP3    H147719   5.402   4.800  15.613 -0.3709  0.4831 -0.8081
 8768TIP3    H247720   5.481   4.843  15.491  1.0056  1.2771  0.3499
 8769TIP3   OH247721   3.767   0.150  13.372  0.0205  0.2372 -0.1163
 8769TIP3    H147722   3.747   0.194  13.455  0.6959  1.9831 -0.8700
 8769TIP3    H247723   3.861   0.133  13.376 -0.2586 -1.2964  0.2321
 8770TIP3   OH247724   2.386   3.911  15.992 -0.5439  0.2991 -0.1197
 8770TIP3    H147725   2.312   3.959  15.957  1.4301  3.5687 -0.0036
 8770TIP3    H247726   2.461   3.943  15.942  1.0761 -1.5122  1.0715
 8771TIP3   OH247727   1.443   2.961   0.710 -0.2864  0.0030  0.2187
 8771TIP3    H147728   1.524   3.011   0.710  0.0105 -0.4698  0.8565
 8771TIP3    H247729   1.469   2.873   0.682 -0.3863 -0.4379  1.4867
 8772TIP3   OH247730   1.177   0.614  14.193  1.1737 -0.2483 -0.0710
 8772TIP3    H147731   1.250   0.554  14.209  1.4354  0.0552 -0.1149
 8772TIP3    H247732   1.162   0.657  14.277  1.9511  0.6848 -0.4000
 8773TIP3   OH247733   3.690   1.958   1.147 -0.5489 -0.0005 -0.4839
 8773TIP3    H147734   3.752   1.892   1.117  0.7075  0.3464  1.3055
 8773TIP3    H247735   3.679   1.942   1.241 -1.3655  1.3966 -0.3100
 8774TIP3   OH247736   3.089   6.156   5.558  0.7461 -0.1484 -0.0587
 8774TIP3    H147737   3.175   6.180   5.593  0.0688 -0.0608  1.5688
 8774TIP3    H247738   3.027   6.179   5.627 -0.4768 -1.2944 -0.7413
 8775TIP3   OH247739   1.781   6.523   1.690  0.1424 -0.1558 -0.2541
 8775TIP3    H147740   1.753   6.532   1.781 -1.7492  3.9989 -1.1587
 8775TIP3    H247741   1.707   6.482   1.646 -1.2128  2.9813 -0.9720
 8776TIP3   OH247742   0.236   0.719   5.222 -0.2122  0.1629  0.1839
 8776TIP3    H147743   0.164   0.781   5.238 -0.3199  0.0433  0.1614
 8776TIP3    H247744   0.247   0.674   5.306 -0.1410  0.2047  0.1967
 8777TIP3   OH247745   4.530   4.296   2.848  0.0722  0.3382  0.1143
 8777TIP3    H147746   4.551   4.283   2.940  1.1488 -0.0188 -0.1702
 8777TIP3    H247747   4.510   4.209   2.815 -0.7537  0.5300  0.1194
 8778TIP3   OH247748   4.958   1.256  14.959 -0.0420 -0.0561 -0.2328
 8778TIP3    H147749   5.033   1.217  15.003 -0.2964 -0.7686 -0.4219
 8778TIP3    H247750   4.992   1.284  14.874 -0.4306 -2.2094 -1.1379
 8779TIP3   OH247751   5.014   3.676  10.873  0.4724 -0.0881 -0.7511
 8779TIP3    H147752   5.086   3.613  10.869  1.6131  1.2301 -1.2217
 8779TIP3    H247753   5.032   3.729  10.950  0.6384  1.0049 -1.5397
 8780TIP3   OH247754   6.294   3.445  14.809  0.4297  0.3927 -0.2991
 8780TIP3    H147755   6.221   3.400  14.765  1.0645 -1.8280  0.8129
 8780TIP3    H247756   6.360   3.455  14.740 -0.0532  0.3749 -0.7713
 8781TIP3   OH247757   5.703   0.310   3.475  0.2903  0.0522 -0.2946
 8781TIP3    H147758   5.751   0.264   3.544  0.2136  0.5884  0.1219
 8781TIP3    H247759   5.653   0.242   3.432  1.4029 -0.5065 -0.7181
 8782TIP3   OH247760   5.814   3.911  12.710 -0.2106  0.0879 -0.1558
 8782TIP3    H147761   5.802   3.818  12.726 -2.0567  0.5594  1.4204
 8782TIP3    H247762   5.767   3.928  12.628 -2.1085  0.0793  0.8951
 8783TIP3   OH247763   3.182   3.039   6.480 -0.1075 -0.2362 -0.2109
 8783TIP3    H147764   3.095   3.025   6.517  0.0852  0.3524  0.4786
 8783TIP3    H247765   3.237   2.971   6.518  0.0523  0.2655  0.4631
 8784TIP3   OH247766   0.298   1.960   4.880 -0.2817 -0.1628 -0.1233
 8784TIP3    H147767   0.392   1.965   4.895 -0.3332 -0.2347  0.2194
 8784TIP3    H247768   0.285   1.877   4.834 -0.3203 -0.7163  0.8917
 8785TIP3   OH247769   0.952   1.338   1.450 -0.0381  0.1266 -0.6296
 8785TIP3    H147770   1.011   1.336   1.525 -2.3992  0.8856  1.3339
 8785TIP3    H247771   0.959   1.250   1.411 -0.0305 -0.8370  1.5044
 8786TIP3   OH247772   6.195   5.542  16.884  0.1405 -0.3073  0.2580
 8786TIP3    H147773   6.205   5.636  16.873  0.4321 -0.5042 -1.3030
 8786TIP3    H247774   6.221   5.525  16.975  1.0817  0.9772  0.2413
 8787TIP3   OH247775   6.087   3.048   4.263  0.7539  0.0423  1.0607
 8787TIP3    H147776   6.180   3.053   4.243  0.7052  1.6996  1.1707
 8787TIP3    H247777   6.073   3.114   4.331 -0.8472  1.2811 -0.3863
 8788TIP3   OH247778   1.657   0.058   6.725  0.4138  0.1808  0.2047
 8788TIP3    H147779   1.751   0.075   6.720  0.6284 -1.1120 -0.4201
 8788TIP3    H247780   1.618   0.117   6.660  0.5648  2.1938  1.8916
 8789TIP3   OH247781   3.107   3.457   5.399 -0.0919  0.1060  0.4779
 8789TIP3    H147782   3.038   3.496   5.454 -0.9255 -2.3372  1.2109
 8789TIP3    H247783   3.062   3.392   5.346  1.5132 -0.8934  0.3202
 8790TIP3   OH247784   0.539   1.562   2.695 -0.0628  0.6051 -0.2903
 8790TIP3    H147785   0.580   1.505   2.630  1.1987  2.4070 -1.1100
 8790TIP3    H247786   0.498   1.502   2.757  1.1381 -1.1835 -1.1956
 8791TIP3   OH247787   1.059   6.114  12.541  0.2029 -0.0516  0.3245
 8791TIP3    H147788   1.018   6.185  12.590  1.2569  1.7522 -1.3381
 8791TIP3    H247789   0.989   6.081  12.483  0.0281  0.4102  0.2691
 8792TIP3   OH247790   2.201   4.337  13.153  0.1558 -0.1339 -0.5588
 8792TIP3    H147791   2.201   4.247  13.186  3.8746 -0.2917 -0.7143
 8792TIP3    H247792   2.215   4.391  13.230 -1.5732  0.3179 -0.5351
 8793TIP3   OH247793   5.548   0.004  11.214  0.1300  0.5560  0.1951
 8793TIP3    H147794   5.603   0.010  11.136  0.0421 -0.9692 -0.0094
 8793TIP3    H247795   5.596   0.052  11.281  1.7601 -0.7927  0.0249
 8794TIP3   OH247796   1.029   1.965   3.678 -0.2534  0.6002  0.1949
 8794TIP3    H147797   0.979   2.029   3.627  0.8506  1.7601  0.5524
 8794TIP3    H247798   1.006   1.880   3.639 -0.0654  1.4013 -1.6969
 8795TIP3   OH247799   6.657   4.082   0.525 -0.2511  0.3560  0.0135
 8795TIP3    H147800   6.576   4.041   0.556 -0.2219  1.2490  1.3314
 8795TIP3    H247801   6.725   4.046   0.582 -0.1904  2.0103  1.0291
 8796TIP3   OH247802   2.005   1.568   5.182  0.1079 -0.1691 -0.3147
 8796TIP3    H147803   2.087   1.539   5.222 -0.9540  0.2278  2.2727
 8796TIP3    H247804   1.939   1.509   5.218 -0.9797  0.6281 -0.9845
 8797TIP3   OH247805   5.642   4.983  14.757 -0.3255 -0.2818  0.0286
 8797TIP3    H147806   5.631   4.902  14.808 -3.4138  0.6476  0.9031
 8797TIP3    H247807   5.557   5.026  14.760  0.9409  2.4786 -1.4032
 8798TIP3   OH247808   4.005   0.097   0.091 -0.1484  0.0753  0.3444
 8798TIP3    H147809   4.005   0.191   0.112 -1.5072  0.3719 -0.9260
 8798TIP3    H247810   4.070   0.089   0.021 -0.0255  0.0692  0.4588
 8799TIP3   OH247811   0.635   1.844  14.409  0.1908 -1.1617  0.0431
 8799TIP3    H147812   0.646   1.811  14.498 -0.5964  1.3817  1.1122
 8799TIP3    H247813   0.562   1.793  14.373  0.5269 -2.2109  0.8445
 8800TIP3   OH247814   2.745   6.306   3.267 -0.3545 -0.1181 -0.6278
 8800TIP3    H147815   2.742   6.401   3.261  1.5929  0.0229  0.1191
 8800TIP3    H247816   2.737   6.287   3.360  3.3698 -0.4167 -0.2761
 8801TIP3   OH247817   5.253   3.460  16.995 -0.1119 -0.3794  0.0692
 8801TIP3    H147818   5.168   3.500  17.009  0.5632  2.3799 -3.0226
 8801TIP3    H247819   5.313   3.513  17.048 -0.0326 -1.1943  0.8153
 8802TIP3   OH247820   0.179   3.369   6.566 -0.2840  0.3972 -0.2000
 8802TIP3    H147821   0.170   3.432   6.637  1.5488 -0.1607  0.5611
 8802TIP3    H247822   0.145   3.414   6.489 -1.6584  1.2526  0.8831
 8803TIP3   OH247823   5.227   0.633   2.274  0.1695  0.2750  0.3114
 8803TIP3    H147824   5.230   0.636   2.369  1.0758  0.1396  0.2897
 8803TIP3    H247825   5.294   0.695   2.246  0.5489 -0.3738 -0.2315
 8804TIP3   OH247826   4.327   0.578  12.439  0.3687  0.0204  0.0223
 8804TIP3    H147827   4.235   0.587  12.416 -0.2612  0.4523  2.5797
 8804TIP3    H247828   4.330   0.587  12.534  2.8628 -1.5493  0.1592
 8805TIP3   OH247829   4.154   5.902  14.275  0.4479  0.2427 -0.2722
 8805TIP3    H147830   4.209   5.946  14.211  1.7851 -0.3241  0.4583
 8805TIP3    H247831   4.207   5.828  14.305 -0.4261  0.0960  0.9660
 8806TIP3   OH247832   2.884   5.896  12.862  0.6373  0.2173  0.7628
 8806TIP3    H147833   2.925   5.916  12.778  1.3397  1.4876  1.3907
 8806TIP3    H247834   2.945   5.835  12.905  0.0771 -0.7540  0.1870
 8807TIP3   OH247835   3.725   0.000   6.125  0.7564 -0.1066  0.2041
 8807TIP3    H147836   3.772  -0.032   6.202 -0.8589 -0.6084  0.9988
 8807TIP3    H247837   3.778  -0.029   6.050  1.7071 -0.6443  1.0810
 8808TIP3   OH247838   2.609   6.745  16.050 -0.2995  0.7781  0.2266
 8808TIP3    H147839   2.568   6.772  15.968 -1.1882  0.0544  0.4218
 8808TIP3    H247840   2.548   6.775  16.118  0.9498  2.3280  0.6928
 8809TIP3   OH247841   6.005   0.502  16.638  0.1307  0.4606  0.1931
 8809TIP3    H147842   6.015   0.457  16.554  0.4486  0.5714  0.1717
 8809TIP3    H247843   6.002   0.431  16.703 -1.8979  0.2632 -0.0650
 8810TIP3   OH247844   4.762   1.071  16.822  0.7288  0.2754 -0.0282
 8810TIP3    H147845   4.773   1.165  16.806 -0.7735  0.2993 -1.0455
 8810TIP3    H247846   4.776   1.031  16.736  2.7095 -0.5563  0.6780
 8811TIP3   OH247847   5.755   3.486   3.264  0.3222 -0.3888 -0.0546
 8811TIP3    H147848   5.674   3.452   3.226 -0.2515 -0.5530  1.3022
 8811TIP3    H247849   5.733   3.574   3.293  1.1952  0.3297 -1.5240
 8812TIP3   OH247850   0.946   5.548   3.953  0.8972  0.0521 -0.0050
 8812TIP3    H147851   0.987   5.564   3.868  0.5308  1.1173  0.0152
 8812TIP3    H247852   0.905   5.631   3.977 -0.4541 -0.7111  0.4237
 8813TIP3   OH247853   4.533   0.291   6.648 -0.3373 -0.7862  0.2463
 8813TIP3    H147854   4.481   0.356   6.601  1.0045  1.2991  1.5341
 8813TIP3    H247855   4.572   0.237   6.580 -1.0191  0.1286 -0.8885
 8814TIP3   OH247856   2.083   6.281   0.747  0.0852  1.1696 -0.0583
 8814TIP3    H147857   1.996   6.273   0.708  0.1318  1.2240 -0.1709
 8814TIP3    H247858   2.084   6.213   0.815 -0.3495  1.7350  0.5127
 8815TIP3   OH247859   3.698   2.391   3.064  0.4911  0.2771 -0.2628
 8815TIP3    H147860   3.672   2.383   3.155  0.3470 -0.3914 -0.3637
 8815TIP3    H247861   3.669   2.310   3.023  0.4435  0.6242 -0.9305
 8816TIP3   OH247862   5.938   1.740  15.294 -0.1008 -0.1196  0.0545
 8816TIP3    H147863   5.886   1.695  15.228 -0.0502 -0.2392  0.0954
 8816TIP3    H247864   5.979   1.669  15.344 -2.3102 -0.0934  1.9677
 8817TIP3   OH247865   1.196   4.307   4.508 -0.0669 -0.1669  0.1729
 8817TIP3    H147866   1.189   4.262   4.424 -2.8344 -1.6259  1.1166
 8817TIP3    H247867   1.133   4.379   4.502 -2.3000 -1.9191  1.9419
 8818TIP3   OH247868   5.115   5.410   5.641  0.1151  0.1233  0.0820
 8818TIP3    H147869   5.151   5.428   5.554 -1.8297  2.4554 -0.2971
 8818TIP3    H247870   5.034   5.461   5.645  0.9021  1.2854  3.7732
 8819TIP3   OH247871   3.051   1.125   2.939  0.7947  0.5533  0.0986
 8819TIP3    H147872   3.019   1.155   3.024 -0.0087 -1.0439  0.3812
 8819TIP3    H247873   3.071   1.206   2.891  0.8662  1.4728  1.6437
 8820TIP3   OH247874   3.724   5.302  11.934  0.7628 -0.0681  0.1699
 8820TIP3    H147875   3.703   5.215  11.900  1.0839  0.1326 -0.5413
 8820TIP3    H247876   3.782   5.340  11.869  1.6408  0.1944  1.1001
 8821TIP3   OH247877   0.256   5.708   1.698  0.1570  0.1917 -0.0995
 8821TIP3    H147878   0.297   5.679   1.617  0.3319  1.1848 -0.3811
 8821TIP3    H247879   0.245   5.629   1.750  1.9400 -0.1700 -0.2465
 8822TIP3   OH247880   4.664   5.103  12.484  1.1068 -0.0625 -0.1110
 8822TIP3    H147881   4.657   5.195  12.459 -0.3022  0.2527  1.3239
 8822TIP3    H247882   4.715   5.105  12.565  0.1221 -0.4314  0.5227
 8823TIP3   OH247883   3.444   6.031   0.541  0.1146  0.7010 -0.1307
 8823TIP3    H147884   3.455   5.936   0.539 -1.0125  0.5768 -1.2107
 8823TIP3    H247885   3.380   6.046   0.611  2.0960  0.8800  1.6806
 8824TIP3   OH247886   0.773   5.697   2.498  0.3248  0.3801  0.4771
 8824TIP3    H147887   0.760   5.603   2.509  3.8900 -0.3734 -1.3279
 8824TIP3    H247888   0.702   5.724   2.439 -0.9772 -1.0605  1.3517
 8825TIP3   OH247889   5.412   0.046  10.245  0.2614  0.2266 -0.5922
 8825TIP3    H147890   5.484   0.005  10.293 -1.2952  0.0390  1.6462
 8825TIP3    H247891   5.422   0.139  10.262 -0.7709  0.0908  0.7954
 8826TIP3   OH247892   6.606   3.066  15.264 -0.4100 -0.1994 -0.0195
 8826TIP3    H147893   6.577   3.113  15.186 -1.7758 -2.2830 -0.8181
 8826TIP3    H247894   6.694   3.100  15.281 -0.1812  0.4825 -2.3064
 8827TIP3   OH247895   2.699   1.781  14.364 -0.1231 -0.1635 -0.3561
 8827TIP3    H147896   2.730   1.823  14.284 -0.3985  0.4185 -0.1595
 8827TIP3    H247897   2.604   1.784  14.358 -0.1603  0.9663  0.5488
 8828TIP3   OH247898   4.235   0.689   0.253  0.5192  0.6518 -0.0638
 8828TIP3    H147899   4.283   0.620   0.207 -2.3821  0.7118 -3.4509
 8828TIP3    H247900   4.281   0.770   0.231  0.1321  0.4822 -1.5637
 8829TIP3   OH247901   2.682   2.783   5.109  0.1214  0.4867  0.6011
 8829TIP3    H147902   2.759   2.811   5.061  1.0748 -0.8983  1.2870
 8829TIP3    H247903   2.608   2.804   5.052  1.0086  1.8430 -0.0404
 8830TIP3   OH247904   1.515   1.034  13.482  0.2846 -0.1730 -0.2748
 8830TIP3    H147905   1.438   0.978  13.488 -0.0164  0.2582 -0.0677
 8830TIP3    H247906   1.540   1.032  13.389  0.1450 -0.4679 -0.3037
 8831TIP3   OH247907   3.545   5.126  14.337  0.0512 -0.6572 -0.2456
 8831TIP3    H147908   3.593   5.180  14.274 -0.0491  0.6836  0.8001
 8831TIP3    H247909   3.453   5.135  14.310 -0.0425  0.3140  0.3689
 8832TIP3   OH247910   0.582   5.365  11.110  0.2231  0.3752  0.3885
 8832TIP3    H147911   0.587   5.335  11.019 -1.5951  0.3378  0.2721
 8832TIP3    H247912   0.673   5.366  11.141  0.9822  1.4835 -1.7763
 8833TIP3   OH247913   6.349   5.203  11.666  0.2537 -0.2722  0.4969
 8833TIP3    H147914   6.421   5.160  11.711  0.4082  1.4955  1.9930
 8833TIP3    H247915   6.281   5.213  11.732 -0.2721  0.6228 -0.1597
 8834TIP3   OH247916   0.224   1.563   3.022 -0.2814 -0.1893 -0.1864
 8834TIP3    H147917   0.238   1.657   3.033 -0.6709  0.0623 -1.6851
 8834TIP3    H247918   0.129   1.553   3.014 -0.2015 -0.6380 -0.6196
 8835TIP3   OH247919   1.602   1.125   6.188  0.2641 -0.3207  0.0105
 8835TIP3    H147920   1.526   1.081   6.228 -1.0277  1.1105 -0.8163
 8835TIP3    H247921   1.676   1.098   6.242 -0.9898 -0.8933  1.5016
 8836TIP3   OH247922   6.520   4.828  10.655  0.2218 -0.2125 -0.2822
 8836TIP3    H147923   6.578   4.756  10.631  1.0920 -0.2284  1.7233
 8836TIP3    H247924   6.441   4.814  10.603  0.9538 -1.7780 -1.0071
 8837TIP3   OH247925   3.430   4.656  12.080 -0.7154 -0.3342  0.2243
 8837TIP3    H147926   3.512   4.607  12.081  0.1335  1.0796  1.7791
 8837TIP3    H247927   3.373   4.609  12.141  0.1311  0.6226  1.7898
 8838TIP3   OH247928   0.396   2.643  17.139  0.2388 -0.2688 -0.0664
 8838TIP3    H147929   0.370   2.630  17.231  1.8071  1.2747  0.6127
 8838TIP3    H247930   0.368   2.732  17.119  0.6441 -0.3179 -0.8379
 8839TIP3   OH247931   5.314   2.940  13.193 -0.0768 -0.5810  0.3960
 8839TIP3    H147932   5.405   2.960  13.212  0.1734  0.5693 -1.8504
 8839TIP3    H247933   5.301   2.851  13.228  1.9063 -0.7821  0.6629
 8840TIP3   OH247934   5.922   3.339  12.393  0.1944  0.1252 -0.7077
 8840TIP3    H147935   5.876   3.412  12.351 -0.1460  0.7352  0.6958
 8840TIP3    H247936   5.881   3.330  12.478  0.9868 -0.9960 -0.4295
 8841TIP3   OH247937   4.879   3.290  11.602  0.0800  0.2392  0.6911
 8841TIP3    H147938   4.917   3.369  11.563 -0.5375 -0.3138 -1.1114
 8841TIP3    H247939   4.869   3.230  11.528  1.0547 -1.7541  2.1135
 8842TIP3   OH247940   0.253   4.225  14.242 -0.3562  0.4711 -0.3025
 8842TIP3    H147941   0.297   4.141  14.249 -0.8500  0.2238 -0.0808
 8842TIP3    H247942   0.165   4.203  14.212 -0.4145  0.9274 -0.4617
 8843TIP3   OH247943   4.602   5.741   4.300  0.3876 -0.3315 -0.6162
 8843TIP3    H147944   4.616   5.834   4.320 -0.7095 -0.5984  1.4343
 8843TIP3    H247945   4.612   5.697   4.384  1.2875 -2.1370 -1.6543
 8844TIP3   OH247946   1.412   0.570  15.297 -0.0453  0.0867 -1.2388
 8844TIP3    H147947   1.393   0.482  15.266  2.2812 -1.6580  2.0279
 8844TIP3    H247948   1.503   0.586  15.273  0.6169  0.1883  1.2034
 8845TIP3   OH247949   3.191   3.648  15.544 -0.3041 -0.0966 -0.1098
 8845TIP3    H147950   3.117   3.640  15.484  1.7787 -1.5583 -2.6024
 8845TIP3    H247951   3.217   3.740  15.537 -1.2978  0.2006  0.0520
 8846TIP3   OH247952   5.711   2.088   4.687  0.0151  0.0444  0.0691
 8846TIP3    H147953   5.744   2.123   4.770  0.4173  1.7205 -0.7703
 8846TIP3    H247954   5.786   2.046   4.647  0.4828  1.4882 -0.6029
 8847TIP3   OH247955   1.906   4.009   4.245 -0.3500  0.0520 -0.1665
 8847TIP3    H147956   1.921   3.939   4.308 -0.7743 -0.6820 -0.8657
 8847TIP3    H247957   1.816   4.037   4.261 -0.3370  0.1196 -0.2090
 8848TIP3   OH247958   5.813   1.948   2.598 -0.2542 -0.1263  0.1865
 8848TIP3    H147959   5.849   2.022   2.549  0.1233 -1.1339 -1.0879
 8848TIP3    H247960   5.734   1.923   2.549 -1.0970  0.2287  1.3310
 8849TIP3   OH247961   1.953   5.933  12.798 -0.1438  0.3553 -0.4261
 8849TIP3    H147962   1.953   6.021  12.837 -1.1355  0.6362 -1.0472
 8849TIP3    H247963   1.870   5.894  12.825  0.9826 -1.0063  1.1590
 8850TIP3   OH247964   5.232   2.872  10.745  0.3362  0.3230 -0.4765
 8850TIP3    H147965   5.234   2.892  10.651  1.4323 -0.7968 -0.7028
 8850TIP3    H247966   5.200   2.782  10.750 -1.9521  1.1556  0.3728
 8851TIP3   OH247967   1.835   4.954   1.375  0.4069  0.0089  0.2618
 8851TIP3    H147968   1.743   4.929   1.361  0.9058 -1.4716 -0.4319
 8851TIP3    H247969   1.837   5.048   1.356 -0.7378 -0.1831 -0.8633
 8852TIP3   OH247970   1.874   6.250  15.319 -0.7404 -0.3735 -0.0003
 8852TIP3    H147971   1.943   6.189  15.296 -0.9114 -1.1118  1.4334
 8852TIP3    H247972   1.793   6.205  15.294 -0.7305  0.4042 -1.4837
 8853TIP3   OH247973   2.796   5.460  11.010 -0.1075  0.3615 -0.4250
 8853TIP3    H147974   2.779   5.401  11.083 -1.5867  0.4030 -0.7196
 8853TIP3    H247975   2.779   5.406  10.932  2.2622  0.0717 -0.7594
 8854TIP3   OH247976   2.302   2.405   5.983 -0.2040  0.1824  0.6288
 8854TIP3    H147977   2.297   2.472   6.050 -2.4923 -0.7742  1.4811
 8854TIP3    H247978   2.325   2.325   6.030 -0.8546 -0.3007  0.1436
 8855TIP3   OH247979   5.472   3.074   0.505  0.0584 -0.4210  0.4529
 8855TIP3    H147980   5.406   3.094   0.439  0.4694 -1.2949 -0.2419
 8855TIP3    H247981   5.548   3.126   0.480 -0.7585  1.5579  1.9785
 8856TIP3   OH247982   4.056   5.109   6.409  0.2197 -0.0388  0.2047
 8856TIP3    H147983   3.982   5.145   6.458  1.0804  0.6579  1.0029
 8856TIP3    H247984   4.017   5.076   6.328 -0.4049  4.1575 -1.3180
 8857TIP3   OH247985   4.937   0.331  10.534  0.9770  0.0039 -0.3365
 8857TIP3    H147986   4.953   0.421  10.506  0.1396  0.5134  0.8007
 8857TIP3    H247987   4.874   0.297  10.470 -1.1675  1.2631  1.0349
 8858TIP3   OH247988   2.713   1.522   5.581  0.6192  0.6749  0.1002
 8858TIP3    H147989   2.739   1.562   5.664 -1.0783  0.0812  0.9425
 8858TIP3    H247990   2.752   1.435   5.583  1.0403  0.8599  0.0224
 8859TIP3   OH247991   6.059   3.346   2.145 -0.5430 -0.3651 -0.3344
 8859TIP3    H147992   6.080   3.375   2.234 -0.6316  1.6738 -0.9439
 8859TIP3    H247993   6.051   3.251   2.151  1.5613 -0.4623  1.4151
 8860TIP3   OH247994   3.568   0.670   3.209  0.0422  0.1062 -0.4830
 8860TIP3    H147995   3.643   0.612   3.224 -1.2254 -1.6623 -0.8578
 8860TIP3    H247996   3.521   0.670   3.293  0.8648  1.8506  0.0060
 8861TIP3   OH247997   0.743   4.105   5.271  0.1681  0.3142 -0.1090
 8861TIP3    H147998   0.687   4.029   5.287  0.8696 -0.3475 -0.7593
 8861TIP3    H247999   0.683   4.179   5.268 -0.6844 -0.4013 -0.9575
 8862TIP3   OH248000   5.781   3.900   5.947  0.2862 -0.2557  0.0376
 8862TIP3    H148001   5.777   3.868   6.037  2.3004  0.7906  0.5150
 8862TIP3    H248002   5.856   3.959   5.945  0.4589 -0.4885 -2.4020
 8863TIP3   OH248003   6.370   6.526  14.293  0.4526 -0.0137  0.1059
 8863TIP3    H148004   6.295   6.554  14.240 -0.8147 -1.3123  1.1770
 8863TIP3    H248005   6.423   6.605  14.303 -0.7259  0.9076 -0.7217
 8864TIP3   OH248006   6.008   4.924  13.236  0.2711 -0.5351 -0.1579
 8864TIP3    H148007   5.918   4.892  13.241 -0.0433  0.3536 -0.1077
 8864TIP3    H248008   6.036   4.933  13.327  0.1766 -0.1634 -0.1638
 8865TIP3   OH248009   0.882   3.475  16.333 -0.1518 -0.5550  0.2545
 8865TIP3    H148010   0.880   3.385  16.299 -2.1012  0.0411 -1.3435
 8865TIP3    H248011   0.970   3.506  16.313  0.4662 -2.0466  0.6183
 8866TIP3   OH248012   1.572   4.528   1.371 -0.2337 -0.0653 -0.5243
 8866TIP3    H148013   1.601   4.560   1.457 -1.0239 -0.8324  0.0333
 8866TIP3    H248014   1.506   4.592   1.344 -1.3459 -0.8393  0.3004
 8867TIP3   OH248015   2.966   2.670  12.804 -0.2096  0.4083 -0.6784
 8867TIP3    H148016   2.927   2.737  12.860 -0.4758 -0.3045 -0.0027
 8867TIP3    H248017   2.898   2.651  12.739 -0.0196  1.0053 -1.0581
 8868TIP3   OH248018   6.428   1.526   2.643  0.0063 -0.2715  0.3842
 8868TIP3    H148019   6.351   1.474   2.665  0.6848 -0.5564  2.1834
 8868TIP3    H248020   6.481   1.468   2.588 -1.6296  0.3895 -1.9912
 8869TIP3   OH248021   3.797   3.236   5.953  0.2984 -0.1675  0.5285
 8869TIP3    H148022   3.762   3.301   6.014 -1.3351  0.2672 -0.8422
 8869TIP3    H248023   3.757   3.153   5.981  1.3745 -0.3844  1.4721
 8870TIP3   OH248024   2.341   3.003   0.854 -0.0144  0.2218 -0.0870
 8870TIP3    H148025   2.302   3.068   0.795 -0.1631  1.8348  1.7262
 8870TIP3    H248026   2.399   2.952   0.798 -2.3472 -0.2013 -2.2088
 8871TIP3   OH248027   6.698   4.618  13.851  0.5197 -0.1775  0.0972
 8871TIP3    H148028   6.673   4.605  13.942 -0.3739  0.0042 -0.1165
 8871TIP3    H248029   6.681   4.711  13.834  0.0078 -0.3692 -0.4547
 8872TIP3   OH248030   1.466   6.357  11.962  0.3913 -0.6133 -0.1763
 8872TIP3    H148031   1.389   6.383  12.014  0.1327 -0.9553 -0.3864
 8872TIP3    H248032   1.467   6.262  11.968  1.1072 -0.5767  0.2582
 8873TIP3   OH248033   2.009   1.531  11.161 -0.2930  0.4492  0.0503
 8873TIP3    H148034   2.081   1.525  11.098 -1.5274  2.2065 -1.6266
 8873TIP3    H248035   2.033   1.472  11.232  3.1303  1.5341 -0.1221
 8874TIP3   OH248036   4.870   6.668  13.082  0.1749 -0.1519  0.3254
 8874TIP3    H148037   4.807   6.737  13.062  0.3671  0.2045  0.9430
 8874TIP3    H248038   4.922   6.659  13.003 -0.2306  0.0043  0.0399
 8875TIP3   OH248039   5.742   4.915  12.670 -0.4384  0.1324  0.1870
 8875TIP3    H148040   5.748   4.879  12.581 -4.5182 -2.3851  0.8228
 8875TIP3    H248041   5.806   4.865  12.721  0.0660 -0.1908 -0.7526
 8876TIP3   OH248042   1.160   6.586   4.403 -0.2507 -0.3147  0.9428
 8876TIP3    H148043   1.155   6.665   4.457 -0.4333  1.3219 -1.3687
 8876TIP3    H248044   1.112   6.610   4.323  0.7460 -2.3621 -0.2816
 8877TIP3   OH248045   3.117   5.710  12.026 -0.0168 -0.2190 -0.0173
 8877TIP3    H148046   3.098   5.784  12.084  0.2933  1.1237 -1.5979
 8877TIP3    H248047   3.211   5.693  12.040  0.0496  0.0769 -0.0972
 8878TIP3   OH248048   2.337   5.055   0.072 -0.1459 -0.1382 -0.3711
 8878TIP3    H148049   2.425   5.056   0.109 -0.4302  4.0992  0.4278
 8878TIP3    H248050   2.350   5.074  -0.021 -0.1579 -0.8348 -0.5219
 8879TIP3   OH248051   6.151   0.669   2.620  0.0345 -0.4827  0.6833
 8879TIP3    H148052   6.132   0.756   2.654  0.7818  0.0025 -0.1158
 8879TIP3    H248053   6.074   0.617   2.644 -1.3875  0.9165 -0.6658
 8880TIP3   OH248054   6.223   2.123  11.939 -0.3866  0.1193 -0.0005
 8880TIP3    H148055   6.150   2.171  11.900 -0.3879 -1.2072 -1.6738
 8880TIP3    H248056   6.183   2.076  12.013 -1.2019 -0.4443 -0.7838
 8881TIP3   OH248057   3.747   4.493  11.720  0.2121 -0.7815  0.2053
 8881TIP3    H148058   3.662   4.450  11.722  0.9443 -2.4493 -2.3541
 8881TIP3    H248059   3.727   4.586  11.710 -1.3171 -1.2427 -1.1434
 8882TIP3   OH248060   1.409   2.173  12.803  0.0984 -0.0151 -0.1936
 8882TIP3    H148061   1.360   2.093  12.784  1.3841 -1.2347  1.4878
 8882TIP3    H248062   1.483   2.170  12.742  0.5187 -0.4870  0.3254
 8883TIP3   OH248063   3.169   0.618  12.267 -0.5939  0.2447  0.4334
 8883TIP3    H148064   3.180   0.643  12.358  0.8777 -1.1538  0.6596
 8883TIP3    H248065   3.080   0.583  12.262 -0.7227  0.4558  1.2926
 8884TIP3   OH248066   5.844   5.388   0.127  0.1474 -0.3888  0.3465
 8884TIP3    H148067   5.822   5.419   0.040  1.1749  1.6050  0.7704
 8884TIP3    H248068   5.771   5.331   0.152 -1.6327  1.4497 -0.5946
 8885TIP3   OH248069   1.196   0.449   5.260 -0.4177  0.5324 -0.3492
 8885TIP3    H148070   1.156   0.444   5.174  0.6394 -1.7065 -0.7426
 8885TIP3    H248071   1.233   0.362   5.275 -0.3373  0.9654  2.2473
 8886TIP3   OH248072   0.783   6.524  16.429 -0.2672 -0.8176  0.2067
 8886TIP3    H148073   0.852   6.557  16.372  0.5051 -0.4919  1.3157
 8886TIP3    H248074   0.809   6.550  16.517 -1.0169 -2.0366  0.8164
 8887TIP3   OH248075   1.779   5.363   2.270 -0.4883  0.0559 -0.2488
 8887TIP3    H148076   1.781   5.282   2.321 -3.1665 -0.6145 -1.1621
 8887TIP3    H248077   1.687   5.375   2.247  0.2406  1.9889 -2.3240
 8888TIP3   OH248078   4.129   5.052   4.343  0.1681  0.3526 -0.1333
 8888TIP3    H148079   4.070   5.055   4.267  0.1133  0.3799 -0.0900
 8888TIP3    H248080   4.164   5.141   4.349  0.8875  0.1183 -0.6894
 8889TIP3   OH248081   1.122   3.284   5.747  0.0465  0.7165 -0.2344
 8889TIP3    H148082   1.092   3.261   5.835  0.6075 -0.8083 -0.4189
 8889TIP3    H248083   1.057   3.346   5.715 -0.9064  0.2531  0.7535
 8890TIP3   OH248084   0.825   5.226   4.652  0.4338 -0.2249 -0.5446
 8890TIP3    H148085   0.889   5.162   4.684  1.5355  0.5177 -1.1955
 8890TIP3    H248086   0.750   5.174   4.625  1.1754 -1.2125 -0.7318
 8891TIP3   OH248087   2.871   5.703  15.986 -0.2570 -0.1861  0.0954
 8891TIP3    H148088   2.824   5.786  15.993  0.4487  0.1778  0.4940
 8891TIP3    H248089   2.829   5.658  15.912 -1.3327  0.0717  0.5475
 8892TIP3   OH248090   2.118   5.530   2.860  0.3106 -0.0701  0.1375
 8892TIP3    H148091   2.099   5.491   2.774 -1.9165  1.4463 -0.1058
 8892TIP3    H248092   2.179   5.601   2.841  0.5297 -0.3145 -0.0762
 8893TIP3   OH248093   2.978   5.951   3.274  0.1027  0.2831 -0.0772
 8893TIP3    H148094   2.884   5.948   3.254 -0.2866  2.3544  1.3794
 8893TIP3    H248095   2.989   5.887   3.344  0.0783 -1.0901 -1.2928
 8894TIP3   OH248096   4.836   2.746  12.784 -0.3092 -0.1059  0.0461
 8894TIP3    H148097   4.895   2.777  12.853  1.9798 -2.3193 -0.8150
 8894TIP3    H248098   4.879   2.775  12.703 -0.4908 -1.5571 -0.5847
 8895TIP3   OH248099   0.082   5.717  13.756  0.3376 -0.6975 -0.3708
 8895TIP3    H148100   0.133   5.721  13.676  0.2932 -0.1852 -0.3766
 8895TIP3    H248101   0.032   5.799  13.757  2.0021  0.3313  1.2750
 8896TIP3   OH248102   2.048   6.008   5.248  0.3368 -0.0826 -0.3806
 8896TIP3    H148103   2.021   6.099   5.256 -0.6030 -0.3140 -0.7999
 8896TIP3    H248104   2.127   6.001   5.302 -0.0426  0.7801  0.2960
 8897TIP3   OH248105   3.796   0.164  13.071  0.4491  0.1750  0.8891
 8897TIP3    H148106   3.854   0.163  13.147  1.1006  2.7816  0.4644
 8897TIP3    H248107   3.711   0.189  13.107  0.7629  1.4319  0.7463
 8898TIP3   OH248108   3.570   1.461  16.899 -0.0547  0.6516  0.1353
 8898TIP3    H148109   3.501   1.400  16.927  0.9279 -0.1234  0.9368
 8898TIP3    H248110   3.574   1.450  16.804 -0.3786 -0.0266  0.1950
 8899TIP3   OH248111   1.413   3.839  11.193 -0.9342 -0.2339  0.6440
 8899TIP3    H148112   1.485   3.862  11.134 -1.0539  2.6662  1.5409
 8899TIP3    H248113   1.455   3.816  11.275 -0.9140 -0.8649  0.4542
 8900TIP3   OH248114   2.703   6.169  12.246 -0.1775  0.1829  0.1324
 8900TIP3    H148115   2.630   6.209  12.199  0.0734  0.6786  0.1629
 8900TIP3    H248116   2.781   6.194  12.196  0.0653  0.4953  0.6698
 8901TIP3   OH248117   0.711   4.711   2.237  0.3554  0.6380 -0.0678
 8901TIP3    H148118   0.759   4.677   2.162  1.1195 -0.8344  1.0475
 8901TIP3    H248119   0.637   4.757   2.200  0.0480 -1.0991 -1.6977
 8902TIP3   OH248120   0.553   4.458  16.674  0.1526 -0.2825  0.2142
 8902TIP3    H148121   0.524   4.442  16.584 -0.5649  2.1043 -0.0129
 8902TIP3    H248122   0.639   4.499  16.665 -0.0876  0.3104  0.5985
 8903TIP3   OH248123   4.792   1.382  13.671  0.4529 -0.5152  0.3288
 8903TIP3    H148124   4.787   1.419  13.583 -0.4253  1.1765  1.0571
 8903TIP3    H248125   4.850   1.442  13.719  2.1691 -2.2702  0.5199
 8904TIP3   OH248126   3.518   5.685   1.559  0.2773 -0.1757 -0.3181
 8904TIP3    H148127   3.570   5.609   1.583 -0.8168 -1.0006 -0.5527
 8904TIP3    H248128   3.563   5.758   1.602  1.3610 -0.9249 -0.1337
 8905TIP3   OH248129   2.352   3.597   0.475 -0.2367 -0.1368 -0.6783
 8905TIP3    H148130   2.301   3.598   0.556 -0.9213  0.1438 -1.1076
 8905TIP3    H248131   2.353   3.688   0.445  1.7099  0.1046  0.0538
 8906TIP3   OH248132   6.619   1.078  16.909 -0.4319  0.1118 -0.3935
 8906TIP3    H148133   6.610   0.987  16.938  0.6901 -0.5556 -2.0806
 8906TIP3    H248134   6.633   1.072  16.815 -0.3684  2.0470 -0.5266
 8907TIP3   OH248135   3.812   6.132   0.333  0.3181  0.5069  0.2001
 8907TIP3    H148136   3.903   6.140   0.362  0.0852 -0.2063  1.1192
 8907TIP3    H248137   3.761   6.130   0.414 -0.4508  0.0162 -0.2971
 8908TIP3   OH248138   1.701   3.754   0.658 -0.0383 -0.0528  0.2771
 8908TIP3    H148139   1.751   3.677   0.684  0.8882  0.3416 -0.3374
 8908TIP3    H248140   1.730   3.774   0.569 -1.0070  0.4081  0.0518
 8909TIP3   OH248141   0.029   6.143   3.874 -0.4812 -0.1844  0.0665
 8909TIP3    H148142   0.044   6.216   3.935 -0.0875  0.7659 -1.1568
 8909TIP3    H248143  -0.019   6.182   3.801 -0.9398 -1.3168 -0.2455
 8910TIP3   OH248144   2.130   5.293  13.169  0.2055  0.5601 -1.0986
 8910TIP3    H148145   2.157   5.384  13.151 -1.2889  1.3197  0.3952
 8910TIP3    H248146   2.201   5.240  13.133  1.4859  2.3489 -1.3010
 8911TIP3   OH248147   1.244   2.519  12.123  0.1253 -0.1195  0.2187
 8911TIP3    H148148   1.265   2.595  12.177  4.0664 -0.9429 -0.0055
 8911TIP3    H248149   1.246   2.552  12.033 -0.2070 -0.0728  0.2269
 8912TIP3   OH248150   5.521   3.398  12.266  0.2119  0.1477  0.3637
 8912TIP3    H148151   5.443   3.389  12.212 -0.5991  2.0234  1.1709
 8912TIP3    H248152   5.488   3.408  12.356  1.4035  0.1790  0.8151
 8913TIP3   OH248153   4.601   0.812  14.224  0.1172 -0.0096 -0.6496
 8913TIP3    H148154   4.601   0.820  14.128  1.0585 -0.0432 -0.6657
 8913TIP3    H248155   4.685   0.851  14.250  1.6696 -3.5080 -0.1786
 8914TIP3   OH248156   3.793   3.526  12.808  0.2178 -0.8523  0.6333
 8914TIP3    H148157   3.847   3.567  12.741 -0.4025 -0.3767  0.4151
 8914TIP3    H248158   3.774   3.596  12.870 -1.1593 -0.6987  0.0651
 8915TIP3   OH248159   6.509   0.528  11.070  0.3229  0.2791 -0.4788
 8915TIP3    H148160   6.442   0.459  11.079  0.8704 -0.3185 -0.8954
 8915TIP3    H248161   6.467   0.607  11.104 -0.3542 -0.2415 -0.0908
 8916TIP3   OH248162   2.236   3.959   0.740 -0.1221  0.9780  0.4194
 8916TIP3    H148163   2.215   3.951   0.833  0.2403 -0.7690  0.3767
 8916TIP3    H248164   2.151   3.959   0.696 -0.2595  0.6292  0.6820
 8917TIP3   OH248165   4.836   2.324   3.512 -0.1465 -0.1979  0.2608
 8917TIP3    H148166   4.765   2.271   3.475  0.5510 -1.4859  0.7471
 8917TIP3    H248167   4.888   2.262   3.563  0.8211  0.9183  0.6430
 8918TIP3   OH248168   4.378   6.160   5.794  0.2369 -0.1594  0.0914
 8918TIP3    H148169   4.369   6.146   5.700  0.1683  1.1227 -0.0946
 8918TIP3    H248170   4.441   6.093   5.822 -0.7661 -1.4207 -0.6274
 8919TIP3   OH248171   6.184   4.552  16.278  0.0575  0.4866  0.3622
 8919TIP3    H148172   6.172   4.647  16.267 -1.3862  0.2966  0.2367
 8919TIP3    H248173   6.097   4.515  16.265  0.8977 -1.0164 -1.2231
 8920TIP3   OH248174   4.759   2.522  14.027  0.1261  0.1513 -0.4206
 8920TIP3    H148175   4.682   2.576  14.044  0.3724 -0.0401  1.3293
 8920TIP3    H248176   4.744   2.441  14.076  0.1160 -1.1043 -2.4055
 8921TIP3   OH248177   4.035   4.956  10.621 -0.5626 -0.0463 -0.3400
 8921TIP3    H148178   4.097   5.025  10.599 -0.6619  0.2388  0.2716
 8921TIP3    H248179   4.022   4.965  10.715 -0.0284 -1.3577 -0.1337
 8922TIP3   OH248180   1.554   2.344  16.098 -0.1973 -0.2256 -0.0712
 8922TIP3    H148181   1.630   2.391  16.066 -1.0262  0.6182 -0.8155
 8922TIP3    H248182   1.572   2.252  16.078  0.9117 -0.1071  0.3545
 8923TIP3   OH248183   4.205   3.066  15.626 -0.2206  0.3763  0.2042
 8923TIP3    H148184   4.113   3.045  15.643  0.2075  0.5115  2.9086
 8923TIP3    H248185   4.229   3.010  15.552 -2.4396  0.2522 -0.4578
 8924TIP3   OH248186   0.194   5.501  14.525  0.0994 -0.7515 -0.0260
 8924TIP3    H148187   0.185   5.565  14.455  2.3446 -0.5366 -0.1545
 8924TIP3    H248188   0.258   5.437  14.492 -1.5947 -2.7001  0.3549
 8925TIP3   OH248189   2.139   4.987   0.753  0.4445  0.5211  0.6279
 8925TIP3    H148190   2.118   4.961   0.664 -0.4978  1.0950  0.6723
 8925TIP3    H248191   2.109   5.078   0.760  1.2784  0.7582  1.2715
 8926TIP3   OH248192   6.598   4.827  11.643 -0.3551  0.1686 -0.1323
 8926TIP3    H148193   6.582   4.766  11.571 -2.1113 -0.3981  0.7061
 8926TIP3    H248194   6.689   4.812  11.669 -0.5367 -1.5331 -0.4461
 8927TIP3   OH248195   6.543   3.155  16.360 -0.6336  0.3299 -0.1250
 8927TIP3    H148196   6.530   3.231  16.418  1.2387  0.3451  0.2828
 8927TIP3    H248197   6.501   3.181  16.278  0.1014  1.8566 -0.0247
 8928TIP3   OH248198   0.400   2.941   1.720  0.1163  0.1813  0.0124
 8928TIP3    H148199   0.314   2.909   1.750  1.1248 -2.3455  0.3739
 8928TIP3    H248200   0.433   2.871   1.664  1.7497  1.3511 -0.5150
 8929TIP3   OH248201   0.306   5.592   1.480 -0.3045  0.0751  0.2237
 8929TIP3    H148202   0.318   5.569   1.388 -0.9451 -1.0792  0.4181
 8929TIP3    H248203   0.216   5.567   1.500 -0.4256  1.0537  0.9563
 8930TIP3   OH248204   1.387   5.261  14.940 -0.2890  0.7051  0.4621
 8930TIP3    H148205   1.466   5.306  14.911  0.2962  1.4835  3.1605
 8930TIP3    H248206   1.334   5.253  14.860  2.0500  1.0365 -1.1947
 8931TIP3   OH248207   5.083   3.892   4.650  0.1913 -0.0100 -0.0396
 8931TIP3    H148208   5.111   3.978   4.619  0.5626 -0.0368  0.2157
 8931TIP3    H248209   5.123   3.883   4.736 -0.6308 -0.0393  0.3431
 8932TIP3   OH248210   4.431   6.373  15.908 -0.3701 -0.4867  0.3359
 8932TIP3    H148211   4.402   6.382  15.999  0.9701  1.0307  0.6316
 8932TIP3    H248212   4.455   6.281  15.900  1.7954 -0.1352  2.2373
 8933TIP3   OH248213   1.918   4.769   2.524 -0.1860  0.2227 -0.4279
 8933TIP3    H148214   1.982   4.823   2.478  0.2723 -0.3276 -0.4423
 8933TIP3    H248215   1.900   4.696   2.464 -0.1872 -0.0706 -0.0723
 8934TIP3   OH248216   1.444   2.346   1.042 -0.0231 -0.4785 -0.3062
 8934TIP3    H148217   1.398   2.339   1.126  1.3370 -2.0803  0.3601
 8934TIP3    H248218   1.468   2.438   1.036 -0.7641 -0.2009  0.7378
 8935TIP3   OH248219   0.433   2.694   0.576 -0.2582  0.4678  0.3063
 8935TIP3    H148220   0.479   2.610   0.580 -0.8514  0.1320 -0.0140
 8935TIP3    H248221   0.387   2.701   0.659 -0.0033  0.5926  0.4373
 8936TIP3   OH248222   5.904   3.375   4.351  0.8099  0.6308  0.0586
 8936TIP3    H148223   5.968   3.412   4.290 -1.2076  2.5505 -0.9935
 8936TIP3    H248224   5.899   3.438   4.423  0.2172  0.4180  0.2092
 8937TIP3   OH248225   0.468   4.249   3.414 -0.0461 -0.1122 -0.2938
 8937TIP3    H148226   0.469   4.189   3.340 -2.1068  1.4678 -1.6801
 8937TIP3    H248227   0.387   4.300   3.402  1.0081  2.0611  1.4973
 8938TIP3   OH248228   1.368   2.317   2.373  0.3548 -0.1955 -0.2388
 8938TIP3    H148229   1.331   2.405   2.379 -1.2087 -0.9392  1.2939
 8938TIP3    H248230   1.387   2.292   2.463  0.5484 -1.5326 -0.6307
 8939TIP3   OH248231   1.851   1.708  10.811 -0.2583 -0.1337 -0.1184
 8939TIP3    H148232   1.842   1.613  10.803  0.7159 -0.2969  0.6430
 8939TIP3    H248233   1.945   1.723  10.819 -0.5249  0.7269  1.6113
 8940TIP3   OH248234   1.346   3.909   1.750  0.2013 -0.7614 -0.2337
 8940TIP3    H148235   1.319   3.839   1.808  0.2980 -0.9906 -0.4668
 8940TIP3    H248236   1.440   3.920   1.766 -0.4569  1.7355  2.4216
 8941TIP3   OH248237   5.361   0.275   1.037 -0.1010 -0.3271 -0.1258
 8941TIP3    H148238   5.444   0.227   1.040 -0.1149 -0.4333 -1.3471
 8941TIP3    H248239   5.379   0.351   0.982 -0.4540  0.3569  0.6925
 8942TIP3   OH248240   5.591   3.289   1.822 -0.1230 -0.2849  0.4240
 8942TIP3    H148241   5.610   3.338   1.742 -1.4666  1.8573  1.3683
 8942TIP3    H248242   5.586   3.198   1.794  0.9665  0.2653 -1.6439
 8943TIP3   OH248243   1.402   3.771  16.365 -0.2498 -0.0520  0.5028
 8943TIP3    H148244   1.401   3.865  16.383  0.6592  0.0104  0.2450
 8943TIP3    H248245   1.476   3.758  16.306 -1.4022 -0.6951 -0.8299
 8944TIP3   OH248246   1.169   0.574   4.832  0.3570 -0.6973  0.0633
 8944TIP3    H148247   1.171   0.552   4.739  0.0297 -2.3564  0.4345
 8944TIP3    H248248   1.189   0.668   4.835  0.2807 -0.6129 -1.6768
 8945TIP3   OH248249   6.023   1.635   4.434  0.2746  0.5653  0.0056
 8945TIP3    H148250   6.006   1.587   4.515  0.1640 -0.7109 -0.7546
 8945TIP3    H248251   5.939   1.634   4.388  0.0890  2.1182  0.2944
 8946TIP3   OH248252   5.791   5.596   2.491  0.3343 -0.4747  0.2691
 8946TIP3    H148253   5.696   5.582   2.481  0.6072 -0.4345 -2.9919
 8946TIP3    H248254   5.800   5.689   2.511 -0.2585 -0.1309 -1.0032
 8947TIP3   OH248255   0.995   4.124  10.811 -0.0392 -0.0080 -0.9949
 8947TIP3    H148256   0.934   4.182  10.857  1.0900 -0.4305  1.0847
 8947TIP3    H248257   0.943   4.045  10.793  0.2830 -1.0235  2.2163
 8948TIP3   OH248258   0.164   0.599   4.161  0.4320 -0.2226 -0.5887
 8948TIP3    H148259   0.246   0.647   4.153 -0.6001  1.7941  0.4152
 8948TIP3    H248260   0.109   0.655   4.215 -2.0316 -0.9640 -2.2257
 8949TIP3   OH248261   5.841   1.427   5.435 -0.3853  0.0744  0.4524
 8949TIP3    H148262   5.803   1.429   5.347  1.2540 -0.9484 -0.2980
 8949TIP3    H248263   5.877   1.514   5.448 -2.2787  0.8338  0.8897
 8950TIP3   OH248264   3.889   1.680  12.764 -0.3391 -0.2130 -0.0870
 8950TIP3    H148265   3.958   1.615  12.776 -1.1939 -0.8055  1.7960
 8950TIP3    H248266   3.808   1.631  12.771 -0.9913  0.9629  1.0075
 8951TIP3   OH248267   6.064   6.385  15.570 -0.0414  0.0210  0.0630
 8951TIP3    H148268   6.041   6.457  15.629  0.7679  1.1256 -0.9517
 8951TIP3    H248269   6.079   6.427  15.485 -1.3700 -1.5735 -0.9949
 8952TIP3   OH248270   5.074   0.236  10.946  0.4299  0.8943  0.5183
 8952TIP3    H148271   5.132   0.194  11.008 -0.6299 -1.7110 -0.1834
 8952TIP3    H248272   5.013   0.167  10.920  0.2278  2.1781 -2.6222
 8953TIP3   OH248273   6.760   5.306  12.210  0.5173 -0.3625 -0.0643
 8953TIP3    H148274   6.785   5.257  12.131  0.0300 -1.2303  0.3175
 8953TIP3    H248275   6.734   5.239  12.272  2.7663  0.1688  1.5272
 8954TIP3   OH248276   3.105   4.674   4.310  0.2538  0.1050  0.4743
 8954TIP3    H148277   3.138   4.710   4.228 -0.5034  0.5080  0.3368
 8954TIP3    H248278   3.035   4.734   4.336 -2.0211 -2.0194 -0.5116
 8955TIP3   OH248279   4.145   5.830  16.181 -0.2578  0.0630  0.1278
 8955TIP3    H148280   4.097   5.876  16.113 -0.2459  2.1495  1.4849
 8955TIP3    H248281   4.151   5.740  16.149 -0.3987  0.9378 -2.5304
 8956TIP3   OH248282   5.425   1.113   5.623  0.0708  0.0071 -0.0137
 8956TIP3    H148283   5.395   1.026   5.649 -0.7375  0.6884  1.4197
 8956TIP3    H248284   5.345   1.160   5.599  0.4086  0.6205  0.0543
 8957TIP3   OH248285   2.204   4.837   1.328  0.0676  0.3128  0.2181
 8957TIP3    H148286   2.192   4.788   1.247  0.7122 -1.9581  1.4460
 8957TIP3    H248287   2.118   4.876   1.346 -0.6266 -0.8564 -0.4881
 8958TIP3   OH248288   6.092   2.367   2.389  0.5016  0.0551 -0.0271
 8958TIP3    H148289   6.168   2.310   2.398  1.7820  1.8418  0.7370
 8958TIP3    H248290   6.128   2.455   2.389 -1.3165  0.8737 -2.4059
 8959TIP3   OH248291   4.740   4.892  13.313 -0.0936 -0.1235  0.3067
 8959TIP3    H148292   4.720   4.949  13.239 -0.1678 -0.1613  0.2969
 8959TIP3    H248293   4.697   4.809  13.291  1.9535 -0.9265 -0.7700
 8960TIP3   OH248294   2.825   4.726  13.744 -0.0210 -1.4443 -0.0311
 8960TIP3    H148295   2.748   4.711  13.689 -0.5077 -0.2508  0.3073
 8960TIP3    H248296   2.799   4.694  13.831  1.0329 -4.0960 -0.6317
 8961TIP3   OH248297   3.917   3.933  11.166 -0.6833  0.2494  0.0839
 8961TIP3    H148298   3.921   3.944  11.261 -1.6713  0.5795  0.0841
 8961TIP3    H248299   3.900   3.839  11.154  0.7945 -0.0471  0.1991
 8962TIP3   OH248300   0.973   4.876  13.562 -0.3566  0.8085 -0.6202
 8962TIP3    H148301   1.038   4.895  13.494 -2.2368 -0.9628 -2.9472
 8962TIP3    H248302   0.890   4.905  13.525 -1.1872  1.3327  1.5919
 8963TIP3   OH248303   2.050   3.485  13.673  0.3230  0.2715  0.0410
 8963TIP3    H148304   1.981   3.446  13.619  0.1061  1.6704 -0.7367
 8963TIP3    H248305   2.119   3.507  13.610  2.1261 -2.4141  0.9908
 8964TIP3   OH248306   3.210   3.449  16.204 -0.0042 -0.5868  0.1929
 8964TIP3    H148307   3.234   3.370  16.252  0.2637 -0.4804  0.2336
 8964TIP3    H248308   3.266   3.447  16.126  1.4666  0.6123  1.2034
 8965TIP3   OH248309   0.674   1.807  13.309  0.2442  0.1666  0.5844
 8965TIP3    H148310   0.756   1.788  13.265 -0.5611  1.4673 -1.5914
 8965TIP3    H248311   0.647   1.723  13.348  0.9079 -1.0706 -1.5559
 8966TIP3   OH248312   3.204   4.744   5.203  0.0053  0.4480  0.2695
 8966TIP3    H148313   3.147   4.771   5.131 -0.0705 -0.2634  0.0632
 8966TIP3    H248314   3.263   4.680   5.164  0.7763  0.9769  0.5454
 8967TIP3   OH248315   5.232   5.697   3.176 -0.9379 -0.4127 -0.0510
 8967TIP3    H148316   5.171   5.625   3.165 -2.0819  0.3260  1.2173
 8967TIP3    H248317   5.210   5.734   3.262 -1.4044  2.3820 -1.3302
 8968TIP3   OH248318   5.334   0.920   1.017 -0.0436 -0.6398 -0.0118
 8968TIP3    H148319   5.279   0.892   1.090 -0.8544 -0.9133 -0.7220
 8968TIP3    H248320   5.311   0.862   0.945 -0.0867  0.3704 -0.8254
 8969TIP3   OH248321   6.344   2.909   0.392  0.0013  0.0701 -0.1572
 8969TIP3    H148322   6.371   2.833   0.341 -0.1455  0.6640 -1.1186
 8969TIP3    H248323   6.322   2.873   0.478  1.1046 -0.8117 -0.2253
 8970TIP3   OH248324   0.444   0.823   0.368 -0.4361 -0.1425  0.0845
 8970TIP3    H148325   0.423   0.736   0.334  0.6767 -0.4654  0.1880
 8970TIP3    H248326   0.427   0.882   0.295  0.6492 -0.6785 -0.6241
 8971TIP3   OH248327   1.827   1.204   0.568 -0.6024  0.0160  0.2614
 8971TIP3    H148328   1.852   1.116   0.598 -2.4548 -0.3319  0.8700
 8971TIP3    H248329   1.753   1.188   0.509 -0.7403  1.1448  0.1291
 8972TIP3   OH248330   4.387   3.021   5.505 -0.2381  0.1405  0.2464
 8972TIP3    H148331   4.461   3.020   5.566  0.1275 -0.1299 -0.1966
 8972TIP3    H248332   4.312   2.995   5.558 -0.1449  1.1004  0.8661
 8973TIP3   OH248333   3.202   2.242   1.572  0.2344 -0.5357  0.2122
 8973TIP3    H148334   3.237   2.155   1.556  0.6166 -0.2849 -0.3413
 8973TIP3    H248335   3.113   2.227   1.603 -0.2236 -1.0740 -1.3402
 8974TIP3   OH248336   0.703   3.402  16.743  0.0746  0.2376 -0.2692
 8974TIP3    H148337   0.704   3.357  16.658 -1.6099  1.0975 -0.7821
 8974TIP3    H248338   0.706   3.331  16.807  1.5827 -0.4175 -1.0323
 8975TIP3   OH248339   0.982   0.423  11.504  0.2119  0.0686  0.0235
 8975TIP3    H148340   0.941   0.510  11.506 -0.4622 -0.2469  0.0362
 8975TIP3    H248341   0.933   0.373  11.569 -0.4986 -0.8118 -1.1733
 8976TIP3   OH248342   3.829   6.624  13.913  0.3717 -0.5082 -0.3319
 8976TIP3    H148343   3.881   6.628  13.993  0.9468 -1.8987 -0.6294
 8976TIP3    H248344   3.805   6.532  13.904  1.4149 -0.6081 -2.4501
 8977TIP3   OH248345   2.054   1.663   0.322  0.2324 -0.2283 -0.1438
 8977TIP3    H148346   2.091   1.624   0.243 -0.0849  0.3992 -0.6102
 8977TIP3    H248347   2.047   1.591   0.384 -1.1928 -1.0930 -1.2892
 8978TIP3   OH248348   0.544   4.760  13.940  0.2704 -0.1944  0.5129
 8978TIP3    H148349   0.582   4.688  13.990  0.2528  1.3309  2.7894
 8978TIP3    H248350   0.617   4.820  13.924 -0.1144  0.2209  0.3009
 8979TIP3   OH248351   1.203   6.206  11.848 -0.3296 -0.0456 -0.5664
 8979TIP3    H148352   1.158   6.251  11.919  1.1734  1.3681 -0.4775
 8979TIP3    H248353   1.191   6.113  11.866  0.1749  0.2957  1.6385
 8980TIP3   OH248354   0.681   1.740  16.724  0.0319  0.3242  0.1506
 8980TIP3    H148355   0.750   1.803  16.747 -1.1625  0.6717  2.9635
 8980TIP3    H248356   0.702   1.662  16.775 -1.7936  0.5376  1.2805
 8981TIP3   OH248357   1.563   0.428  16.609  0.0370 -0.2243  0.2557
 8981TIP3    H148358   1.586   0.407  16.518  0.9551  0.4276  0.3291
 8981TIP3    H248359   1.518   0.350  16.641  3.6272 -2.2279  0.6167
 8982TIP3   OH248360   2.186   2.196  12.399 -0.6612 -0.0264  0.3029
 8982TIP3    H148361   2.192   2.127  12.333 -0.2550  2.1260 -2.0064
 8982TIP3    H248362   2.243   2.265  12.366 -2.5217  2.1788  1.5608
 8983TIP3   OH248363   2.857   2.295   5.393 -0.1311  0.0665 -0.2341
 8983TIP3    H148364   2.822   2.313   5.306  0.3507 -0.4549 -0.5436
 8983TIP3    H248365   2.942   2.254   5.377  0.2689  0.5970  0.4961
 8984TIP3   OH248366   0.437   3.071  13.047 -0.5188  0.5600  0.1617
 8984TIP3    H148367   0.361   3.068  12.989 -0.8744 -0.1989  0.6572
 8984TIP3    H248368   0.433   2.989  13.096 -0.1820  1.1686  1.2140
 8985TIP3   OH248369   6.235   4.594   1.415  0.4523  0.1620 -0.2563
 8985TIP3    H148370   6.252   4.515   1.467 -0.3891 -0.4171 -0.8633
 8985TIP3    H248371   6.155   4.575   1.367  0.5784  1.1597 -0.8740
 8986TIP3   OH248372   0.382   5.511   1.042  0.1850 -0.3398  0.7040
 8986TIP3    H148373   0.436   5.435   1.019 -0.2371 -0.9116  1.5876
 8986TIP3    H248374   0.318   5.477   1.104 -1.9986  0.0642 -1.2422
 8987TIP3   OH248375   1.285   2.676   1.212 -0.3577  0.4622  0.3932
 8987TIP3    H148376   1.322   2.752   1.257 -2.6835  1.7955  0.1616
 8987TIP3    H248377   1.205   2.709   1.171  0.2433 -1.3786 -2.4072
 8988TIP3   OH248378   5.036   5.525   4.566  0.4021  0.6593  0.4720
 8988TIP3    H148379   4.942   5.512   4.556  0.2114  2.6398 -0.6255
 8988TIP3    H248380   5.073   5.437   4.563 -1.4709 -0.2105  1.6979
 8989TIP3   OH248381   0.067   2.271  17.108  0.4485 -0.2311 -0.3850
 8989TIP3    H148382   0.012   2.242  17.035 -0.6681  3.0575 -0.9040
 8989TIP3    H248383   0.122   2.340  17.071  0.5838  0.7722  1.6238
 8990TIP3   OH248384   3.311   1.825   2.839 -0.4591  0.5263 -0.1629
 8990TIP3    H148385   3.370   1.844   2.767 -2.2517  2.1044 -1.2589
 8990TIP3    H248386   3.359   1.853   2.917  1.5602 -1.3565 -0.6760
 8991TIP3   OH248387   1.166   5.597  15.253 -0.0059  0.0513 -0.1125
 8991TIP3    H148388   1.199   5.628  15.169  0.2553 -0.9554 -0.3761
 8991TIP3    H248389   1.175   5.502  15.250  1.3222  0.0916  1.5938
 8992TIP3   OH248390   3.993   2.077   2.430  0.7867  0.3998  0.3340
 8992TIP3    H148391   4.024   2.127   2.355  1.0307  1.4778  1.1476
 8992TIP3    H248392   3.897   2.080   2.423  0.7412  2.6077  1.4034
 8993TIP3   OH248393   1.503   3.841  12.509  0.4293  0.2573  0.3276
 8993TIP3    H148394   1.437   3.910  12.516  0.8219  0.4873  1.7846
 8993TIP3    H248395   1.540   3.834  12.596  0.8836 -1.3254  0.0193
 8994TIP3   OH248396   6.165   2.748  15.695  0.0645 -0.3547  0.1178
 8994TIP3    H148397   6.143   2.781  15.782 -2.6405  2.1068 -1.3955
 8994TIP3    H248398   6.157   2.825  15.638  2.4588 -1.7634 -2.2073
 8995TIP3   OH248399   1.605   6.676  13.782 -0.1044 -0.0211 -0.2004
 8995TIP3    H148400   1.652   6.736  13.839 -1.7157  0.3090  0.8298
 8995TIP3    H248401   1.672   6.616  13.749  1.4154  1.9490 -0.7641
 8996TIP3   OH248402   3.291   0.630  13.420  0.7389 -0.0630 -0.4094
 8996TIP3    H148403   3.292   0.706  13.478 -2.5933  1.1385 -1.7959
 8996TIP3    H248404   3.333   0.661  13.340  1.1660 -0.2897 -0.2726
 8997TIP3   OH248405   3.622   6.483   1.028  0.6117 -0.4941  0.3552
 8997TIP3    H148406   3.656   6.527   1.106  0.3272  0.3307  0.0169
 8997TIP3    H248407   3.527   6.485   1.040  0.6654 -3.3704  1.6246
 8998TIP3   OH248408   4.124   1.281   2.829 -0.9409  0.4870 -0.2590
 8998TIP3    H148409   4.172   1.329   2.896  0.0308 -0.0792 -0.5316
 8998TIP3    H248410   4.098   1.348   2.765  0.1985  0.6912 -0.5200
 8999TIP3   OH248411   4.687   0.658   3.019 -0.1459 -0.0525 -0.0306
 8999TIP3    H148412   4.649   0.727   2.964 -1.2618 -0.8277 -0.2362
 8999TIP3    H248413   4.727   0.597   2.958 -1.8108 -1.1690 -0.0207
 9000TIP3   OH248414   4.348   1.801   0.635 -0.1879  0.4744  0.4988
 9000TIP3    H148415   4.413   1.744   0.594  0.0163  0.8958  0.2363
 9000TIP3    H248416   4.384   1.822   0.721  0.4595  1.4516  0.0006
 9001TIP3   OH248417   1.171   3.802   6.301  0.1153  0.1140  0.4163
 9001TIP3    H148418   1.097   3.860   6.284 -1.3939 -1.1730  2.3429
 9001TIP3    H248419   1.234   3.857   6.347  0.1538  1.0788 -0.7620
 9002TIP3   OH248420   2.306   4.711   2.249  0.0698  0.0263  0.2947
 9002TIP3    H148421   2.212   4.729   2.249  0.3624  1.6376  0.3828
 9002TIP3    H248422   2.344   4.784   2.200  1.5616  1.0159  2.8629
 9003TIP3   OH248423   2.588   0.426   2.254 -0.1131 -0.3938  0.1576
 9003TIP3    H148424   2.683   0.428   2.239 -0.3595 -0.0495 -1.3468
 9003TIP3    H248425   2.572   0.338   2.289  0.5572 -0.9697 -0.9617
 9004TIP3   OH248426   4.984   2.449  11.275 -0.0574 -0.1063  0.0672
 9004TIP3    H148427   4.988   2.509  11.200  0.8848  0.7678  0.8096
 9004TIP3    H248428   5.066   2.463  11.321 -0.3491 -1.1250  0.9093
 9005TIP3   OH248429   0.503   2.190  17.149  0.3988  0.7030  0.5593
 9005TIP3    H148430   0.523   2.231  17.233  0.8085  1.1804  0.2337
 9005TIP3    H248431   0.410   2.168  17.155  0.5534  0.2559  1.3339
 9006TIP3   OH248432   1.258   3.335   4.522 -0.5089  0.3159 -0.2025
 9006TIP3    H148433   1.280   3.290   4.603  0.7420  0.1740 -0.6070
 9006TIP3    H248434   1.253   3.428   4.546 -1.0269  0.1743  0.2188
 9007TIP3   OH248435   2.453   0.614   0.880  0.2005  0.1919 -0.1862
 9007TIP3    H148436   2.474   0.694   0.832  0.9344  0.6774  0.9084
 9007TIP3    H248437   2.537   0.567   0.885 -0.4558 -1.2192 -1.8239
 9008TIP3   OH248438   3.972   2.940  16.200  0.1351 -0.0222 -0.0397
 9008TIP3    H148439   3.945   2.875  16.135  0.0985  0.8038 -0.8574
 9008TIP3    H248440   4.035   2.995  16.153  1.1571 -0.2563  1.0380
 9009TIP3   OH248441   2.212   0.256  11.557  0.0722  0.8111 -0.6770
 9009TIP3    H148442   2.197   0.275  11.464 -2.6074 -1.6426 -0.7984
 9009TIP3    H248443   2.130   0.220  11.588  1.4153  0.1743  2.3211
 9010TIP3   OH248444   1.281   2.027   0.324 -0.1051 -0.0211  1.0268
 9010TIP3    H148445   1.201   2.064   0.360  0.9312  2.5998  0.7827
 9010TIP3    H248446   1.315   2.095   0.265  0.3430 -2.5829 -1.8200
 9011TIP3   OH248447   1.796   4.875  14.144 -0.2174 -0.0252 -0.1963
 9011TIP3    H148448   1.875   4.916  14.179  0.4120 -0.4510 -1.1065
 9011TIP3    H248449   1.802   4.784  14.173  0.5947 -0.5226 -1.8726
 9012TIP3   OH248450   3.798   5.660   0.749  0.3004 -0.6643  0.4234
 9012TIP3    H148451   3.835   5.692   0.831  0.1793  0.8540 -0.1130
 9012TIP3    H248452   3.705   5.682   0.754  0.0542 -1.6441  0.3855
 9013TIP3   OH248453   3.401   1.268   4.744  0.5132  0.0984  0.1198
 9013TIP3    H148454   3.404   1.203   4.673  2.6001  0.7874 -0.4669
 9013TIP3    H248455   3.472   1.329   4.723  0.0203  1.3048  1.8769
 9014TIP3   OH248456   1.461   5.828  14.360  0.5146  0.0427 -0.2102
 9014TIP3    H148457   1.538   5.836  14.304 -1.0212 -0.2761 -2.4604
 9014TIP3    H248458   1.388   5.824  14.298 -1.2601 -0.0966  1.8599
 9015TIP3   OH248459   6.665   2.051   0.255 -0.3699  0.3084 -0.5989
 9015TIP3    H148460   6.632   1.971   0.214  0.5070  0.4366 -1.5785
 9015TIP3    H248461   6.647   2.120   0.191 -0.6426  0.8151  0.0150
 9016TIP3   OH248462   2.860   0.437  17.067  0.7454  0.3635  0.2146
 9016TIP3    H148463   2.855   0.356  17.117 -1.0928 -0.5086 -1.3366
 9016TIP3    H248464   2.924   0.420  16.998  1.8890  0.9407  1.1168
 9017TIP3   OH248465   3.481   3.552  13.057 -0.4073  0.2525  0.1709
 9017TIP3    H148466   3.567   3.510  13.061  0.0683  1.1183 -0.6330
 9017TIP3    H248467   3.421   3.481  13.036  0.1747 -0.2824  0.2949
 9018TIP3   OH248468   4.798   3.584  15.781 -0.2879  0.5027  0.1725
 9018TIP3    H148469   4.802   3.651  15.714 -0.1055  0.2637 -0.0555
 9018TIP3    H248470   4.875   3.529  15.764  0.1080  0.8022  0.9525
 9019TIP3   OH248471   6.086   1.793  15.054 -0.4048  0.0674 -0.2292
 9019TIP3    H148472   6.017   1.828  15.110 -0.2142  0.3088 -0.1446
 9019TIP3    H248473   6.077   1.698  15.060 -2.3367  0.0821 -2.1685
 9020TIP3   OH248474   6.405   4.564  12.581 -0.1250  0.2562  0.0679
 9020TIP3    H148475   6.395   4.472  12.605 -1.1705  0.3471  0.0032
 9020TIP3    H248476   6.385   4.612  12.662  3.8539  0.3533  1.1067
 9021TIP3   OH248477   1.148   4.888  14.418 -0.4490 -0.5979  0.1989
 9021TIP3    H148478   1.185   4.976  14.412 -0.9504 -0.4200 -0.2797
 9021TIP3    H248479   1.222   4.830  14.400 -0.5425 -0.2261 -1.5148
 9022TIP3   OH248480   3.105   5.752   6.297  0.2079 -0.7312  0.5086
 9022TIP3    H148481   3.122   5.701   6.377  1.6422 -0.7449  0.2004
 9022TIP3    H248482   3.072   5.836   6.329  1.0780 -0.6230  1.1165
 9023TIP3   OH248483   5.805   1.374   3.252  0.3998 -0.3112  0.0791
 9023TIP3    H148484   5.871   1.376   3.183  2.3509  2.3189  1.9242
 9023TIP3    H248485   5.735   1.432   3.221 -0.0327 -1.3089 -0.8626
 9024TIP3   OH248486   4.952   1.520  15.496 -0.1912  0.4302 -0.3230
 9024TIP3    H148487   5.013   1.510  15.568  0.1629 -1.3515 -0.8351
 9024TIP3    H248488   4.874   1.472  15.524 -1.3411  2.5956  0.2796
 9025TIP3   OH248489   6.384   6.752  14.012 -0.5108 -0.6062  0.0560
 9025TIP3    H148490   6.380   6.842  13.981 -0.6184 -1.1484 -1.6092
 9025TIP3    H248491   6.304   6.711  13.976 -0.0168 -1.5715  0.0282
 9026TIP3   OH248492   5.920   1.040  16.227 -0.7405  0.3346  0.0844
 9026TIP3    H148493   6.006   1.002  16.208  0.2257  2.1784  0.6662
 9026TIP3    H248494   5.880   0.978  16.289  0.6580  0.0721  0.7516
 9027TIP3   OH248495   2.817   5.568  15.516  0.3628  0.2230  0.3176
 9027TIP3    H148496   2.904   5.601  15.493  1.5325 -0.9937  2.7658
 9027TIP3    H248497   2.810   5.486  15.467  0.3815  0.5513 -0.2481
 9028TIP3   OH248498   1.865   4.938   3.546  0.2574 -0.1340 -0.3979
 9028TIP3    H148499   1.874   5.031   3.525  0.4335  0.0859  0.5977
 9028TIP3    H248500   1.803   4.937   3.619  1.2020 -0.6888  0.4122
 9029TIP3   OH248501   5.610   5.652   4.272 -0.0628 -0.2013  0.5192
 9029TIP3    H148502   5.660   5.729   4.298 -0.8311  0.5115 -0.0470
 9029TIP3    H248503   5.526   5.688   4.243  0.1217 -1.1129 -1.2021
 9030TIP3   OH248504   5.847   2.560  13.390  0.5680  0.9009 -0.1386
 9030TIP3    H148505   5.935   2.540  13.358  0.6151 -1.5157  1.3402
 9030TIP3    H248506   5.861   2.625  13.460  1.1438  0.8784 -0.2290
 9031TIP3   OH248507   4.421   4.355   3.781 -0.1083 -0.0970 -0.1923
 9031TIP3    H148508   4.402   4.369   3.874  0.8239 -0.2863  0.0331
 9031TIP3    H248509   4.370   4.277   3.758  0.9242 -1.0223  0.5803
 9032TIP3   OH248510   0.816   1.845  11.726 -0.3707 -0.2982 -0.1234
 9032TIP3    H148511   0.753   1.899  11.775  0.9400  1.5747 -0.4575
 9032TIP3    H248512   0.786   1.851  11.635 -0.4706 -0.5054 -0.1060
 9033TIP3   OH248513   3.008   3.751   0.349 -0.0871  0.0874  0.3565
 9033TIP3    H148514   3.005   3.655   0.345  1.4314 -0.0390  1.8345
 9033TIP3    H248515   3.081   3.774   0.292  0.6166  0.2494  1.3094
 9034TIP3   OH248516   3.700   0.798  15.835  0.5001  0.4312 -0.2993
 9034TIP3    H148517   3.769   0.805  15.770 -0.1489 -0.8886 -1.1523
 9034TIP3    H248518   3.664   0.710  15.823 -2.1622  1.5274 -0.7566
 9035TIP3   OH248519   2.155   4.838  11.359  0.3545 -0.3276 -0.3229
 9035TIP3    H148520   2.181   4.915  11.309 -0.1817 -0.2980 -0.5681
 9035TIP3    H248521   2.076   4.865  11.406  0.5467 -0.5216  0.1188
 9036TIP3   OH248522   2.166   0.193   0.658  0.0996  0.1644  0.5333
 9036TIP3    H148523   2.108   0.135   0.609 -0.9941 -0.2528  2.2666
 9036TIP3    H248524   2.162   0.161   0.748  1.5736  1.2942  1.0333
 9037TIP3   OH248525   0.895   2.935   5.491 -0.0092  0.5898  0.2995
 9037TIP3    H148526   0.972   2.963   5.540  1.2981 -3.8920  1.0230
 9037TIP3    H248527   0.832   2.909   5.558  0.0502 -1.1749 -0.3050
 9038TIP3   OH248528   5.573   2.059   2.794 -0.4501 -0.2625 -0.0316
 9038TIP3    H148529   5.543   2.099   2.712 -3.7868  0.7989  1.6062
 9038TIP3    H248530   5.629   2.125   2.834  0.8862 -0.6339 -1.2514
 9039TIP3   OH248531   1.813   0.502  11.772 -0.4540 -1.0637  0.1633
 9039TIP3    H148532   1.719   0.498  11.753 -0.5316 -3.0799  0.8487
 9039TIP3    H248533   1.824   0.447  11.850  1.0237  0.6941  1.2198
 9040TIP3   OH248534   6.725   2.541   3.580  0.1833  0.5356  0.1354
 9040TIP3    H148535   6.722   2.565   3.673  0.7349  0.4665  0.1746
 9040TIP3    H248536   6.674   2.461   3.574 -0.0256  0.6496  0.3431
 9041TIP3   OH248537   0.051   3.001   1.051  0.2541 -0.3323  0.3710
 9041TIP3    H148538   0.051   2.942   0.975 -0.9599 -1.1502  0.9845
 9041TIP3    H248539  -0.015   3.067   1.030 -1.1348 -1.3826  1.3077
 9042TIP3   OH248540   5.272   4.273   0.535 -0.6613 -0.1565  0.3677
 9042TIP3    H148541   5.278   4.312   0.622  0.3633  0.3214  0.0852
 9042TIP3    H248542   5.250   4.345   0.477 -0.5244 -0.3192  0.1104
 9043TIP3   OH248543   1.705   2.579   4.946 -0.4259 -0.5586 -0.5269
 9043TIP3    H148544   1.648   2.556   4.872 -0.5377 -2.0010  0.0061
 9043TIP3    H248545   1.793   2.557   4.916 -0.4040 -0.5712 -0.4533
 9044TIP3   OH248546   2.852   6.640  15.159 -0.2667 -0.7166 -0.0342
 9044TIP3    H148547   2.827   6.615  15.248  0.7003 -0.8072  0.2221
 9044TIP3    H248548   2.918   6.575  15.134  1.5232  0.9318  0.2415
 9045TIP3   OH248549   6.739   5.760   1.350  0.4887  0.2682  0.6333
 9045TIP3    H148550   6.738   5.665   1.361 -0.1859 -0.0751 -1.9331
 9045TIP3    H248551   6.757   5.795   1.437  1.1917 -2.2245  1.5162
 9046TIP3   OH248552   1.705   2.323  11.700  0.4786  0.4179 -0.1297
 9046TIP3    H148553   1.632   2.262  11.696  1.8019 -1.2785  1.0052
 9046TIP3    H248554   1.685   2.378  11.777 -1.1256  2.0159 -1.6361
 9047TIP3   OH248555   4.552   5.511  14.604 -0.2356 -1.1703 -0.2857
 9047TIP3    H148556   4.545   5.605  14.622  1.3605 -1.1230  0.1680
 9047TIP3    H248557   4.538   5.503  14.510 -1.0928 -0.5562 -0.2164
 9048TIP3   OH248558   0.149   1.889  14.257  0.3298 -0.8627  0.1690
 9048TIP3    H148559   0.192   1.925  14.335  1.3690 -1.7057  0.0029
 9048TIP3    H248560   0.220   1.878  14.194 -0.5456  0.0236 -0.9783
 9049TIP3   OH248561   4.243   6.497  13.145  0.1773 -0.5069  0.0421
 9049TIP3    H148562   4.322   6.530  13.189 -0.1013 -0.7717  0.7483
 9049TIP3    H248563   4.228   6.559  13.074  0.6424 -0.0765  0.3123
 9050TIP3   OH248564   1.798   2.052   2.224  0.1984  0.2184 -0.0683
 9050TIP3    H148565   1.876   1.999   2.237  0.7696  1.0373 -0.0918
 9050TIP3    H248566   1.752   2.050   2.308 -0.5697 -1.5362 -0.5135
 9051TIP3   OH248567   6.084   4.810  14.292  0.0103 -0.4853 -0.1941
 9051TIP3    H148568   6.086   4.819  14.387  0.5289 -2.1276 -0.0502
 9051TIP3    H248569   6.161   4.859  14.262 -0.7764  0.9776  0.1455
 9052TIP3   OH248570   1.130   6.488  16.802 -1.1085  0.4736  0.5536
 9052TIP3    H148571   1.099   6.436  16.876 -0.2158  0.2349  0.7640
 9052TIP3    H248572   1.224   6.473  16.800 -1.1700  0.2743 -0.7970
 9053TIP3   OH248573   3.407   3.773   5.001  0.7004 -0.2213  0.0341
 9053TIP3    H148574   3.381   3.724   5.079 -1.6731 -1.6848 -1.6226
 9053TIP3    H248575   3.471   3.717   4.958  3.4362  1.4119  1.8144
 9054TIP3   OH248576   0.519   5.086   0.790  0.8998  0.2758 -0.2938
 9054TIP3    H148577   0.539   5.180   0.789 -0.3713  0.5527 -1.2360
 9054TIP3    H248578   0.605   5.044   0.787  1.5540  1.3817  1.8678
 9055TIP3   OH248579   2.509   4.019  16.815 -0.1873 -0.1809 -0.4503
 9055TIP3    H148580   2.546   3.952  16.873 -1.4102  1.0574  1.8091
 9055TIP3    H248581   2.508   4.099  16.868 -2.9772  0.5677 -1.5514
 9056TIP3   OH248582   6.134   4.773   0.445 -0.0722 -0.0422  0.2247
 9056TIP3    H148583   6.174   4.711   0.384  0.4349  1.4154 -0.9620
 9056TIP3    H248584   6.208   4.813   0.490 -0.1449  2.1411 -1.4610
 9057TIP3   OH248585   0.241   0.727   0.579  0.2069  0.3406 -0.2328
 9057TIP3    H148586   0.233   0.822   0.572 -2.0163  0.1889 -0.1140
 9057TIP3    H248587   0.236   0.695   0.489 -0.0245  0.2863 -0.2029
 9058TIP3   OH248588   2.702   4.585   5.813 -0.0560 -0.5419  0.6392
 9058TIP3    H148589   2.644   4.539   5.753 -0.9684 -0.8529  1.7485
 9058TIP3    H248590   2.730   4.518   5.876 -0.7064  0.2091  1.7451
 9059TIP3   OH248591   1.888   3.861  16.674 -0.4843  0.2948  0.2072
 9059TIP3    H148592   1.839   3.853  16.592  0.9400 -0.1623 -0.6183
 9059TIP3    H248593   1.974   3.825  16.654  0.0481  0.6607  1.7691
 9060TIP3   OH248594   3.329   3.399  16.580  0.1003  0.8025 -0.4385
 9060TIP3    H148595   3.381   3.397  16.661 -1.0540 -2.7869  0.2637
 9060TIP3    H248596   3.239   3.412  16.610  0.0356  2.8448 -1.4196
 9061TIP3   OH248597   5.238   3.649   2.759 -0.1829  0.5834  0.2425
 9061TIP3    H148598   5.273   3.590   2.826  0.7045  0.9819  0.1464
 9061TIP3    H248599   5.197   3.592   2.694 -0.1646  0.1367  0.6252
 9062TIP3   OH248600   5.991   3.669  12.321 -0.5031 -0.5031 -0.4449
 9062TIP3    H148601   5.918   3.623  12.278 -1.3825 -0.9820  1.4670
 9062TIP3    H248602   6.011   3.614  12.398  0.8900  0.4125 -0.1434
 9063TIP3   OH248603   0.042   4.634   5.169 -0.6144 -0.4222  0.1763
 9063TIP3    H148604   0.056   4.681   5.250  0.1518 -0.7244  0.2188
 9063TIP3    H248605   0.060   4.542   5.190  4.1651  0.0008 -1.4028
 9064TIP3   OH248606   5.068   2.448  13.755  0.0052 -0.6017  0.3972
 9064TIP3    H148607   5.127   2.402  13.815  0.8218 -0.4219 -0.2668
 9064TIP3    H248608   5.045   2.383  13.689 -1.5052 -1.0234  1.3190
 9065TIP3   OH248609   0.271   2.530  16.167  0.1912  0.5104 -0.0995
 9065TIP3    H148610   0.280   2.464  16.098 -0.6130  1.7591 -1.4392
 9065TIP3    H248611   0.329   2.601  16.139 -0.9247  1.4635 -0.0384
 9066TIP3   OH248612   0.832   2.462  17.020  0.2309 -0.2253 -0.0202
 9066TIP3    H148613   0.790   2.512  17.090 -0.2736  0.0709 -0.5362
 9066TIP3    H248614   0.767   2.458  16.950  1.7480  1.9145 -1.6231
 9067TIP3   OH248615   2.505   4.482  12.543 -0.7831 -0.3126  0.0082
 9067TIP3    H148616   2.526   4.572  12.517 -0.5415  0.5539  3.0087
 9067TIP3    H248617   2.582   4.431  12.516 -0.7435  0.4408 -1.3456
 9068TIP3   OH248618   0.135   3.872  15.085 -0.2117  0.2890  0.4522
 9068TIP3    H148619   0.185   3.953  15.078 -0.6560  0.5103 -0.2075
 9068TIP3    H248620   0.044   3.900  15.076 -0.3656 -0.2859  0.2228
 9069TIP3   OH248621   0.474   4.485  11.703  0.7713 -0.5794  0.1348
 9069TIP3    H148622   0.454   4.564  11.754 -1.4029 -0.2649 -1.1581
 9069TIP3    H248623   0.547   4.512  11.647  1.1684 -0.0123  0.9066
 9070TIP3   OH248624   0.262   0.486  10.610  0.7740  0.1991 -0.3489
 9070TIP3    H148625   0.228   0.461  10.524 -0.0844  0.3931 -0.0716
 9070TIP3    H248626   0.292   0.403  10.648 -0.6767 -0.2019 -0.0413
 9071TIP3   OH248627   6.257   1.500  11.192  0.2249 -0.4124 -0.5209
 9071TIP3    H148628   6.217   1.479  11.107 -1.7835  1.5433 -0.0955
 9071TIP3    H248629   6.328   1.560  11.170 -1.4673  1.5778 -0.7021
 9072TIP3   OH248630   4.920   1.157   5.257  0.0185 -0.2872  0.0713
 9072TIP3    H148631   4.840   1.200   5.227 -0.8827  0.0949  2.8408
 9072TIP3    H248632   4.936   1.194   5.344  1.3468 -2.7753  0.9522
 9073TIP3   OH248633   3.473   1.090  12.137 -0.5022  0.0411 -0.1824
 9073TIP3    H148634   3.519   1.006  12.143 -0.7961 -0.1738 -0.8497
 9073TIP3    H248635   3.383   1.066  12.116 -0.6986  0.5035  0.1448
 9074TIP3   OH248636   4.618   5.225  13.988 -0.0508 -0.0113 -0.4284
 9074TIP3    H148637   4.662   5.308  14.005  0.9259 -0.8682  1.3853
 9074TIP3    H248638   4.682   5.173  13.941  0.1419 -0.4992  0.3548
 9075TIP3   OH248639   1.482   0.290   6.350  0.2738 -0.0048  0.3113
 9075TIP3    H148640   1.544   0.279   6.422  0.4827 -0.7241  0.0315
 9075TIP3    H248641   1.418   0.220   6.364 -0.1033  0.3287  0.2295
 9076TIP3   OH248642   6.016   4.704  16.494  0.2232  0.2183 -0.6500
 9076TIP3    H148643   6.040   4.622  16.537  1.8238  0.6525 -0.6546
 9076TIP3    H248644   6.045   4.772  16.555 -1.0703  0.7871 -0.6547
 9077TIP3   OH248645   2.448   4.073  14.479 -0.2253  0.1957  0.4191
 9077TIP3    H148646   2.452   4.110  14.567 -0.2411 -0.0255  0.5138
 9077TIP3    H248647   2.410   3.986  14.491 -0.3776  0.2269  0.1727
 9078TIP3   OH248648   4.785   0.947   4.962  1.3254 -0.6524  0.3000
 9078TIP3    H148649   4.790   0.940   5.057  1.1692 -0.1642  0.3469
 9078TIP3    H248650   4.842   1.022   4.941  0.6298 -0.1719  0.0999
 9079TIP3   OH248651   0.233   4.895   5.670  0.0108 -0.1190 -0.7397
 9079TIP3    H148652   0.231   4.799   5.667  0.5917 -0.0993 -3.9407
 9079TIP3    H248653   0.314   4.916   5.717 -0.3337 -1.1985  0.3463
 9080TIP3   OH248654   0.150   2.426  12.016  0.2834 -0.5747 -0.7321
 9080TIP3    H148655   0.163   2.419  12.110 -1.1465 -0.4239 -0.5130
 9080TIP3    H248656   0.193   2.348  11.980  0.2118 -1.0092  0.1051
 9081TIP3   OH248657   4.904   5.710  16.891  0.6495  0.3223 -0.3334
 9081TIP3    H148658   4.914   5.652  16.815 -1.2889 -0.2135 -0.2063
 9081TIP3    H248659   4.983   5.695  16.943 -0.2654 -3.0325  0.2155
 9082TIP3   OH248660   0.454   0.750   3.755 -0.1645  0.2450  0.1175
 9082TIP3    H148661   0.371   0.707   3.774 -0.8186  2.0803  1.5452
 9082TIP3    H248662   0.430   0.837   3.724  1.2276  0.9842  1.0543
 9083TIP3   OH248663   3.800   1.364  14.027 -0.4692 -0.0733 -0.5729
 9083TIP3    H148664   3.860   1.354  14.101  1.1261  0.8392 -1.7202
 9083TIP3    H248665   3.713   1.373  14.068  0.2413 -0.7313  1.1278
 9084TIP3   OH248666   1.293   4.859  12.640 -0.0378  0.2509 -1.1122
 9084TIP3    H148667   1.386   4.880  12.637  0.1586  0.1282  1.9479
 9084TIP3    H248668   1.250   4.944  12.654 -0.2465  0.1175 -0.9428
 9085TIP3   OH248669   5.590   3.662   4.607  0.2113 -0.4173 -0.3354
 9085TIP3    H148670   5.534   3.600   4.559  0.4179 -0.5182 -0.4516
 9085TIP3    H248671   5.585   3.743   4.556  0.4441 -0.5298 -0.5372
 9086TIP3   OH248672   6.546   1.246  13.163  0.1026 -0.9495  0.1229
 9086TIP3    H148673   6.482   1.261  13.233  0.1762 -1.5435  0.3241
 9086TIP3    H248674   6.540   1.324  13.108 -1.5064 -1.4488 -0.4254
 9087TIP3   OH248675   0.609   4.899  15.938 -0.3073 -0.0510  0.2453
 9087TIP3    H148676   0.683   4.953  15.967 -0.6917  0.7417 -0.2668
 9087TIP3    H248677   0.575   4.860  16.018  0.8151 -0.6144  0.4673
 9088TIP3   OH248678   1.494   4.024  11.795  0.4083  0.2724 -0.2206
 9088TIP3    H148679   1.450   3.941  11.778  0.1787  0.2725  0.3423
 9088TIP3    H248680   1.425   4.080  11.832  0.6330  0.6159 -0.3205
 9089TIP3   OH248681   5.515   4.522   6.434  0.4589  0.8341 -0.5960
 9089TIP3    H148682   5.529   4.612   6.463 -0.3563  1.1850 -1.2672
 9089TIP3    H248683   5.437   4.527   6.378  0.9547 -0.1278 -1.3829
 9090TIP3   OH248684   1.003   0.613   0.079 -0.3986 -0.0266 -0.1185
 9090TIP3    H148685   1.062   0.621   0.003 -2.0354  1.3893 -1.2789
 9090TIP3    H248686   0.933   0.675   0.061  0.4456  2.2043  3.7808
 9091TIP3   OH248687   4.471   6.643  16.711 -0.0178  0.3481 -0.4512
 9091TIP3    H148688   4.400   6.682  16.660  0.2483 -0.5833 -1.5651
 9091TIP3    H248689   4.541   6.709  16.710 -0.1541  0.4846 -0.9798
 9092TIP3   OH248690   0.086   3.070  13.663  0.2691 -0.4759  0.0761
 9092TIP3    H148691   0.066   3.077  13.756  0.6449 -0.4958  0.1588
 9092TIP3    H248692   0.136   2.988  13.655 -2.0394 -1.8671 -0.5394
 9093TIP3   OH248693   4.681   6.433   5.533 -0.3060 -0.3327  0.6003
 9093TIP3    H148694   4.735   6.473   5.464 -0.8083 -0.2508  0.2549
 9093TIP3    H248695   4.731   6.449   5.613 -0.0310  0.1440  0.3412
 9094TIP3   OH248696   3.707   1.734  14.760 -0.3569 -0.6506  0.1549
 9094TIP3    H148697   3.784   1.725  14.703 -0.7657 -1.3425 -0.2930
 9094TIP3    H248698   3.680   1.826  14.749 -0.3441 -0.7424 -0.6600
 9095TIP3   OH248699   6.115   5.598  12.498 -0.0219  0.2216  0.5021
 9095TIP3    H148700   6.173   5.596  12.421 -0.2452  0.1654  0.3350
 9095TIP3    H248701   6.102   5.506  12.521 -1.3888  0.1604 -0.4726
 9096TIP3   OH248702   5.323   2.244   5.161 -0.0754 -0.0858 -0.0134
 9096TIP3    H148703   5.227   2.250   5.160  0.0418  1.9009 -0.4791
 9096TIP3    H248704   5.341   2.152   5.181 -2.0822 -0.5919 -0.4647
 9097TIP3   OH248705   6.382   6.187   4.201  0.0779 -0.2423  0.2395
 9097TIP3    H148706   6.464   6.154   4.166 -1.2674 -0.6670 -2.6466
 9097TIP3    H248707   6.360   6.262   4.146 -1.9445 -0.7191  0.3402
 9098TIP3   OH248708   0.648   3.669   3.569  0.2562 -0.6293  0.5360
 9098TIP3    H148709   0.613   3.754   3.539  0.8214 -0.5109  0.1971
 9098TIP3    H248710   0.575   3.628   3.615 -0.4998 -0.6113 -0.6159
 9099TIP3   OH248711   5.498   4.128  14.278 -1.0702  0.3409  0.0361
 9099TIP3    H148712   5.468   4.037  14.281 -2.8317  0.9036  0.2961
 9099TIP3    H248713   5.539   4.143  14.363 -0.2728 -0.3758 -0.2199
 9100TIP3   OH248714   3.524   4.935  15.966  0.0293 -0.3377  0.3495
 9100TIP3    H148715   3.498   5.026  15.984  2.4238  0.2507  1.1550
 9100TIP3    H248716   3.618   4.934  15.987  0.3583 -2.6164 -1.1494
 9101TIP3   OH248717   0.194   4.059   3.040 -0.4600 -0.2424 -0.4050
 9101TIP3    H148718   0.209   4.024   2.953  0.2232 -1.1494  0.0686
 9101TIP3    H248719   0.240   4.143   3.041 -0.1648 -0.4008 -0.8044
 9102TIP3   OH248720   4.786   2.540  12.379  0.1102 -0.8605 -0.3961
 9102TIP3    H148721   4.806   2.633  12.365  2.1244 -1.0672  0.9140
 9102TIP3    H248722   4.691   2.536  12.387 -0.0839  0.9232 -1.6501
 9103TIP3   OH248723   2.875   1.160   6.216 -0.1059 -0.0367 -0.0645
 9103TIP3    H148724   2.956   1.155   6.164  1.0831 -2.5072  1.9278
 9103TIP3    H248725   2.811   1.108   6.166 -0.2173  1.1265 -1.1597
 9104TIP3   OH248726   1.378   4.361   5.824 -0.1033 -0.2377  0.0018
 9104TIP3    H148727   1.311   4.303   5.862 -1.5293  0.5020 -1.3329
 9104TIP3    H248728   1.361   4.446   5.864  0.0892 -0.0697 -0.2749
 9105TIP3   OH248729   0.181   2.626   3.376 -0.5918 -0.5694 -0.4717
 9105TIP3    H148730   0.092   2.651   3.403  0.6215  1.3467  1.8939
 9105TIP3    H248731   0.193   2.539   3.413 -0.7283  0.0462  1.0532
 9106TIP3   OH248732   4.483   0.150  11.588 -0.0241  0.3438 -0.0713
 9106TIP3    H148733   4.506   0.197  11.508  0.1306 -0.5768 -0.5737
 9106TIP3    H248734   4.566   0.139  11.634  0.0052  0.1456 -0.1746
 9107TIP3   OH248735   6.687   5.354   3.871  0.0735  0.0417 -0.2199
 9107TIP3    H148736   6.652   5.375   3.958 -0.9495 -2.3051 -0.0258
 9107TIP3    H248737   6.654   5.423   3.814 -1.2511  0.2693  0.8062
 9108TIP3   OH248738   3.036   1.471  15.324 -0.1737 -0.0637 -0.7342
 9108TIP3    H148739   3.051   1.402  15.389  1.9151  1.8161  0.8578
 9108TIP3    H248740   3.018   1.550  15.376 -0.8405  0.9757 -2.4820
 9109TIP3   OH248741   4.336   4.587  16.059  0.0253 -0.0678  0.2704
 9109TIP3    H148742   4.295   4.614  16.141 -2.1614  1.1882 -1.1887
 9109TIP3    H248743   4.306   4.651  15.994  1.1270 -1.4388 -1.6652
 9110TIP3   OH248744   3.569   4.992  16.994 -0.0519  0.4799 -0.0236
 9110TIP3    H148745   3.654   5.032  17.012 -0.3575  1.0870  0.0911
 9110TIP3    H248746   3.546   5.024  16.906  0.0631 -0.0811 -0.2617
 9111TIP3   OH248747   0.878   2.085  14.976  0.2666 -0.1288 -0.0329
 9111TIP3    H148748   0.879   1.990  14.989 -2.8926 -0.0761  1.0460
 9111TIP3    H248749   0.902   2.120  15.062  1.9350  0.1038 -0.5614
 9112TIP3   OH248750   6.372   0.659   3.635  0.2043 -0.2851  0.6922
 9112TIP3    H148751   6.312   0.722   3.596 -0.1518 -1.8759 -1.4643
 9112TIP3    H248752   6.459   0.685   3.605  0.1879 -0.1380  0.7755
 9113TIP3   OH248753   5.513   6.668  14.538 -0.3832 -0.1198  0.2537
 9113TIP3    H148754   5.556   6.751  14.517 -0.3871 -0.1267  0.2171
 9113TIP3    H248755   5.426   6.693  14.567 -0.8587 -0.1950 -1.0780
 9114TIP3   OH248756   3.292   4.747   1.620  0.5706  0.3635 -0.0720
 9114TIP3    H148757   3.205   4.711   1.604  0.8139  0.8706 -2.8832
 9114TIP3    H248758   3.352   4.675   1.601  0.7955 -0.0756  2.1515
 9115TIP3   OH248759   5.270   1.924   4.530  0.0251  0.5795 -0.2412
 9115TIP3    H148760   5.353   1.947   4.571  1.1596  0.8630 -2.6075
 9115TIP3    H248761   5.220   2.006   4.528  0.5076  0.8619 -0.6635
 9116TIP3   OH248762   2.738   0.271   0.776  0.4908  0.0200 -0.4286
 9116TIP3    H148763   2.670   0.331   0.805  1.8194  0.6843  1.3783
 9116TIP3    H248764   2.759   0.300   0.687 -0.2430  0.9832 -0.2909
 9117TIP3   OH248765   4.757   0.149  14.891 -0.0542  0.2487 -0.0020
 9117TIP3    H148766   4.839   0.103  14.908 -1.0494 -1.7271 -0.3031
 9117TIP3    H248767   4.768   0.187  14.804  1.3998  2.0000  0.9368
 9118TIP3   OH248768   0.418   5.011  16.181 -0.2441  0.5688 -0.5810
 9118TIP3    H148769   0.500   5.058  16.166 -0.1244  0.4901 -0.1785
 9118TIP3    H248770   0.358   5.077  16.215  0.4023  0.1123  1.5458
 9119TIP3   OH248771   6.145   5.411   2.605  0.0440  0.2128 -0.8706
 9119TIP3    H148772   6.134   5.477   2.674 -0.5916 -0.2161 -0.5570
 9119TIP3    H248773   6.233   5.376   2.618  1.0996  2.2685 -2.1562
 9120TIP3   OH248774   5.667   5.546   4.679  0.2771 -0.1478 -0.0017
 9120TIP3    H148775   5.716   5.628   4.667 -0.8520  0.3346 -1.4913
 9120TIP3    H248776   5.708   5.484   4.619 -1.0108  0.3085 -1.3886
 9121TIP3   OH248777   2.994   1.657   0.449 -0.3690  0.1741  0.2544
 9121TIP3    H148778   2.968   1.747   0.471 -0.5409  0.3415 -0.5956
 9121TIP3    H248779   3.052   1.631   0.520  0.2488  1.2158  0.1516
 9122TIP3   OH248780   4.042   2.239   0.204 -0.0988  0.4669  0.5634
 9122TIP3    H148781   4.052   2.332   0.186  1.2158  0.4498  1.0996
 9122TIP3    H248782   4.021   2.200   0.119  1.0130  1.0460  0.0036
 9123TIP3   OH248783   2.246   0.242  12.297  0.0061  0.8714 -0.3301
 9123TIP3    H148784   2.269   0.152  12.322 -0.2066  0.3944 -1.7713
 9123TIP3    H248785   2.193   0.231  12.218 -0.3753  2.2551 -0.2695
 9124TIP3   OH248786   2.000   4.712   4.041  0.0896  0.1096  0.6467
 9124TIP3    H148787   2.075   4.691   3.985  1.0836  1.1667  1.5518
 9124TIP3    H248788   1.956   4.785   3.998  0.2543  0.2466  0.7111
 9125TIP3   OH248789   0.885   1.418   0.178  0.0135  0.0983 -0.2539
 9125TIP3    H148790   0.894   1.474   0.101 -1.1370  0.3458 -0.2158
 9125TIP3    H248791   0.958   1.356   0.171  1.3597  1.6595 -0.2286
 9126TIP3   OH248792   4.593   4.638  15.441  0.2649 -0.2564  0.5831
 9126TIP3    H148793   4.672   4.591  15.413  0.0006 -0.7794  0.6935
 9126TIP3    H248794   4.603   4.726  15.406 -0.1169 -0.9268 -1.2935
 9127TIP3   OH248795   5.837   1.260   5.848  0.2315 -0.5783 -0.3265
 9127TIP3    H148796   5.906   1.303   5.798 -0.4315  0.4189 -0.3886
 9127TIP3    H248797   5.833   1.309   5.930 -1.3220  0.2208 -0.8685
 9128TIP3   OH248798   2.618   4.757  16.954 -0.2631  0.0481 -0.0869
 9128TIP3    H148799   2.635   4.675  16.910  1.0072  0.2243  0.0604
 9128TIP3    H248800   2.527   4.751  16.983  0.3153 -1.9861  1.3721
 9129TIP3   OH248801   4.080   5.462   3.487  0.2854  0.3073  0.0692
 9129TIP3    H148802   4.103   5.522   3.416  1.6041 -0.5317 -0.2382
 9129TIP3    H248803   4.159   5.408   3.499  1.2293  2.4029  4.2550
 9130TIP3   OH248804   0.632   6.058   1.249 -0.8165  0.0769 -0.2344
 9130TIP3    H148805   0.693   6.006   1.197  0.9634 -0.1587  1.9965
 9130TIP3    H248806   0.655   6.149   1.229 -0.0690 -0.0127  0.2030
 9131TIP3   OH248807   4.305   1.524   5.322  0.2755 -0.0684  0.3951
 9131TIP3    H148808   4.363   1.591   5.285 -0.0870 -0.0102 -0.0874
 9131TIP3    H248809   4.363   1.468   5.373  0.9790 -0.7680 -1.1281
 9132TIP3   OH248810   3.374   0.953   3.694 -0.1942  0.2752 -0.2996
 9132TIP3    H148811   3.459   0.937   3.655 -0.0942  0.8389 -0.3122
 9132TIP3    H248812   3.353   1.044   3.671 -0.6122  0.2682  0.0413
 9133TIP3   OH248813   0.463   3.684   1.423  0.2158  0.1348  0.6695
 9133TIP3    H148814   0.496   3.761   1.377  2.8294 -1.8191 -0.8874
 9133TIP3    H248815   0.519   3.676   1.500  0.4044 -0.6000  0.4584
 9134TIP3   OH248816   1.164   2.323  13.160  0.4325 -0.1204 -0.1164
 9134TIP3    H148817   1.254   2.343  13.132  0.6016 -0.4516  0.1987
 9134TIP3    H248818   1.127   2.275  13.086  0.3358  0.4951 -0.4750
 9135TIP3   OH248819   5.409   4.596  13.366 -0.6972 -0.1041 -0.3256
 9135TIP3    H148820   5.331   4.547  13.392 -1.2717  0.6214 -0.6867
 9135TIP3    H248821   5.450   4.620  13.449 -1.8924  1.1749 -0.0900
 9136TIP3   OH248822   0.597   2.254   0.763  0.3382  0.1776  0.3794
 9136TIP3    H148823   0.676   2.287   0.806  0.4977 -1.9681  1.8048
 9136TIP3    H248824   0.621   2.167   0.731 -0.5987  0.6514 -1.7643
 9137TIP3   OH248825   1.590   2.652   5.840 -0.5897  0.1852 -0.6265
 9137TIP3    H148826   1.635   2.701   5.910  0.2460 -0.0078 -1.0163
 9137TIP3    H248827   1.556   2.574   5.883  0.6325 -0.3427 -0.5732
 9138TIP3   OH248828   2.690   1.934  13.239  0.5231 -0.3325 -0.4191
 9138TIP3    H148829   2.696   1.863  13.174  0.7410 -1.1636  0.4883
 9138TIP3    H248830   2.606   1.975  13.222  0.4767 -0.6900 -1.0854
 9139TIP3   OH248831   0.625   6.411  11.704 -0.1281  0.1459  0.0888
 9139TIP3    H148832   0.673   6.393  11.623 -2.6194  2.5579 -2.0223
 9139TIP3    H248833   0.562   6.339  11.710  1.6655 -1.3684  1.2416
 9140TIP3   OH248834   3.775   2.761  15.021  0.6628 -0.7068 -0.0667
 9140TIP3    H148835   3.830   2.688  15.049  1.0201 -1.1395 -1.8380
 9140TIP3    H248836   3.774   2.755  14.925 -0.1858  0.9658 -0.1785
 9141TIP3   OH248837   0.126   3.429   3.308 -0.2976  0.0286 -0.7813
 9141TIP3    H148838   0.050   3.482   3.283 -0.0555  0.6831 -0.1298
 9141TIP3    H248839   0.172   3.482   3.373 -0.4778 -1.3080  0.4561
 9142TIP3   OH248840   3.210   6.783   1.547  0.4282  0.5154  0.2946
 9142TIP3    H148841   3.219   6.700   1.594  0.3583 -0.5823 -1.6194
 9142TIP3    H248842   3.121   6.781   1.512  0.2818  1.5946  0.5775
 9143TIP3   OH248843   1.856   4.419   3.708 -0.1348  0.4504 -0.4030
 9143TIP3    H148844   1.843   4.347   3.646  0.8871  1.0968 -1.3961
 9143TIP3    H248845   1.869   4.376   3.792 -2.6262 -0.4050 -0.4230
 9144TIP3   OH248846   3.521   3.105  10.575  0.2212  0.5197  0.5617
 9144TIP3    H148847   3.534   3.132  10.483 -2.2033 -0.0910  0.0070
 9144TIP3    H248848   3.581   3.031  10.587 -0.9771 -0.7749 -1.1947
 9145TIP3   OH248849   0.574   1.068  14.746 -0.3118  0.5185 -0.8840
 9145TIP3    H148850   0.644   1.119  14.787 -0.5741  1.1258 -1.1723
 9145TIP3    H248851   0.579   1.091  14.653  0.3914 -0.9924 -1.2206
 9146TIP3   OH248852   1.157   1.717  15.974  0.2981 -0.6478 -0.4718
 9146TIP3    H148853   1.217   1.664  16.028  2.1860  0.1787 -1.6941
 9146TIP3    H248854   1.158   1.673  15.889  0.9597  0.6762 -1.1547
 9147TIP3   OH248855   2.212   4.931   2.415 -0.5246 -0.1497 -0.3405
 9147TIP3    H148856   2.261   4.884   2.483 -0.3939 -0.6948 -0.8104
 9147TIP3    H248857   2.169   4.862   2.364 -0.4411  0.2451 -0.9518
 9148TIP3   OH248858   5.205   4.357   2.279 -0.1317  0.0213  0.3699
 9148TIP3    H148859   5.202   4.439   2.328  0.3954  0.9129 -1.0525
 9148TIP3    H248860   5.116   4.321   2.288 -0.6521  1.2364  0.1926
 9149TIP3   OH248861   4.748   2.270  13.439  0.0810  0.1767  0.6516
 9149TIP3    H148862   4.809   2.301  13.372  0.2764  0.3475  0.9122
 9149TIP3    H248863   4.673   2.238  13.389  0.5733 -0.4651  0.3135
 9150TIP3   OH248864   4.736   1.411   6.248  0.5098 -0.1446 -0.1627
 9150TIP3    H148865   4.800   1.474   6.281 -0.2267  0.3997  0.2280
 9150TIP3    H248866   4.786   1.330   6.237  1.5772  0.6393 -1.1598
 9151TIP3   OH248867   4.258   3.233  11.012  0.6432 -0.2494 -0.2782
 9151TIP3    H148868   4.324   3.300  11.028  1.3256 -0.8020 -0.7806
 9151TIP3    H248869   4.302   3.167  10.957 -0.1530 -0.8809 -0.1753
 9152TIP3   OH248870   3.119   0.303   5.343 -0.0047  0.0944 -0.6164
 9152TIP3    H148871   3.104   0.242   5.415 -0.8059 -1.2407 -1.8850
 9152TIP3    H248872   3.188   0.263   5.291  0.8900  1.2749 -0.3716
 9153TIP3   OH248873   4.709   6.290  15.029  0.0857  0.2568  0.0679
 9153TIP3    H148874   4.726   6.251  15.114  0.9763 -0.8800 -0.6240
 9153TIP3    H248875   4.633   6.346  15.043 -0.1039 -0.3461  1.4814
 9154TIP3   OH248876   1.218   2.778   6.010 -0.4353  0.1709 -0.0099
 9154TIP3    H148877   1.231   2.737   5.924  1.1903 -0.3386  0.4517
 9154TIP3    H248878   1.277   2.730   6.068  0.3720  2.1868  0.8689
 9155TIP3   OH248879   1.892   6.406  16.099  0.6278  0.1311 -0.1581
 9155TIP3    H148880   1.967   6.460  16.075  0.6194  0.0356 -0.4031
 9155TIP3    H248881   1.916   6.365  16.181  0.7365  0.3122 -0.1011
 9156TIP3   OH248882   2.053   5.251   0.776 -0.2537  0.2074  0.0035
 9156TIP3    H148883   2.120   5.317   0.799 -1.0275  1.1219 -0.3348
 9156TIP3    H248884   2.021   5.278   0.690 -2.0526  0.5866  0.7773
 9157TIP3   OH248885   1.701   0.829   4.365  0.0741  0.1065 -0.1888
 9157TIP3    H148886   1.707   0.913   4.319  0.2900  0.7558  0.9829
 9157TIP3    H248887   1.792   0.798   4.369 -0.1014 -0.5791 -1.3146
 9158TIP3   OH248888   1.099   2.167  15.232  0.0348  0.5073  0.7287
 9158TIP3    H148889   1.125   2.241  15.288  0.1758  1.1252 -0.1519
 9158TIP3    H248890   1.022   2.130  15.276 -0.1337  1.2728  1.0918
 9159TIP3   OH248891   1.974   1.406  16.234  0.1750 -0.6417  0.6459
 9159TIP3    H148892   2.058   1.420  16.189 -0.5818 -0.5925 -0.7865
 9159TIP3    H248893   1.910   1.399  16.163 -1.2470  0.6410  1.7720
 9160TIP3   OH248894   1.941   5.895   4.339  0.2029  0.6763  1.0152
 9160TIP3    H148895   1.897   5.815   4.313 -0.0914  1.4570 -0.9953
 9160TIP3    H248896   2.026   5.866   4.372  0.1991 -0.4407  0.0563
 9161TIP3   OH248897   4.265   1.708  11.460 -0.1846  0.0413  0.2362
 9161TIP3    H148898   4.251   1.699  11.366 -0.6221  0.7659  0.2245
 9161TIP3    H248899   4.327   1.781  11.468 -1.3438  1.0160  0.5590
 9162TIP3   OH248900   2.013   0.598  16.077 -0.1634 -0.2832  0.1970
 9162TIP3    H148901   2.024   0.647  15.995 -1.5168 -0.1637  0.0719
 9162TIP3    H248902   1.936   0.637  16.117 -0.0980 -1.0226  1.0467
 9163TIP3   OH248903   6.157   2.527  16.853 -0.3168 -0.2349 -0.0272
 9163TIP3    H148904   6.084   2.532  16.916  1.1112 -1.6424  1.8057
 9163TIP3    H248905   6.159   2.613  16.812 -0.2798  1.2921  3.0527
 9164TIP3   OH248906   3.554   6.702  13.653  0.6091 -0.6764 -0.2824
 9164TIP3    H148907   3.472   6.752  13.647 -0.2240 -1.7148  1.8111
 9164TIP3    H248908   3.570   6.672  13.563 -0.9052  0.1541 -0.8578
 9165TIP3   OH248909   2.555   3.838  11.962 -0.5399  0.1566  0.4679
 9165TIP3    H148910   2.609   3.819  11.886 -0.9558 -2.0482  0.7013
 9165TIP3    H248911   2.475   3.788  11.947 -0.5802 -0.3707  2.4119
 9166TIP3   OH248912   0.523   4.339  14.500 -0.2584 -0.1487  0.0790
 9166TIP3    H148913   0.431   4.314  14.508 -0.3752  0.5219  0.9573
 9166TIP3    H248914   0.522   4.434  14.491  0.3417 -0.1447  0.0005
 9167TIP3   OH248915   3.651   6.517   3.511 -0.0519  0.0987 -0.1462
 9167TIP3    H148916   3.674   6.550   3.597  1.7462  0.6720 -0.8211
 9167TIP3    H248917   3.735   6.499   3.469 -0.9176 -1.2388 -1.3728
 9168TIP3   OH248918   3.626   2.064  11.793 -0.1056  0.1618  0.0526
 9168TIP3    H148919   3.546   2.011  11.800 -0.4399  0.7235  0.5629
 9168TIP3    H248920   3.675   2.044  11.872  0.1652 -0.0290 -0.1633
 9169TIP3   OH248921   2.208   3.224  11.463 -0.7219 -0.3407 -0.1337
 9169TIP3    H148922   2.297   3.258  11.457 -0.7896 -0.4049 -1.6725
 9169TIP3    H248923   2.154   3.302  11.479 -0.6311 -0.0010 -1.4511
 9170TIP3   OH248924   3.554   4.148   0.838 -0.4525  0.3191 -0.2195
 9170TIP3    H148925   3.511   4.078   0.789  0.3448  0.3325 -0.9478
 9170TIP3    H248926   3.600   4.200   0.771 -1.0778  1.5656  0.3027
 9171TIP3   OH248927   5.436   6.532   2.035  0.1700  0.3730 -0.7521
 9171TIP3    H148928   5.410   6.502   2.123  1.7775 -1.8070 -0.9743
 9171TIP3    H248929   5.376   6.603   2.015 -0.0726  1.0728  2.2363
 9172TIP3   OH248930   6.716   3.623   3.254 -0.0929 -0.0567 -0.0507
 9172TIP3    H148931   6.643   3.673   3.218 -0.9099 -1.1622  0.0250
 9172TIP3    H248932   6.691   3.609   3.346  1.3736  1.6558  0.6389
 9173TIP3   OH248933   5.764   4.297   5.765  0.5763  0.1012  0.4011
 9173TIP3    H148934   5.745   4.390   5.771  1.1655  0.3339 -1.1989
 9173TIP3    H248935   5.815   4.287   5.685  1.9531 -1.3590  1.4049
 9174TIP3   OH248936   4.410   6.636   1.911  0.1751  0.1238  0.8939
 9174TIP3    H148937   4.494   6.604   1.878 -0.3612 -1.8826  1.3731
 9174TIP3    H248938   4.350   6.625   1.837  0.7676  3.7280 -0.2234
 9175TIP3   OH248939   1.931   6.103   5.733  0.5435 -0.5495  0.2525
 9175TIP3    H148940   1.958   6.023   5.777  2.6508 -0.7729 -1.3698
 9175TIP3    H248941   2.010   6.156   5.726 -0.2881  0.5965 -0.9195
 9176TIP3   OH248942   6.634   3.346   4.271  0.0264 -0.3280 -0.1911
 9176TIP3    H148943   6.726   3.367   4.253  0.3731 -1.3417  0.3546
 9176TIP3    H248944   6.637   3.263   4.318 -1.1869 -0.4474 -0.3043
 9177TIP3   OH248945   0.774   1.123  14.323  0.0693  0.4283 -0.0284
 9177TIP3    H148946   0.805   1.147  14.235 -0.5504  2.6355  0.3084
 9177TIP3    H248947   0.691   1.077  14.307  0.6091 -0.3348 -0.6577
 9178TIP3   OH248948   3.196   6.322   0.444 -0.7418 -0.5503  0.1150
 9178TIP3    H148949   3.144   6.357   0.372 -1.9853  0.2464  1.3958
 9178TIP3    H248950   3.137   6.323   0.519  0.7363 -0.8320  1.2887
 9179TIP3   OH248951   4.784   4.220  17.171  0.4437  0.2786  0.0356
 9179TIP3    H148952   4.809   4.193  17.259  0.0696 -0.4327 -0.0714
 9179TIP3    H248953   4.831   4.160  17.113  1.2840  1.2251 -0.2805
 9180TIP3   OH248954   2.559   3.550   6.481 -0.4128 -0.1114  0.2108
 9180TIP3    H148955   2.612   3.541   6.402 -0.5735  0.7481  0.0008
 9180TIP3    H248956   2.561   3.463   6.521  0.0978 -0.4167 -0.4633
 9181TIP3   OH248957   2.088   3.276  10.658  0.0163  0.0853  0.3047
 9181TIP3    H148958   2.132   3.356  10.628  1.0379  1.1852  4.3498
 9181TIP3    H248959   2.156   3.209  10.659  0.0259  0.0959  0.3531
 9182TIP3   OH248960   6.039   1.179   1.228  0.2906 -0.0336  0.5959
 9182TIP3    H148961   5.982   1.228   1.287  0.2589 -0.8638  1.2768
 9182TIP3    H248962   6.014   1.207   1.140 -1.0203 -0.2299  0.9014
 9183TIP3   OH248963   4.719   5.593  12.732  0.1374 -0.1498 -0.0023
 9183TIP3    H148964   4.789   5.587  12.797  0.8608 -2.4403 -0.9457
 9183TIP3    H248965   4.763   5.582  12.648 -0.9270  1.8203 -0.8476
 9184TIP3   OH248966   0.230   4.797   6.091  0.0611  0.4735  0.1583
 9184TIP3    H148967   0.257   4.887   6.109 -0.5896  0.9337 -1.0936
 9184TIP3    H248968   0.312   4.748   6.090  0.4134  1.0242  0.9695
 9185TIP3   OH248969   0.723   5.432   2.507 -0.3505 -0.2559 -0.1600
 9185TIP3    H148970   0.766   5.354   2.541 -0.0979 -0.6112 -1.2578
 9185TIP3    H248971   0.633   5.427   2.539  0.0139 -0.3312  0.8415
 9186TIP3   OH248972   2.945   5.653   3.899  0.2313  0.0990  0.1804
 9186TIP3    H148973   2.987   5.712   3.961  1.4308 -1.7075  1.1139
 9186TIP3    H248974   2.999   5.574   3.900 -1.6348 -1.2253 -0.6593
 9187TIP3   OH248975   1.474   5.403  16.615 -0.1804 -0.0666 -0.8011
 9187TIP3    H148976   1.533   5.469  16.578 -1.4731  0.7531 -1.4585
 9187TIP3    H248977   1.389   5.446  16.616 -0.5872 -0.8857  1.0477
 9188TIP3   OH248978   2.840   4.095   0.705  0.4302 -0.0608 -0.0784
 9188TIP3    H148979   2.885   4.083   0.622 -0.1646  1.2655 -0.6014
 9188TIP3    H248980   2.837   4.190   0.718 -0.3929 -0.2145  0.9469
 9189TIP3   OH248981   6.733   4.002   4.111 -0.5196 -0.2455 -0.3360
 9189TIP3    H148982   6.796   4.067   4.081  0.1984 -0.0664  1.5116
 9189TIP3    H248983   6.686   3.976   4.031  1.0289  0.5214 -1.5318
 9190TIP3   OH248984   4.441   2.689  13.087  0.0396  0.0842 -0.4185
 9190TIP3    H148985   4.498   2.612  13.094  0.6015  0.2122 -3.1396
 9190TIP3    H248986   4.493   2.760  13.125  0.3284 -0.4627  0.2248
 9191TIP3   OH248987   6.430   1.035  13.050 -0.2365  0.3407 -0.4808
 9191TIP3    H148988   6.470   0.959  13.091  1.3581  0.5320 -1.6232
 9191TIP3    H248989   6.489   1.108  13.071 -0.9836  0.9861 -0.5920
 9192TIP3   OH248990   6.128   2.225   4.686  0.0071 -0.2452 -0.2293
 9192TIP3    H148991   6.053   2.167   4.705 -1.1545  1.5480  0.7859
 9192TIP3    H248992   6.113   2.302   4.740  1.2342  1.2661 -1.9898
 9193TIP3   OH248993   2.058   4.650  16.587  0.3001 -0.2120 -0.0717
 9193TIP3    H148994   1.986   4.587  16.579  0.8279 -0.8303 -0.0421
 9193TIP3    H248995   2.136   4.599  16.564  0.6408  0.6347 -0.7725
 9194TIP3   OH248996   1.740   5.984   0.466 -0.0964  0.4168  0.7788
 9194TIP3    H148997   1.745   6.048   0.396 -0.5686  1.7737  1.9658
 9194TIP3    H248998   1.718   5.902   0.422  1.4127  0.8518 -0.8566
 9195TIP3   OH248999   0.623   3.687  14.607  0.3707  0.1124  0.6004
 9195TIP3    H149000   0.709   3.721  14.583  0.3584 -0.6880 -0.6404
 9195TIP3    H249001   0.614   3.607  14.555 -1.0672  0.1164  0.8238
 9196TIP3   OH249002   2.652   6.100   3.017  0.3661  0.0049  0.1342
 9196TIP3    H149003   2.699   6.165   3.071  1.8933 -0.1963 -0.9206
 9196TIP3    H249004   2.714   6.078   2.948 -0.9301 -1.0593 -0.6945
 9197TIP3   OH249005   0.215   1.893  13.456 -0.2933 -0.0666  0.1302
 9197TIP3    H149006   0.140   1.908  13.399 -0.2707  0.1516  0.1566
 9197TIP3    H249007   0.254   1.812  13.425 -1.3778 -0.9353  1.0113
 9198TIP3   OH249008   1.954   4.237   5.637  0.7268 -0.0332 -0.0106
 9198TIP3    H149009   1.870   4.233   5.682  0.3422  1.3457 -0.5559
 9198TIP3    H249010   2.009   4.291   5.694  0.7673  0.2931 -0.3496
 9199TIP3   OH249011   4.058   4.347  15.851 -0.1911  0.1554 -0.1749
 9199TIP3    H149012   4.046   4.412  15.920 -1.0010  0.7306 -0.8453
 9199TIP3    H249013   4.101   4.273  15.894 -0.1234  0.7591  0.7991
 9200TIP3   OH249014   2.742   1.812  13.651  0.2681 -0.1180 -0.4118
 9200TIP3    H149015   2.751   1.898  13.610 -0.0712 -0.3130 -0.8896
 9200TIP3    H249016   2.797   1.754  13.599 -1.6480 -0.7604 -1.7449
 9201TIP3   OH249017   5.677   3.535  15.887  0.1704 -0.3639  0.8511
 9201TIP3    H149018   5.622   3.511  15.812  0.1551  0.7447  0.4892
 9201TIP3    H249019   5.755   3.481  15.877 -0.1651 -0.7866  0.4644
 9202TIP3   OH249020   4.454   5.853   6.322 -0.1789 -0.0997 -0.3256
 9202TIP3    H149021   4.401   5.927   6.351 -0.2180 -0.1551 -0.2574
 9202TIP3    H249022   4.459   5.795   6.398 -0.6595 -0.4591 -0.5676
 9203TIP3   OH249023   6.449   0.055   2.413  0.0682 -0.1717 -0.5855
 9203TIP3    H149024   6.484  -0.010   2.352  0.9173  0.2663 -0.5765
 9203TIP3    H249025   6.511   0.128   2.408 -0.8324  0.6086 -0.5412
 9204TIP3   OH249026   1.267   1.420   4.892  0.4299  0.1141 -0.8344
 9204TIP3    H149027   1.232   1.331   4.894  0.4865  0.0410  3.7829
 9204TIP3    H249028   1.361   1.409   4.908  0.4660  0.9802 -0.4276
 9205TIP3   OH249029   4.661   1.006   1.947 -1.2350  0.2215  0.3211
 9205TIP3    H149030   4.727   0.948   1.986 -0.4108  0.0544 -1.2414
 9205TIP3    H249031   4.637   0.962   1.865 -1.6228  1.4093 -0.2121
 9206TIP3   OH249032   4.119   0.894   1.567 -0.4592  0.0437  0.6676
 9206TIP3    H149033   4.163   0.829   1.621  0.2509  0.4323  0.5520
 9206TIP3    H249034   4.027   0.891   1.595 -0.7228 -2.0448 -0.3485
 9207TIP3   OH249035   2.951   5.957   1.604  0.1805 -0.8952  0.3263
 9207TIP3    H149036   2.921   5.975   1.694  0.1068 -0.2015  0.1670
 9207TIP3    H249037   2.952   5.862   1.598 -1.5340 -0.9404  0.5018
 9208TIP3   OH249038   5.122   5.860   0.388 -0.3981 -0.4380 -0.2735
 9208TIP3    H149039   5.037   5.898   0.412  0.4584  0.9083  0.7085
 9208TIP3    H249040   5.116   5.844   0.294 -0.5517  2.8068 -0.8852
 9209TIP3   OH249041   5.492   3.028   4.570 -0.2841  0.2967 -0.0678
 9209TIP3    H149042   5.568   3.004   4.517 -1.6816 -2.7217 -0.8421
 9209TIP3    H249043   5.495   2.968   4.645 -1.5253  0.5740  0.2172
 9210TIP3   OH249044   1.624   4.074  14.670 -0.0663  0.7819  0.0509
 9210TIP3    H149045   1.642   4.080  14.576  0.0879  2.0846  0.1528
 9210TIP3    H249046   1.690   4.131  14.710  1.6275 -1.9000  1.1687
 9211TIP3   OH249047   4.062   1.929  14.537 -0.1304 -0.8915  0.0520
 9211TIP3    H149048   3.990   1.870  14.515 -0.1874 -1.0576  0.6694
 9211TIP3    H249049   4.019   2.011  14.560 -0.1042 -0.8698  0.0235
 9212TIP3   OH249050   1.453   4.588   3.503 -0.5742  0.0683  0.4867
 9212TIP3    H149051   1.419   4.521   3.563 -0.4604 -0.1692  0.2879
 9212TIP3    H249052   1.512   4.540   3.445 -0.3033  0.3861  0.4978
 9213TIP3   OH249053   1.269   5.912   0.162 -0.8822 -0.2058 -0.0225
 9213TIP3    H149054   1.189   5.962   0.172  0.3205  1.5114  1.2873
 9213TIP3    H249055   1.339   5.974   0.183  0.7142 -2.0149  0.1350
 9214TIP3   OH249056   5.125   4.413   4.918 -0.1277  0.4769  0.3987
 9214TIP3    H149057   5.103   4.506   4.919  1.2842  0.8481 -0.9317
 9214TIP3    H249058   5.200   4.405   4.976  0.1276  0.2853  0.0478
 9215TIP3   OH249059   4.084   1.090  14.410 -0.8148  0.1095 -0.3861
 9215TIP3    H149060   4.083   1.096  14.506  1.3963  2.1152 -0.4354
 9215TIP3    H249061   4.150   1.022  14.392 -1.7093 -0.7389 -0.4856
 9216TIP3   OH249062   2.436   0.574   2.453  0.3558  0.1470  0.5335
 9216TIP3    H149063   2.362   0.568   2.392 -2.0645 -1.8757  3.5188
 9216TIP3    H249064   2.502   0.515   2.416  0.7256  2.2665 -2.3619
 9217TIP3   OH249065   6.256   5.575   1.889  0.1662 -0.4278 -0.2958
 9217TIP3    H149066   6.221   5.662   1.872  1.3398 -0.0539 -0.8677
 9217TIP3    H249067   6.220   5.551   1.975  1.3372  1.4254  0.7484
 9218TIP3   OH249068   2.646   0.752  13.681  0.1534  0.2007 -0.7444
 9218TIP3    H149069   2.615   0.814  13.614  0.2070 -1.1220 -2.0096
 9218TIP3    H249070   2.661   0.807  13.758  1.6424  2.0096 -2.2721
 9219TIP3   OH249071   0.776   3.443   5.148  0.6099 -0.0186  0.1564
 9219TIP3    H149072   0.701   3.408   5.195  0.2099 -0.0822 -0.5222
 9219TIP3    H249073   0.786   3.386   5.071  1.2535  0.0802  0.1586
 9220TIP3   OH249074   5.042   3.724   0.366 -0.2835 -0.1223 -1.0095
 9220TIP3    H149075   5.091   3.806   0.373 -1.4963  0.5136  0.3768
 9220TIP3    H249076   5.018   3.703   0.456 -2.3682 -0.5224 -1.6202
 9221TIP3   OH249077   2.528   1.211   1.118 -0.4099 -0.4436  0.0466
 9221TIP3    H149078   2.529   1.118   1.096  0.2306 -0.1599 -1.1596
 9221TIP3    H249079   2.619   1.231   1.139 -0.5047 -0.0293  0.0667
 9222TIP3   OH249080   1.237   2.481  14.072 -0.2489 -0.6051 -0.2253
 9222TIP3    H149081   1.316   2.459  14.121 -0.5786  0.1965  0.6975
 9222TIP3    H249082   1.230   2.413  14.005  2.3359  0.4627 -1.6521
 9223TIP3   OH249083   2.315   3.354  15.175 -0.0276  0.4716  0.2989
 9223TIP3    H149084   2.355   3.292  15.236  0.3877  1.5544  1.1463
 9223TIP3    H249085   2.280   3.299  15.105 -0.1010 -0.7553  1.2711
 9224TIP3   OH249086   1.670   2.000  14.596  0.4179  0.3010 -0.5350
 9224TIP3    H149087   1.752   1.999  14.645 -0.7140  1.4309  1.4323
 9224TIP3    H249088   1.665   1.913  14.556  1.9701 -0.1946  0.3071
 9225TIP3   OH249089   5.589   2.991   1.780 -0.0278  0.4311 -0.1266
 9225TIP3    H149090   5.535   2.932   1.727 -0.6082  1.9538 -1.2602
 9225TIP3    H249091   5.678   2.957   1.770 -0.6511 -1.6659  1.1608
 9226TIP3   OH249092   0.851   4.707   3.531  0.0734  0.3755  0.2071
 9226TIP3    H149093   0.945   4.718   3.517 -0.1107  1.2104 -0.4346
 9226TIP3    H249094   0.835   4.614   3.514  0.9359  0.0314  1.2454
 9227TIP3   OH249095   5.222   4.676   2.997 -0.0983 -0.3486  0.5011
 9227TIP3    H149096   5.273   4.695   2.918  0.4202 -0.4675  0.8081
 9227TIP3    H249097   5.171   4.598   2.974  0.5420 -0.7735  0.5013
 9228TIP3   OH249098   1.063   0.430   4.523 -0.0307  0.3161 -0.3664
 9228TIP3    H149099   1.117   0.508   4.528 -0.2691  0.6305 -2.1184
 9228TIP3    H249100   1.125   0.357   4.521  0.1932  0.4597  1.1980
 9229TIP3   OH249101   1.778   4.198  13.098 -0.0455  0.2084  0.4918
 9229TIP3    H149102   1.693   4.241  13.107 -0.3591 -0.6704  1.9698
 9229TIP3    H249103   1.818   4.204  13.185  0.5823 -1.0668  0.3135
 9230TIP3   OH249104   4.568   0.148   4.264  0.1369  0.1531 -0.6938
 9230TIP3    H149105   4.620   0.134   4.343  0.4154  0.4141 -0.8290
 9230TIP3    H249106   4.568   0.243   4.252 -0.8450  0.1958 -0.3790
 9231TIP3   OH249107   3.666   1.747  12.391  0.0079 -0.6121 -0.3588
 9231TIP3    H149108   3.734   1.812  12.407  0.3942 -0.8988 -0.8038
 9231TIP3    H249109   3.607   1.754  12.466  1.6699 -1.7896  1.0893
 9232TIP3   OH249110   5.162   5.609   5.834 -0.6486  0.3032  0.6088
 9232TIP3    H149111   5.092   5.666   5.802  0.3689  0.9183 -0.5517
 9232TIP3    H249112   5.155   5.531   5.779  0.3948  0.9036 -0.3914
 9233TIP3   OH249113   5.289   2.421   0.579 -0.3098 -0.2142 -0.1128
 9233TIP3    H149114   5.360   2.358   0.595  1.7691  1.4564 -2.3681
 9233TIP3    H249115   5.224   2.372   0.529  1.5962 -0.4585 -2.4353
 9234TIP3   OH249116   5.955   3.705  17.091  0.0788  0.0181 -0.1188
 9234TIP3    H149117   6.004   3.748  17.160  2.4439  0.1821 -1.8559
 9234TIP3    H249118   5.974   3.612  17.102 -1.7131 -0.2359  1.0727
 9235TIP3   OH249119   5.914   6.683  13.376  0.4046  0.0195 -0.6382
 9235TIP3    H149120   5.867   6.606  13.408  2.3249 -1.5576 -1.4570
 9235TIP3    H249121   5.900   6.681  13.281  2.8770 -1.0750 -1.0323
 9236TIP3   OH249122   4.868   6.109  15.222 -0.1412  0.1973  0.2869
 9236TIP3    H149123   4.904   6.116  15.134 -2.0775 -0.1994 -0.5643
 9236TIP3    H249124   4.944   6.105  15.279  1.1576 -0.6143 -1.4571
 9237TIP3   OH249125   4.162   1.229  13.953 -0.0951 -0.4174 -0.0558
 9237TIP3    H149126   4.201   1.316  13.962 -2.1479  0.4766  0.3848
 9237TIP3    H249127   4.115   1.232  13.870 -2.2346 -0.2491  1.1252
 9238TIP3   OH249128   3.371   3.144  13.736  0.0290  0.7611  0.6476
 9238TIP3    H149129   3.456   3.187  13.742  0.4301 -0.2858  2.9835
 9238TIP3    H249130   3.336   3.146  13.825 -1.6848 -0.2173  0.0239
 9239TIP3   OH249131   3.503   4.669  16.256  0.8855 -0.0816 -0.1793
 9239TIP3    H149132   3.433   4.609  16.231  0.1386 -0.7765  3.3242
 9239TIP3    H249133   3.472   4.755  16.228 -0.8812 -0.5350  0.3211
 9240TIP3   OH249134   0.788   6.342   0.773  0.2021  0.0064  0.7151
 9240TIP3    H149135   0.748   6.332   0.687 -0.0567  1.4001  0.6698
 9240TIP3    H249136   0.753   6.270   0.825  0.4036 -0.8743 -0.3557
 9241TIP3   OH249137   5.172   6.148   3.431  0.4439  0.1034  0.4868
 9241TIP3    H149138   5.244   6.122   3.374  1.3033  2.0200  0.6332
 9241TIP3    H249139   5.185   6.242   3.444 -3.1046  0.8450 -0.9019
 9242TIP3   OH249140   6.057   2.849  16.451  0.2579  0.1174  0.1903
 9242TIP3    H149141   6.045   2.821  16.361 -2.7749  0.7475  0.3575
 9242TIP3    H249142   6.043   2.944  16.449  1.8831  0.3931  1.0561
 9243TIP3   OH249143   4.821   0.828  10.470  0.4885 -0.4776  0.2940
 9243TIP3    H149144   4.807   0.845  10.563 -2.3615  1.4479 -0.4244
 9243TIP3    H249145   4.850   0.912  10.434 -0.3092 -0.6965 -0.8797
 9244TIP3   OH249146   6.324   3.575   1.395 -0.3399 -0.2297  0.4748
 9244TIP3    H149147   6.356   3.488   1.419  0.1683 -0.2601 -0.2853
 9244TIP3    H249148   6.340   3.581   1.300 -0.3531  0.6999  0.5253
 9245TIP3   OH249149   4.609   0.318   0.098 -0.3018  0.1397 -0.4644
 9245TIP3    H149150   4.674   0.247   0.097  0.2596  0.6497 -2.4572
 9245TIP3    H249151   4.525   0.273   0.094 -0.0093 -0.4754  0.1871
 9246TIP3   OH249152   2.667   2.267  12.580  0.3959  0.2981 -0.5836
 9246TIP3    H149153   2.615   2.326  12.524 -0.6270 -0.1188 -0.0810
 9246TIP3    H249154   2.681   2.189  12.527  2.7401  1.3990 -1.6899
 9247TIP3   OH249155   1.295   2.670  11.282 -0.2506  0.6443 -0.0411
 9247TIP3    H149156   1.219   2.707  11.328 -0.3237 -2.6030  2.6198
 9247TIP3    H249157   1.365   2.733  11.299 -1.7000  2.4370 -0.4359
 9248TIP3   OH249158   0.575   4.219  10.624 -0.0484  0.1671 -0.1015
 9248TIP3    H149159   0.484   4.189  10.620 -0.1719  0.3588  1.0453
 9248TIP3    H249160   0.625   4.141  10.650 -0.0069  0.2777  0.1538
 9249TIP3   OH249161   6.778   4.955   6.074  0.0897 -0.1078 -0.0339
 9249TIP3    H149162   6.766   4.915   6.160  0.5338  0.5793  0.3512
 9249TIP3    H249163   6.872   4.948   6.057  0.0679  0.1694 -0.2643
 9250TIP3   OH249164   5.667   2.966   2.052 -0.2333 -0.6000  0.2776
 9250TIP3    H149165   5.630   2.974   1.965 -0.3096  0.0507  0.3682
 9250TIP3    H249166   5.598   2.926   2.104 -0.6676  0.2269  0.3494
 9251TIP3   OH249167   4.403   1.753   3.721 -0.8373 -0.3233  0.5696
 9251TIP3    H149168   4.313   1.759   3.690 -0.4639  1.2990 -0.2927
 9251TIP3    H249169   4.397   1.706   3.804 -2.4084 -0.7290  0.2403
 9252TIP3   OH249170   2.793   6.516   1.124 -0.8824  0.4283  0.3788
 9252TIP3    H149171   2.759   6.552   1.206 -0.5194 -0.9028  1.1306
 9252TIP3    H249172   2.888   6.513   1.137 -0.8724 -0.3311  0.1372
 9253TIP3   OH249173   3.785   6.351   4.915  0.3711 -0.0457  0.3879
 9253TIP3    H149174   3.867   6.397   4.898  0.6515  0.0240  1.8650
 9253TIP3    H249175   3.732   6.414   4.965  0.2829 -0.8892  1.3631
 9254TIP3   OH249176   5.576   4.018  12.480 -0.1706 -0.6949  0.6506
 9254TIP3    H149177   5.665   4.024  12.445 -0.2743 -1.4617  0.2460
 9254TIP3    H249178   5.520   4.045  12.407 -0.4082 -2.6781  0.0701
 9255TIP3   OH249179   5.792   2.252   3.208  0.5395 -0.5099  0.0593
 9255TIP3    H149180   5.843   2.332   3.194 -1.2172  0.6062 -0.0441
 9255TIP3    H249181   5.826   2.217   3.291  1.2969  0.3603  0.1319
 9256TIP3   OH249182   4.166   2.676  14.014 -0.2903 -0.5930  0.1957
 9256TIP3    H149183   4.149   2.723  14.096 -0.0445 -1.4220  0.7378
 9256TIP3    H249184   4.184   2.744  13.950 -0.5776  0.0763  0.8113
 9257TIP3   OH249185   0.710   0.340   2.610 -0.3736 -0.0322  0.0458
 9257TIP3    H149186   0.805   0.343   2.601 -0.1216 -2.5054  1.2759
 9257TIP3    H249187   0.695   0.286   2.688 -2.7339  3.1835  1.9361
 9258TIP3   OH249188   5.938   2.815   3.578  0.4552 -0.2646  0.0914
 9258TIP3    H149189   5.893   2.892   3.610  1.1798  0.1892  0.0366
 9258TIP3    H249190   5.875   2.744   3.589 -0.6752  0.5365 -1.0088
 9259TIP3   OH249191   4.368   5.256  13.727  0.1611 -0.1976 -0.4868
 9259TIP3    H149192   4.403   5.192  13.665  1.0394  0.4999 -0.7164
 9259TIP3    H249193   4.432   5.327  13.727  0.4480 -0.4175  1.6009
 9260TIP3   OH249194   2.584   2.224   1.171  0.2524  0.1882 -0.2275
 9260TIP3    H149195   2.574   2.193   1.081  3.7886 -1.9484  0.0312
 9260TIP3    H249196   2.648   2.294   1.166  0.0262  0.4683  0.5752
 9261TIP3   OH249197   2.157   0.456  13.257  0.2408 -0.3545 -0.7436
 9261TIP3    H149198   2.079   0.401  13.260  0.5727 -0.8279 -0.4997
 9261TIP3    H249199   2.208   0.421  13.183  0.5247 -0.4804 -0.4923
 9262TIP3   OH249200   5.177   6.050   1.026  0.0671 -0.6897  0.4970
 9262TIP3    H149201   5.152   6.126   0.973  0.6564 -1.4797 -0.9480
 9262TIP3    H249202   5.160   5.975   0.969  0.4240 -1.5766  1.5527
 9263TIP3   OH249203   6.339   0.454   5.581 -0.4360 -0.1177 -0.9501
 9263TIP3    H149204   6.267   0.465   5.642 -0.3022  0.9521 -0.9728
 9263TIP3    H249205   6.344   0.538   5.534  1.6001  0.2765 -0.0827
 9264TIP3   OH249206   1.814   6.311  13.418  0.2797 -0.2253  0.2809
 9264TIP3    H149207   1.842   6.340  13.504  0.6077  0.2554  0.0117
 9264TIP3    H249208   1.803   6.392  13.367  1.2831 -0.5622 -0.4926
 9265TIP3   OH249209   6.628   6.550  16.933 -0.3751  0.0682 -0.1168
 9265TIP3    H149210   6.582   6.469  16.954 -0.8932  0.1127 -1.0541
 9265TIP3    H249211   6.698   6.524  16.874 -0.8980  0.3726 -0.8826
 9266TIP3   OH249212   6.379   6.462   2.343  0.6741 -0.0968 -0.3866
 9266TIP3    H149213   6.336   6.379   2.360  1.7280 -0.7584 -0.8960
 9266TIP3    H249214   6.460   6.459   2.395 -0.2099  1.4182  1.1173
 9267TIP3   OH249215   2.542   2.945  17.228 -0.4901 -0.0838  0.2634
 9267TIP3    H149216   2.573   2.855  17.219 -0.2364  0.0065  0.2316
 9267TIP3    H249217   2.483   2.957  17.153  1.8228  0.7437 -1.4864
 9268TIP3   OH249218   6.611   2.618   2.030 -0.7568 -0.1361 -0.1577
 9268TIP3    H149219   6.559   2.694   2.005 -2.1087 -1.2974 -0.9652
 9268TIP3    H249220   6.573   2.590   2.114 -0.3794 -0.0166  0.0516
 9269TIP3   OH249221   1.930   3.080   3.477 -0.6839 -0.2437  0.1100
 9269TIP3    H149222   1.885   3.112   3.555 -0.3309 -1.0679  0.6566
 9269TIP3    H249223   1.923   2.985   3.482 -1.9092 -0.2648 -1.6194
 9270TIP3   OH249224   4.589   5.280  12.820 -0.3105 -0.5830  0.9124
 9270TIP3    H149225   4.551   5.340  12.755  1.1561  0.4976  1.0220
 9270TIP3    H249226   4.556   5.194  12.795 -1.0961  0.0419 -0.2805
 9271TIP3   OH249227   0.562   2.055   3.001 -0.4254  0.1246  0.2087
 9271TIP3    H149228   0.592   2.073   2.912  0.2853  0.7351  0.5632
 9271TIP3    H249229   0.501   2.127   3.020  0.4535  0.7483  0.6971
 9272TIP3   OH249230   2.493   1.317  13.294 -0.2133  0.3671  0.3060
 9272TIP3    H149231   2.519   1.333  13.385 -1.7583  0.7953  0.6988
 9272TIP3    H249232   2.440   1.237  13.298  0.5651 -0.1892 -0.3811
 9273TIP3   OH249233   3.601   6.077   2.559 -0.0897  0.2818  0.4804
 9273TIP3    H149234   3.592   6.065   2.465  0.5622 -1.2325  0.5956
 9273TIP3    H249235   3.513   6.099   2.589 -0.2504  1.0251 -0.5035
 9274TIP3   OH249236   3.742   5.243   0.295 -0.2686 -0.1222  0.5583
 9274TIP3    H149237   3.745   5.263   0.201  1.2291 -2.0398  0.1808
 9274TIP3    H249238   3.652   5.264   0.321 -0.3912  1.4815 -1.0460
 9275TIP3   OH249239   3.664   5.288  12.205 -0.0693  0.5952 -0.0238
 9275TIP3    H149240   3.746   5.295  12.254  0.2565 -2.3809 -0.0174
 9275TIP3    H249241   3.691   5.292  12.113 -0.0924  0.9894 -0.0158
 9276TIP3   OH249242   1.446   2.515  10.440  0.4416 -0.0605 -0.0350
 9276TIP3    H149243   1.529   2.563  10.434  0.8134 -0.7795 -0.7055
 9276TIP3    H249244   1.386   2.576  10.482  0.6941  1.2846 -1.5738
 9277TIP3   OH249245   0.062   2.328  15.530 -0.4391 -0.3534 -0.0140
 9277TIP3    H149246   0.120   2.315  15.605 -0.9928 -1.9182  0.1740
 9277TIP3    H249247  -0.021   2.357  15.569 -1.4060 -3.2599  0.2200
 9278TIP3   OH249248   1.253   1.419  16.704  0.0003  0.3427 -0.1276
 9278TIP3    H149249   1.228   1.484  16.638  0.5600 -0.1129 -0.7978
 9278TIP3    H249250   1.224   1.336  16.667 -1.3715  0.2678  1.0472
 9279TIP3   OH249251   6.580   1.465  15.756  0.1609 -0.6789  0.7879
 9279TIP3    H149252   6.672   1.451  15.776  0.4335  2.5957  2.2904
 9279TIP3    H249253   6.579   1.493  15.664  0.8672  0.5575  1.1362
 9280TIP3   OH249254   5.659   2.906   1.381 -0.8168  0.4488 -0.0265
 9280TIP3    H149255   5.590   2.878   1.440 -1.5326  0.0210 -1.0561
 9280TIP3    H249256   5.626   2.988   1.343 -0.5104  0.5433 -0.0926
 9281TIP3   OH249257   5.994   0.038  14.683 -0.2097  0.5241  0.1500
 9281TIP3    H149258   5.994  -0.030  14.751  2.2056 -0.0253 -0.3391
 9281TIP3    H249259   5.987  -0.011  14.601  1.7566  0.8012 -0.2166
 9282TIP3   OH249260   1.994   0.643   3.351 -0.2400  0.2214 -0.0673
 9282TIP3    H149261   2.062   0.645   3.284  1.0186 -0.4002  1.1537
 9282TIP3    H249262   2.012   0.563   3.401 -1.6679  0.2246  0.4751
 9283TIP3   OH249263   4.798   5.773  12.485  0.1947  0.5719 -0.0822
 9283TIP3    H149264   4.833   5.858  12.457 -0.3011  1.6266  2.3904
 9283TIP3    H249265   4.800   5.776  12.580 -0.9709 -1.7467  0.0572
 9284TIP3   OH249266   6.547   0.253   5.988  0.4454  0.2233  0.2282
 9284TIP3    H149267   6.612   0.284   6.052 -1.1600  0.6202  1.6958
 9284TIP3    H249268   6.538   0.160   6.008 -0.1687  0.3797  0.6698
 9285TIP3   OH249269   1.537   0.743  16.142 -0.0943  0.1920  0.1281
 9285TIP3    H149270   1.560   0.741  16.234  0.6060 -1.0398 -0.0682
 9285TIP3    H249271   1.462   0.684  16.134 -0.0721  0.1971 -0.1210
 9286TIP3   OH249272   5.406   6.036   3.328  0.1878  0.2881 -0.2249
 9286TIP3    H149273   5.463   6.099   3.371  0.6779 -0.4950  0.2777
 9286TIP3    H249274   5.465   5.969   3.293 -0.1990  0.8530 -2.0395
 9287TIP3   OH249275   3.500   5.002   1.111  0.1630 -0.2781  0.3206
 9287TIP3    H149276   3.496   4.913   1.077 -1.4510 -0.0724 -0.0844
 9287TIP3    H249277   3.542   5.053   1.041  0.2128 -0.5444  0.1586
 9288TIP3   OH249278   0.781   3.227   5.612 -0.3128 -0.0932  0.0647
 9288TIP3    H149279   0.750   3.244   5.523  0.9054  1.3928 -0.1005
 9288TIP3    H249280   0.808   3.135   5.611 -0.6411 -0.1841 -0.9890
 9289TIP3   OH249281   6.500   3.620  16.006  0.6782 -0.0211  1.1020
 9289TIP3    H149282   6.592   3.618  16.030  1.2638 -1.0021 -1.1264
 9289TIP3    H249283   6.494   3.683  15.935 -0.2770 -0.3662  0.8624
 9290TIP3   OH249284   1.247   2.654   1.727  0.1001 -0.0238 -0.0599
 9290TIP3    H149285   1.261   2.592   1.799  0.2989  0.8232  0.6486
 9290TIP3    H249286   1.153   2.670   1.726  0.3745  1.9358  1.7185
 9291TIP3   OH249287   4.891   6.502  16.742 -0.0977  0.3745  0.8779
 9291TIP3    H149288   4.847   6.581  16.774 -0.7646 -0.2323  1.4670
 9291TIP3    H249289   4.850   6.430  16.790  0.5303 -0.3332  0.3703
 9292TIP3   OH249290   4.588   2.770   4.674  0.0443  0.4905  0.0714
 9292TIP3    H149291   4.508   2.717   4.672  0.5266 -0.3627  2.0355
 9292TIP3    H249292   4.592   2.811   4.588 -1.1753 -1.4512 -0.9519
 9293TIP3   OH249293   3.125   4.775  11.623 -0.2663  0.3361  0.4145
 9293TIP3    H149294   3.082   4.860  11.618  0.4152  0.6664  0.2083
 9293TIP3    H249295   3.218   4.794  11.619 -0.0714 -0.3409  1.3849
 9294TIP3   OH249296   2.133   4.535   3.733  0.1701  0.3887 -0.4731
 9294TIP3    H149297   2.044   4.502   3.746  0.1689  0.2777 -0.7587
 9294TIP3    H249298   2.128   4.586   3.652  0.4822 -0.0360 -0.7618
 9295TIP3   OH249299   0.522   4.626  12.439  0.3941 -0.1748 -0.1012
 9295TIP3    H149300   0.592   4.662  12.385  0.9368  0.4985  1.0398
 9295TIP3    H249301   0.520   4.533  12.417  1.7203 -0.2181 -0.0560
 9296TIP3   OH249302   4.502   4.714  14.568 -0.3674 -0.1324  0.0941
 9296TIP3    H149303   4.455   4.772  14.508 -0.7711 -0.7180 -0.1681
 9296TIP3    H249304   4.510   4.764  14.649  1.5435  1.2654 -0.9288
 9297TIP3   OH249305   3.350   2.802   2.702  0.2016  0.7815 -0.3299
 9297TIP3    H149306   3.391   2.805   2.616  1.3377  1.3083  0.2237
 9297TIP3    H249307   3.375   2.717   2.737 -0.3615  0.5181 -0.5754
 9298TIP3   OH249308   6.195   2.515   3.311 -0.6851  0.3402  0.1742
 9298TIP3    H149309   6.258   2.542   3.244 -0.1227  0.4138  0.7259
 9298TIP3    H249310   6.139   2.451   3.267  1.1891 -1.4417  0.2969
 9299TIP3   OH249311   1.428   2.753   2.650  0.5633  0.1190  0.2733
 9299TIP3    H149312   1.402   2.663   2.670 -1.4303  1.0968  2.3505
 9299TIP3    H249313   1.427   2.757   2.555 -0.4790 -1.7362  0.1729
 9300TIP3   OH249314   6.045   0.652  16.320  0.0112 -0.2128  0.2454
 9300TIP3    H149315   6.083   0.733  16.284  1.9025  0.4479  3.4004
 9300TIP3    H249316   5.971   0.682  16.372  1.8777 -0.1877  3.0119
 9301TIP3   OH249317   4.335   2.071   5.649  0.1372  0.6252  0.0989
 9301TIP3    H149318   4.327   2.165   5.634 -0.2131  0.5862  0.0415
 9301TIP3    H249319   4.429   2.055   5.651  0.3237  1.5783  3.7127
 9302TIP3   OH249320   0.881   4.490  11.014  0.0220  0.0499 -0.2590
 9302TIP3    H149321   0.967   4.486  10.972  0.7012  1.5692  0.9463
 9302TIP3    H249322   0.845   4.574  10.987 -0.5830 -0.0535  0.2153
 9303TIP3   OH249323   2.182   1.766   5.529  0.4712  0.0835 -0.6413
 9303TIP3    H149324   2.191   1.673   5.506  1.9124  0.5377 -1.9469
 9303TIP3    H249325   2.093   1.772   5.564 -0.3135 -1.4601 -2.2310
 9304TIP3   OH249326   0.111   3.757   2.827 -0.1448 -0.1532  0.2394
 9304TIP3    H149327   0.102   3.789   2.738  2.1542  1.0104  0.3753
 9304TIP3    H249328   0.204   3.739   2.837 -0.4468 -0.7981  2.2265
 9305TIP3   OH249329   0.361   2.854   2.052  0.1426 -0.0757  0.0873
 9305TIP3    H149330   0.347   2.859   2.146 -0.9179  0.9143 -0.1108
 9305TIP3    H249331   0.347   2.943   2.020  0.1960 -0.4593 -1.0483
 9306TIP3   OH249332   5.154   3.318   6.495 -0.1938 -0.2595  0.1669
 9306TIP3    H149333   5.185   3.256   6.429 -0.9173 -0.0725 -0.3524
 9306TIP3    H249334   5.131   3.397   6.446 -0.0055  0.1608  0.7353
 9307TIP3   OH249335   1.818   4.035  16.059 -0.2422  0.3379 -0.6257
 9307TIP3    H149336   1.877   4.099  16.100 -2.8207  1.0947  2.1255
 9307TIP3    H249337   1.859   3.950  16.074  1.0888  0.9948 -0.4935
 9308TIP3   OH249338   2.935   1.678   2.002  0.1610 -0.0430 -0.0078
 9308TIP3    H149339   2.899   1.600   2.044  2.1106 -0.2551  1.3250
 9308TIP3    H249340   3.007   1.645   1.948 -0.3902  0.5871 -1.1350
 9309TIP3   OH249341   0.844   6.158   5.532 -0.1015 -0.4118 -0.9653
 9309TIP3    H149342   0.935   6.188   5.541  0.0439 -0.6189 -1.6737
 9309TIP3    H249343   0.827   6.108   5.612 -0.1303  1.0055 -0.0799
 9310TIP3   OH249344   0.994   0.467   0.539  0.4367  0.3449 -0.0208
 9310TIP3    H149345   0.947   0.529   0.484  0.9438 -0.1951 -1.0846
 9310TIP3    H249346   0.972   0.493   0.628 -1.4850  0.4235 -0.4764
 9311TIP3   OH249347   5.511   5.188  15.378 -0.3567 -0.3817 -0.1817
 9311TIP3    H149348   5.504   5.283  15.371  0.7111 -0.3195 -0.4671
 9311TIP3    H249349   5.478   5.168  15.465 -1.8221  0.1148 -0.6016
 9312TIP3   OH249350   3.342   0.222  13.356 -0.8609  0.1746 -0.1618
 9312TIP3    H149351   3.259   0.205  13.400  0.8424 -0.4094  2.9983
 9312TIP3    H249352   3.371   0.136  13.325 -0.1765 -0.0539  1.0977
 9313TIP3   OH249353   4.258   1.625  12.599 -0.0874  0.2366 -0.1984
 9313TIP3    H149354   4.177   1.595  12.641 -0.0180  0.9892  0.4912
 9313TIP3    H249355   4.313   1.547  12.593  0.2330  0.2704  1.9045
 9314TIP3   OH249356   2.414   6.103   3.905  0.0490  0.5769  0.0935
 9314TIP3    H149357   2.452   6.152   3.978  0.5461 -0.2709  0.4177
 9314TIP3    H249358   2.485   6.045   3.877 -0.2964  0.5651 -0.7558
 9315TIP3   OH249359   2.478   6.423  13.520  0.1973 -0.1825  0.1198
 9315TIP3    H149360   2.418   6.414  13.595  0.0395 -0.1682 -0.0063
 9315TIP3    H249361   2.472   6.339  13.475  0.4069 -0.2454  0.2068
 9316TIP3   OH249362   3.328   0.155  16.808  0.3628  0.2119  0.5147
 9316TIP3    H149363   3.282   0.125  16.886 -1.8396  1.7142 -0.1548
 9316TIP3    H249364   3.387   0.223  16.839  1.5300 -1.1248  1.2614
 9317TIP3   OH249365   3.994   0.522   1.102  0.7797  0.0203  0.7172
 9317TIP3    H149366   4.055   0.596   1.107 -0.2461  0.9097  0.4292
 9317TIP3    H249367   3.951   0.521   1.188  0.8388 -0.2842  0.7429
 9318TIP3   OH249368   0.157   2.895   5.614 -0.3400 -0.2625 -0.0014
 9318TIP3    H149369   0.175   2.896   5.708 -1.8389  0.5025  0.2954
 9318TIP3    H249370   0.231   2.942   5.575 -0.1606  0.1923  0.8730
 9319TIP3   OH249371   0.851   6.634  16.693 -1.2624 -0.3223 -0.1948
 9319TIP3    H149372   0.885   6.561  16.744  2.1226  1.8243  0.8127
 9319TIP3    H249373   0.786   6.675  16.751 -1.6389 -1.2923  0.0760
 9320TIP3   OH249374   5.553   6.042   0.187  0.5870 -0.3826 -0.3126
 9320TIP3    H149375   5.492   6.001   0.248 -0.5564  1.0779 -0.4428
 9320TIP3    H249376   5.579   5.971   0.128 -0.9515 -1.0419 -0.2219
 9321TIP3   OH249377   0.773   5.003  11.940  0.1419 -0.8666  0.1828
 9321TIP3    H149378   0.796   5.068  12.007 -0.5001 -1.9443  1.4682
 9321TIP3    H249379   0.784   4.919  11.984 -0.0341 -1.5956 -1.1618
 9322TIP3   OH249380   1.460   6.625   2.072  0.2304 -0.3711  0.3238
 9322TIP3    H149381   1.490   6.715   2.087  2.6127 -1.2236  0.8798
 9322TIP3    H249382   1.534   6.571   2.099 -0.4799 -2.4423 -1.7559
 9323TIP3   OH249383   0.949   4.068  14.519  0.0165 -0.7206  0.6061
 9323TIP3    H149384   0.879   4.092  14.457 -0.4190 -2.4245  0.4071
 9323TIP3    H249385   0.990   4.151  14.542  0.1981 -0.0515 -2.0021
 9324TIP3   OH249386   2.945   2.837   2.366 -0.3444  0.1424 -0.2578
 9324TIP3    H149387   2.945   2.746   2.337 -1.8569  0.1455 -0.2735
 9324TIP3    H249388   2.853   2.860   2.376  0.0133  1.6997 -0.3276
 9325TIP3   OH249389   3.753   1.526  10.607 -0.9655 -0.3208 -0.5345
 9325TIP3    H149390   3.685   1.589  10.632 -1.1980 -0.3619 -1.0679
 9325TIP3    H249391   3.720   1.485  10.527 -0.5871 -0.7685 -0.4632
 9326TIP3   OH249392   2.161   1.552  14.000  0.3463  0.2572  0.7200
 9326TIP3    H149393   2.224   1.535  14.070  1.3693 -1.6579 -0.6188
 9326TIP3    H249394   2.140   1.645  14.009 -0.2895 -0.1404  4.1502
 9327TIP3   OH249395   4.591   2.797   3.320  0.4172 -0.3602 -0.0836
 9327TIP3    H149396   4.663   2.858   3.304  0.2110 -0.2181 -0.4776
 9327TIP3    H249397   4.537   2.803   3.242 -0.0124 -0.4828  0.2024
 9328TIP3   OH249398   2.859   2.915  15.466 -0.3561  0.0370  0.3711
 9328TIP3    H149399   2.943   2.916  15.420 -0.3346  0.7599  0.4211
 9328TIP3    H249400   2.881   2.941  15.556 -0.8747  1.9325 -0.0309
 9329TIP3   OH249401   5.068   2.590   5.717 -0.3606 -0.1650 -0.1420
 9329TIP3    H149402   5.069   2.523   5.649 -0.3648  1.4538 -1.7790
 9329TIP3    H249403   4.983   2.578   5.761 -0.2948 -1.3230 -0.3088
 9330TIP3   OH249404   4.721   0.568   5.072 -0.3034 -0.0157  0.3561
 9330TIP3    H149405   4.774   0.577   5.151  1.3040  0.6491 -0.7943
 9330TIP3    H249406   4.763   0.624   5.008 -1.6996 -0.4242 -0.9373
 9331TIP3   OH249407   3.401   1.847   3.085  0.2401  0.1941  0.5629
 9331TIP3    H149408   3.471   1.895   3.128  0.6981 -0.0903  0.1458
 9331TIP3    H249409   3.321   1.895   3.107  0.6868  1.1446  0.1466
 9332TIP3   OH249410   1.516   5.293   2.127 -0.4457  0.0911  0.0043
 9332TIP3    H149411   1.521   5.211   2.175 -0.7326  0.9412  1.5482
 9332TIP3    H249412   1.434   5.288   2.078 -0.1906 -0.7621 -0.3270
 9333TIP3   OH249413   5.132   6.773   4.063  0.2071  0.0352  0.0036
 9333TIP3    H149414   5.127   6.820   3.980  1.7902  0.2727  0.0260
 9333TIP3    H249415   5.041   6.770   4.094 -0.0840  2.1672 -0.5031
 9334TIP3   OH249416   5.937   0.211  13.135 -0.6650  0.3089 -0.9061
 9334TIP3    H149417   6.006   0.243  13.193 -1.1328 -2.0823  1.0416
 9334TIP3    H249418   5.973   0.221  13.047  1.5737  0.4570  0.0044
 9335TIP3   OH249419   1.969   2.515  15.493 -0.2071 -0.2804  0.8543
 9335TIP3    H149420   1.876   2.495  15.504 -0.4759  0.4441 -0.0593
 9335TIP3    H249421   2.011   2.429  15.484 -0.9282 -0.5570  0.1439
 9336TIP3   OH249422   4.147   5.858   1.129 -0.1198 -0.5175 -0.5141
 9336TIP3    H149423   4.241   5.842   1.114  0.1609  1.6467 -1.2551
 9336TIP3    H249424   4.134   5.840   1.222  1.0899 -0.5445 -0.3367
 9337TIP3   OH249425   4.477   4.845  15.250 -0.0246  0.3501  0.1422
 9337TIP3    H149426   4.468   4.764  15.201 -0.5888  1.3581 -1.4383
 9337TIP3    H249427   4.394   4.854  15.298  0.6614 -0.8102  1.6076
 9338TIP3   OH249428   4.452   4.395  14.731 -0.1928 -0.2395 -0.0229
 9338TIP3    H149429   4.514   4.399  14.658 -0.1850 -0.1398 -0.0125
 9338TIP3    H249430   4.432   4.487  14.750  1.8838 -0.1162  1.8574
 9339TIP3   OH249431   4.177   6.137  16.809  0.3159 -0.1160 -0.0428
 9339TIP3    H149432   4.091   6.145  16.769  0.6325  0.9561 -0.5175
 9339TIP3    H249433   4.239   6.158  16.739  0.8663  2.0484  1.0328
 9340TIP3   OH249434   0.060   6.733   3.877 -0.3496  0.3325  0.4536
 9340TIP3    H149435   0.108   6.812   3.899 -0.8375  0.6233  0.4907
 9340TIP3    H249436   0.123   6.679   3.829 -0.1879  0.9978 -0.1007
 9341TIP3   OH249437   1.860   3.241   2.973 -0.0431 -0.2192  0.4899
 9341TIP3    H149438   1.852   3.334   2.993  0.4348  0.3804 -2.0322
 9341TIP3    H249439   1.770   3.208   2.976 -0.4797  0.8046 -0.8387
 9342TIP3   OH249440   0.575   5.638  11.261  0.1286 -0.6254  0.9591
 9342TIP3    H149441   0.641   5.603  11.200  1.1790 -0.6705  2.0961
 9342TIP3    H249442   0.523   5.562  11.286 -0.1724 -0.6444  0.2922
 9343TIP3   OH249443   5.522   0.438  13.675  0.2772 -0.5658 -0.0667
 9343TIP3    H149444   5.454   0.420  13.609  0.2809 -1.5731  0.1934
 9343TIP3    H249445   5.524   0.533  13.681 -2.1971 -0.5372  1.0478
 9344TIP3   OH249446   3.059   6.375   2.465  0.4252  0.0041  0.3089
 9344TIP3    H149447   3.148   6.374   2.431  1.0192 -1.1202  1.8256
 9344TIP3    H249448   3.023   6.290   2.440  0.8412 -0.7998  2.3331
 9345TIP3   OH249449   1.036   3.217  14.867  0.0830 -0.0246 -0.3933
 9345TIP3    H149450   1.105   3.274  14.833  0.5721 -0.3502  0.0620
 9345TIP3    H249451   0.979   3.276  14.916  1.6587 -0.2332  1.7399
 9346TIP3   OH249452   1.260   4.661  13.771  0.0652  0.2410 -0.3589
 9346TIP3    H149453   1.324   4.704  13.828 -1.4653  1.4074  0.5256
 9346TIP3    H249454   1.252   4.573  13.807  1.5837 -0.1179 -0.8382
 9347TIP3   OH249455   3.411   5.724  12.338 -0.0817 -0.6708 -0.3368
 9347TIP3    H149456   3.439   5.689  12.422  0.7616  0.9131  0.0636
 9347TIP3    H249457   3.354   5.798  12.359  0.3714 -0.0731 -1.1213
 9348TIP3   OH249458   3.730   2.296  15.582 -0.5183 -0.4863 -0.0634
 9348TIP3    H149459   3.691   2.383  15.573  0.2111  0.1873  2.7882
 9348TIP3    H249460   3.802   2.308  15.645 -1.8133 -3.5650  2.1214
 9349TIP3   OH249461   1.114   1.572   5.956  0.2560  0.4011  0.1505
 9349TIP3    H149462   1.097   1.592   6.047  0.3245  0.2325  0.2010
 9349TIP3    H249463   1.133   1.478   5.955 -0.8132  0.1897 -0.1968
 9350TIP3   OH249464   0.450   1.332   3.372 -0.5161 -0.1872 -0.6873
 9350TIP3    H149465   0.388   1.299   3.437  0.1472 -1.0211 -0.4716
 9350TIP3    H249466   0.398   1.391   3.317 -0.8331  1.3531  1.2436
 9351TIP3   OH249467   5.384   1.668  11.828  0.3052  0.6871 -0.3616
 9351TIP3    H149468   5.476   1.691  11.820  0.3862  1.3026  1.9428
 9351TIP3    H249469   5.337   1.751  11.822  0.0025  0.5282 -0.2328
 9352TIP3   OH249470   1.464   2.177  17.095  0.2106 -0.3812 -0.3561
 9352TIP3    H149471   1.520   2.205  17.023  0.2211 -1.1457 -0.6567
 9352TIP3    H249472   1.523   2.129  17.154  0.2522  0.4448  0.2845
 9353TIP3   OH249473   5.592   2.713  11.170  0.1688 -0.3434 -0.0838
 9353TIP3    H149474   5.519   2.749  11.121  0.2530 -1.1171 -0.7883
 9353TIP3    H249475   5.592   2.761  11.253 -0.8415 -0.0171 -0.2720
 9354TIP3   OH249476   5.363   2.608  16.693  0.4070  0.0191  0.2436
 9354TIP3    H149477   5.407   2.684  16.730 -0.0851 -0.8462  2.7528
 9354TIP3    H249478   5.416   2.582  16.618  2.6303  0.6180  1.5820
 9355TIP3   OH249479   5.557   2.059   1.930  0.0183 -0.1112  0.0676
 9355TIP3    H149480   5.489   2.075   1.865 -1.5874 -1.5874  1.3306
 9355TIP3    H249481   5.613   1.993   1.890 -0.7064 -0.6881 -0.0110
 9356TIP3   OH249482   4.521   2.976   2.294 -0.5023 -0.1560  0.2351
 9356TIP3    H149483   4.574   2.910   2.339 -1.4428 -0.3445  1.0914
 9356TIP3    H249484   4.456   2.926   2.246  1.8857 -0.0705 -3.2566
 9357TIP3   OH249485   6.469   0.368   5.041 -0.1606  0.4445 -0.2463
 9357TIP3    H149486   6.559   0.344   5.020  0.0690  0.3727  0.7753
 9357TIP3    H249487   6.465   0.462   5.025 -0.1110  0.3219 -0.9920
 9358TIP3   OH249488   0.955   5.024  16.983  0.1057  0.4373  0.9933
 9358TIP3    H149489   0.973   5.041  17.075 -1.2574 -1.3094  1.6081
 9358TIP3    H249490   0.926   4.933  16.980 -0.8636  0.7747 -1.0020
 9359TIP3   OH249491   6.640   4.539  14.110  0.0356 -0.2048 -0.5390
 9359TIP3    H149492   6.580   4.485  14.060 -0.6650  1.1440 -1.1644
 9359TIP3    H249493   6.645   4.496  14.196  0.1725 -1.7376 -1.3087
 9360TIP3   OH249494   5.398   0.262   3.818  0.7919 -0.0034 -0.5661
 9360TIP3    H149495   5.336   0.206   3.772  0.7357  0.1810 -0.7140
 9360TIP3    H249496   5.368   0.351   3.800  0.9828  0.0790 -0.4754
 9361TIP3   OH249497   4.793   1.963   6.213  0.1139 -0.3196 -0.2187
 9361TIP3    H149498   4.854   1.927   6.149  0.5048 -0.4889  0.2517
 9361TIP3    H249499   4.747   1.887   6.248  0.1431 -0.2572 -0.0447
 9362TIP3   OH249500   2.681   1.910  15.095  0.1632  0.3144 -0.2457
 9362TIP3    H149501   2.716   1.996  15.071  3.1849 -0.8208 -0.2368
 9362TIP3    H249502   2.613   1.929  15.160  0.9017  2.6960 -0.0972
 9363TIP3   OH249503   4.759   0.142  11.637  0.5061  0.3028 -0.8594
 9363TIP3    H149504   4.778   0.110  11.549  0.0683  0.6441 -1.0795
 9363TIP3    H249505   4.842   0.133  11.684  0.5993 -0.3953 -1.1450
 9364TIP3   OH249506   0.940   6.135   0.594 -0.4800 -0.0642 -0.2617
 9364TIP3    H149507   0.925   6.208   0.654 -0.5982  0.0699 -0.4527
 9364TIP3    H249508   0.977   6.176   0.516 -0.0394 -0.2737 -0.1646
 9365TIP3   OH249509   1.309   0.086   1.078  0.5279 -0.3372  0.4059
 9365TIP3    H149510   1.348   0.173   1.065 -1.4809  0.2940 -1.6159
 9365TIP3    H249511   1.353   0.030   1.015  1.7396 -0.8115  1.6308
 9366TIP3   OH249512   4.366   4.801  13.001 -0.1723  0.3941  0.4690
 9366TIP3    H149513   4.271   4.802  12.985 -0.6077  0.5911  2.8599
 9366TIP3    H249514   4.382   4.878  13.056  1.4974  0.7021 -0.4088
 9367TIP3   OH249515   4.591   3.515   0.893 -0.3626  0.0246  0.1002
 9367TIP3    H149516   4.510   3.550   0.858 -0.4886 -0.4286 -0.0673
 9367TIP3    H249517   4.660   3.566   0.850 -0.5911  1.3358  1.2700
 9368TIP3   OH249518   0.984   0.584  11.187  0.1770 -0.6641 -0.5798
 9368TIP3    H149519   0.910   0.524  11.178 -1.6688  1.5353 -0.4236
 9368TIP3    H249520   1.026   0.557  11.269 -0.0469 -2.3288 -0.9800
 9369TIP3   OH249521   4.332   4.591  10.977  0.4766 -0.0224  0.1996
 9369TIP3    H149522   4.408   4.649  10.987  0.3993  0.2997 -1.0231
 9369TIP3    H249523   4.261   4.649  10.948  0.3956 -0.7361 -1.0438
 9370TIP3   OH249524   2.828   0.179  17.157  0.6706  0.2084 -0.1531
 9370TIP3    H149525   2.789   0.161  17.243 -1.4219 -2.7338 -1.6442
 9370TIP3    H249526   2.883   0.103  17.139  0.1449  0.2350 -1.9365
 9371TIP3   OH249527   6.417   4.479   4.020  0.2556 -0.0877  0.3421
 9371TIP3    H149528   6.430   4.426   3.941  0.4562 -0.1241  0.3979
 9371TIP3    H249529   6.453   4.565   3.997 -2.3751  0.7945 -0.6265
 9372TIP3   OH249530   0.347   0.271   5.923  0.6391 -0.4389  0.4992
 9372TIP3    H149531   0.419   0.215   5.894 -1.3976 -1.4512 -2.9264
 9372TIP3    H249532   0.371   0.358   5.891  0.8233 -0.6006  0.1899
 9373TIP3   OH249533   2.684   4.986  15.693  0.3155 -0.5061 -0.3381
 9373TIP3    H149534   2.630   4.978  15.615 -1.2086  2.3782  0.3503
 9373TIP3    H249535   2.728   5.071  15.684  0.2196 -0.1822  1.8383
 9374TIP3   OH249536   2.688   4.982   0.905 -0.0109  0.5047  0.2439
 9374TIP3    H149537   2.759   4.918   0.900 -1.5161 -1.2265  0.4901
 9374TIP3    H249538   2.722   5.059   0.860  0.8862 -1.3838 -2.4292
 9375TIP3   OH249539   0.265   2.134   5.449 -0.0571 -0.4930 -0.3106
 9375TIP3    H149540   0.306   2.116   5.364  0.7279  0.8562 -0.2511
 9375TIP3    H249541   0.177   2.165   5.427 -0.9038 -2.9224 -0.4684
 9376TIP3   OH249542   3.684   2.928  16.217 -0.1581  0.2474 -0.5271
 9376TIP3    H149543   3.693   2.880  16.135 -1.7264 -0.0641 -0.5237
 9376TIP3    H249544   3.771   2.967  16.232  0.7350 -1.4430 -1.2309
 9377TIP3   OH249545   3.148   6.597   0.767 -0.4701  0.2118 -0.5886
 9377TIP3    H149546   3.208   6.631   0.700 -1.8172  0.4381 -1.6916
 9377TIP3    H249547   3.112   6.676   0.809  0.7096  0.0725  0.7410
 9378TIP3   OH249548   4.654   3.550   2.736 -0.3142 -0.0369 -0.2949
 9378TIP3    H149549   4.601   3.580   2.662  0.4958  2.2238  0.0056
 9378TIP3    H249550   4.612   3.469   2.764 -3.6159  1.6457 -0.0999
 9379TIP3   OH249551   3.118   3.184  11.646  0.3887  0.0637  0.4788
 9379TIP3    H149552   3.191   3.194  11.585 -0.1141  1.9893  0.1565
 9379TIP3    H249553   3.156   3.199  11.733  0.2967  1.5516  0.2719
 9380TIP3   OH249554   6.447   5.113  16.391 -0.1584  0.1338 -0.5984
 9380TIP3    H149555   6.486   5.177  16.450  0.3074 -1.0981  0.4675
 9380TIP3    H249556   6.441   5.033  16.443  0.6276 -1.0917 -2.3214
 9381TIP3   OH249557   4.915   1.301   4.659  0.4495  0.6078  0.3258
 9381TIP3    H149558   4.904   1.257   4.575  3.2131  0.8594 -0.2060
 9381TIP3    H249559   4.848   1.261   4.715 -1.5554  0.5652 -1.9989
 9382TIP3   OH249560   0.613   4.030  15.100  0.4947 -0.0056  0.9916
 9382TIP3    H149561   0.638   4.023  15.008 -1.8361 -1.8129  0.4251
 9382TIP3    H249562   0.682   3.984  15.148  1.6495  0.8286  0.1513
 9383TIP3   OH249563   1.002   1.894   2.707  0.0429  0.5787  0.2693
 9383TIP3    H149564   0.960   1.815   2.673 -1.0946  1.0430  0.5515
 9383TIP3    H249565   1.094   1.871   2.715  0.0595 -0.0627 -1.5455
 9384TIP3   OH249566   0.423   4.146   4.720 -0.2368  0.0314  0.1502
 9384TIP3    H149567   0.365   4.125   4.647  0.5074  0.5975 -0.6132
 9384TIP3    H249568   0.408   4.240   4.736 -0.8967 -0.2457  1.1686
 9385TIP3   OH249569   3.934   4.873   3.829  0.0897  0.4677  0.4210
 9385TIP3    H149570   3.945   4.782   3.800  0.7108  0.5700  0.3379
 9385TIP3    H249571   3.868   4.908   3.770 -0.0742  0.1027  0.3822
 9386TIP3   OH249572   4.128   3.295   1.464  0.5655 -0.2103 -0.7903
 9386TIP3    H149573   4.108   3.352   1.390  0.5159 -0.6199 -1.0951
 9386TIP3    H249574   4.124   3.207   1.428  0.3721 -0.4207 -0.2605
 9387TIP3   OH249575   5.554   2.712   4.970 -0.0375 -0.4090  0.0452
 9387TIP3    H149576   5.639   2.670   4.981  0.6350  0.2270 -2.4042
 9387TIP3    H249577   5.492   2.651   5.010  1.4619 -1.3303  1.0090
 9388TIP3   OH249578   1.206   4.596   0.161 -0.3133  0.4233  0.0871
 9388TIP3    H149579   1.292   4.639   0.156 -0.9614  1.7532  0.0816
 9388TIP3    H249580   1.221   4.520   0.216  0.8204  0.7815  0.3030
 9389TIP3   OH249581   0.264   3.820   4.537  0.5908  0.2697  0.3993
 9389TIP3    H149582   0.221   3.872   4.605 -1.8448  0.0403 -0.8882
 9389TIP3    H249583   0.283   3.882   4.467  0.5121  0.0021  0.1395
 9390TIP3   OH249584   3.541   2.922  12.008 -0.5748  0.0977  0.1818
 9390TIP3    H149585   3.528   2.867  12.086  0.9255  1.4587  1.4285
 9390TIP3    H249586   3.562   3.009  12.043 -2.4876  1.3882 -1.7640
 9391TIP3   OH249587   2.038   5.484  12.598  0.1576 -0.2305  0.5009
 9391TIP3    H149588   1.952   5.517  12.572 -0.4226 -1.4830  0.8017
 9391TIP3    H249589   2.040   5.491  12.693  0.0523 -0.9903  0.5637
 9392TIP3   OH249590   5.979   6.611  15.704  0.1590 -0.3252 -0.2697
 9392TIP3    H149591   5.904   6.594  15.760  0.4040 -0.8003 -0.0837
 9392TIP3    H249592   5.984   6.707  15.698 -0.9791 -0.3068 -1.0011
 9393TIP3   OH249593   0.981   6.689  16.024 -0.2131  0.0372 -0.0084
 9393TIP3    H149594   1.076   6.686  16.036 -0.2010 -0.0285 -0.1101
 9393TIP3    H249595   0.947   6.727  16.104 -0.2439 -1.6122  0.7919
 9394TIP3   OH249596   2.696   3.085   3.639  0.0040 -0.1041 -0.0319
 9394TIP3    H149597   2.672   3.098   3.547 -1.6002 -1.4428  0.1547
 9394TIP3    H249598   2.693   3.172   3.678 -2.1348  0.1334 -0.6401
 9395TIP3   OH249599   6.241   2.038  14.551 -0.5258 -0.2901  0.0520
 9395TIP3    H149600   6.235   1.948  14.582 -0.4199 -1.1640 -2.3830
 9395TIP3    H249601   6.334   2.060  14.557 -0.6251 -0.1540  1.1398
 9396TIP3   OH249602   4.863   6.567   3.462  0.5296 -0.5005  0.3056
 9396TIP3    H149603   4.937   6.535   3.410  0.7499 -0.8554  0.8232
 9396TIP3    H249604   4.860   6.508   3.537  1.4036  1.1382  1.6562
 9397TIP3   OH249605   6.321   3.674   0.783 -0.1112 -0.5277 -0.0495
 9397TIP3    H149606   6.266   3.650   0.857 -1.1827  0.2343 -0.5831
 9397TIP3    H249607   6.260   3.708   0.717  1.2360  3.4431  0.5799
 9398TIP3   OH249608   3.444   1.035   0.047  0.2911  0.2770 -0.2038
 9398TIP3    H149609   3.521   1.072   0.005  0.3516  0.6945  0.2734
 9398TIP3    H249610   3.477   0.960   0.096  0.8172  1.9539  2.0725
 9399TIP3   OH249611   0.223   1.303   0.545  0.1247 -0.0315  0.3773
 9399TIP3    H149612   0.181   1.287   0.630  0.4480  0.0019  0.5453
 9399TIP3    H249613   0.155   1.343   0.491  0.4014  1.5879  1.1781
 9400TIP3   OH249614   1.267   4.154   5.226  0.0624  0.0898 -0.2315
 9400TIP3    H149615   1.252   4.089   5.157  0.7727 -1.4701  1.0327
 9400TIP3    H249616   1.302   4.103   5.299  0.5728  1.9111  0.8237
 9401TIP3   OH249617   5.631   2.161   1.540  0.2443  0.2265  0.4018
 9401TIP3    H149618   5.545   2.199   1.559  0.2643  0.4716  0.0107
 9401TIP3    H249619   5.672   2.224   1.481 -0.2940 -1.1318 -1.4486
 9402TIP3   OH249620   5.715   2.123  16.816 -0.7484 -0.0854  0.1658
 9402TIP3    H149621   5.788   2.093  16.870 -0.4814 -0.9210 -0.6340
 9402TIP3    H249622   5.750   2.197  16.766 -0.2021 -0.9760 -0.7900
 9403TIP3   OH249623   5.603   5.061  14.443 -0.2233  0.1888  0.7163
 9403TIP3    H149624   5.678   5.003  14.455  0.2165  0.2371 -1.6167
 9403TIP3    H249625   5.622   5.136  14.500  1.7359  0.3926 -0.1464
 9404TIP3   OH249626   6.404   5.787   3.816 -0.1034  0.2723  0.0410
 9404TIP3    H149627   6.324   5.803   3.766 -0.9481 -0.3656  1.1521
 9404TIP3    H249628   6.472   5.836   3.770 -1.0030  0.2713 -1.3027
 9405TIP3   OH249629   4.313   6.454   0.183  0.3613 -0.0694 -0.1449
 9405TIP3    H149630   4.285   6.395   0.253  2.3366 -2.6069 -1.4151
 9405TIP3    H249631   4.278   6.415   0.103  0.2855  1.4153 -0.8696
 9406TIP3   OH249632   0.178   3.657   1.243  0.0228  0.2094 -0.0585
 9406TIP3    H149633   0.253   3.601   1.259  0.0095  0.3468  0.4867
 9406TIP3    H249634   0.167   3.656   1.148  0.1820 -0.4952 -0.0693
 9407TIP3   OH249635   2.776   2.531   4.819  0.6154  0.4492  0.5423
 9407TIP3    H149636   2.769   2.457   4.759  1.4354  0.5079  0.3654
 9407TIP3    H249637   2.687   2.565   4.826  0.2740 -0.4086  0.4499
 9408TIP3   OH249638   6.445   2.527   2.238  0.4392 -0.5072  0.7039
 9408TIP3    H149639   6.440   2.432   2.239 -0.9450 -0.4535  0.5264
 9408TIP3    H249640   6.358   2.556   2.267 -0.2960  0.6992 -2.4505
 9409TIP3   OH249641   4.068   5.506   2.201 -0.1089  0.2431 -0.0729
 9409TIP3    H149642   3.979   5.472   2.199  0.0308 -0.1290 -0.1333
 9409TIP3    H249643   4.112   5.452   2.266 -0.0120  0.6378  0.1887
 9410TIP3   OH249644   2.228   3.391  12.755 -0.2073  0.2188  1.1674
 9410TIP3    H149645   2.232   3.324  12.823 -2.0647 -0.3329  0.7411
 9410TIP3    H249646   2.136   3.396  12.731  0.1979  1.5540 -0.1755
 9411TIP3   OH249647   4.787   4.413  14.097 -0.0089 -0.4316 -0.7178
 9411TIP3    H149648   4.835   4.392  14.017 -0.3449 -0.2794 -0.9570
 9411TIP3    H249649   4.837   4.485  14.136 -0.6112  0.4043 -1.4807
 9412TIP3   OH249650   4.827   3.936   2.338 -0.3135  0.3054  0.2678
 9412TIP3    H149651   4.886   3.860   2.343 -0.8524 -0.1917 -0.8735
 9412TIP3    H249652   4.885   4.011   2.345  0.2436 -0.2073  1.2919
 9413TIP3   OH249653   0.589   2.479   0.580  0.4325 -0.1759  0.0364
 9413TIP3    H149654   0.674   2.474   0.538 -0.5055 -0.2499 -1.9017
 9413TIP3    H249655   0.584   2.400   0.634  1.3205 -0.4768 -0.3187
 9414TIP3   OH249656   0.486   6.530  15.060  0.5836 -0.2050 -0.1917
 9414TIP3    H149657   0.561   6.589  15.048  0.6109 -0.6115 -2.2021
 9414TIP3    H249658   0.411   6.579  15.026  0.0108 -0.0358  1.2608
 9415TIP3   OH249659   2.879   2.161  16.637  0.2793  0.7742  0.4686
 9415TIP3    H149660   2.901   2.217  16.711 -0.6921  1.5760  0.1624
 9415TIP3    H249661   2.901   2.072  16.667  2.3103  1.3567  0.7583
 9416TIP3   OH249662   3.621   5.778   4.141 -0.5114 -0.0511  0.3228
 9416TIP3    H149663   3.633   5.857   4.193 -1.3878  0.5931 -0.4443
 9416TIP3    H249664   3.686   5.716   4.176 -0.0722  0.8744  1.1627
 9417TIP3   OH249665   3.364   3.002  11.088 -0.1623 -0.2524  0.2597
 9417TIP3    H149666   3.281   2.955  11.086 -0.0536 -0.4474  0.3702
 9417TIP3    H249667   3.339   3.095  11.085 -0.4395 -0.2754  1.6624
 9418TIP3   OH249668   0.023   1.636   1.898 -0.1018  0.2746  0.3666
 9418TIP3    H149669  -0.010   1.556   1.855 -3.5127  2.8675 -2.1017
 9418TIP3    H249670  -0.011   1.630   1.988  0.3198 -1.3886  0.4376
 9419TIP3   OH249671   2.340   5.453   1.219 -0.2922 -0.2647 -0.5791
 9419TIP3    H149672   2.293   5.536   1.227  0.8945  0.3685  0.0287
 9419TIP3    H249673   2.432   5.479   1.207  0.3158 -1.4867  1.1989
 9420TIP3   OH249674   0.945   6.525  13.682 -0.1855  0.5794 -0.3219
 9420TIP3    H149675   0.949   6.575  13.764  1.3061 -0.5688  0.3120
 9420TIP3    H249676   0.882   6.455  13.700 -0.3707  0.7294 -0.3847
 9421TIP3   OH249677   6.743   5.084   3.954 -0.0378  0.5759  0.1562
 9421TIP3    H149678   6.765   5.172   3.922 -0.8305  0.4034 -0.8649
 9421TIP3    H249679   6.663   5.097   4.005 -1.6375  0.0324 -2.1780
 9422TIP3   OH249680   5.611   1.902   1.655 -0.0952 -0.1171 -0.6113
 9422TIP3    H149681   5.520   1.884   1.629 -0.0556  1.4424 -1.9392
 9422TIP3    H249682   5.639   1.972   1.596  1.5919  0.2376  0.5772
 9423TIP3   OH249683   6.480   5.375  16.911  0.0215 -0.3763  0.0123
 9423TIP3    H149684   6.516   5.390  16.999 -1.0403 -0.4955  0.4765
 9423TIP3    H249685   6.403   5.320  16.926 -1.4440  1.4095 -0.7714
 9424TIP3   OH249686   0.701   3.768  15.849  0.0086 -0.1122  0.2154
 9424TIP3    H149687   0.733   3.709  15.918  0.6768 -1.2184 -1.0116
 9424TIP3    H249688   0.780   3.798  15.805 -0.3738  1.2497  0.4452
 9425TIP3   OH249689   2.380   5.057   6.106 -0.4050  0.3529  0.0132
 9425TIP3    H149690   2.394   4.962   6.110  1.0540  0.6018  1.4646
 9425TIP3    H249691   2.303   5.072   6.161 -0.9028 -0.0351 -0.5738
 9426TIP3   OH249692   4.579   0.799  12.657  0.0325  0.6872 -0.0162
 9426TIP3    H149693   4.649   0.740  12.626 -0.6952  0.5103 -1.3626
 9426TIP3    H249694   4.617   0.886  12.649  0.7272  0.4821  0.9410
 9427TIP3   OH249695   4.596   3.521  16.516 -0.6662  0.7861 -0.0482
 9427TIP3    H149696   4.686   3.527  16.484 -0.8526  1.9127 -0.3773
 9427TIP3    H249697   4.558   3.449  16.465 -0.2009  0.8712 -0.5253
 9428TIP3   OH249698   2.485   3.443  17.085  0.2123  0.4347  0.1243
 9428TIP3    H149699   2.471   3.356  17.121  0.2547  0.4598  0.2011
 9428TIP3    H249700   2.426   3.500  17.135  0.6935  0.5646  0.5452
 9429TIP3   OH249701   6.434   1.862  15.963  0.3148  0.1154  0.3169
 9429TIP3    H149702   6.342   1.853  15.991  0.3471  0.0396  0.3983
 9429TIP3    H249703   6.439   1.949  15.925  0.1980  0.1046  0.2748
 9430TIP3   OH249704   6.763   6.680   1.167 -0.6127 -0.3107 -0.0207
 9430TIP3    H149705   6.824   6.698   1.096 -1.2476 -0.3956 -0.5961
 9430TIP3    H249706   6.808   6.617   1.222  1.2461  2.2144  1.4777
 9431TIP3   OH249707   0.766   4.302   3.177  0.1816  0.0075  0.3872
 9431TIP3    H149708   0.788   4.312   3.270  0.7136  0.4486  0.2133
 9431TIP3    H249709   0.809   4.221   3.150  0.0187 -0.1259  0.5283
 9432TIP3   OH249710   4.806   3.013  13.097  0.0712 -0.3103  0.6333
 9432TIP3    H149711   4.778   3.087  13.043 -0.1351 -2.8706 -2.9497
 9432TIP3    H249712   4.897   2.997  13.070 -0.2507 -2.0525  0.4995
 9433TIP3   OH249713   2.030   0.052   6.020  0.0793  0.2764  0.4270
 9433TIP3    H149714   2.033   0.109   5.943  1.2049  0.7193  0.7976
 9433TIP3    H249715   2.113   0.067   6.065 -0.1612 -0.7000  1.2184
 9434TIP3   OH249716   5.726   6.589  16.993 -0.0985 -0.5213 -0.0696
 9434TIP3    H149717   5.698   6.527  16.926 -0.9843  1.1524 -1.2969
 9434TIP3    H249718   5.654   6.589  17.057 -0.6121  0.0420 -0.6388
 9435TIP3   OH249719   2.331   5.142   5.058 -0.1995 -0.0405 -0.0750
 9435TIP3    H149720   2.284   5.164   5.138  0.2709 -0.7596  0.3988
 9435TIP3    H249721   2.342   5.047   5.061 -0.4848 -0.1184 -1.1613
 9436TIP3   OH249722   0.616   3.682  15.500  0.7679  0.0973 -0.4935
 9436TIP3    H149723   0.583   3.772  15.502  3.0075  0.9914 -1.3565
 9436TIP3    H249724   0.706   3.691  15.468  0.2758 -2.6901 -2.8542
 9437TIP3   OH249725   2.364   4.636   3.390  0.3448  0.5662  0.1758
 9437TIP3    H149726   2.459   4.635   3.397  0.2418  0.5818  1.6899
 9437TIP3    H249727   2.340   4.727   3.408  0.1036  0.7874 -1.2058
 9438TIP3   OH249728   1.310   4.346   5.535 -0.4863 -0.5572  0.1224
 9438TIP3    H149729   1.257   4.280   5.579  0.0369 -1.7302 -0.9697
 9438TIP3    H249730   1.255   4.376   5.462  0.1254 -1.3672 -0.6754
 9439TIP3   OH249731   2.120   6.320  17.027 -0.1523  0.0711 -0.1572
 9439TIP3    H149732   2.154   6.280  16.947  0.2123 -1.7899  0.8935
 9439TIP3    H249733   2.185   6.387  17.049  0.1960  0.0034 -0.9438
 9440TIP3   OH249734   0.917   1.396  13.603  0.5574 -0.3811 -0.2421
 9440TIP3    H149735   0.890   1.308  13.627 -1.2299  0.2018 -0.0001
 9440TIP3    H249736   0.861   1.420  13.529  0.0865  1.0267  0.5399
 9441TIP3   OH249737   4.231   3.140   0.133  0.5079 -0.0555  0.1680
 9441TIP3    H149738   4.245   3.235   0.138 -0.9417  0.0904  1.6290
 9441TIP3    H249739   4.161   3.130   0.068 -0.3618  0.0030  1.0728
 9442TIP3   OH249740   4.940   1.624   5.698 -0.0832  0.1898 -0.2626
 9442TIP3    H149741   5.035   1.632   5.698 -0.1868  2.0228  2.7869
 9442TIP3    H249742   4.917   1.617   5.605  2.7766  3.0956 -1.2902
 9443TIP3   OH249743   1.907   3.556   1.759  0.1706  0.1118 -0.2023
 9443TIP3    H149744   1.846   3.543   1.831  1.2300  0.0410  0.6956
 9443TIP3    H249745   1.860   3.613   1.697  0.0376  1.9516  1.5381
 9444TIP3   OH249746   2.983   3.379   2.186  0.0770 -0.2521 -0.0433
 9444TIP3    H149747   3.062   3.351   2.233 -0.9392  0.2259  1.9505
 9444TIP3    H249748   2.920   3.309   2.201 -0.9363  0.8857  1.0332
 9445TIP3   OH249749   2.666   6.676   1.386 -0.0155  0.3493 -0.4097
 9445TIP3    H149750   2.738   6.735   1.361  0.8775 -0.6229 -0.1777
 9445TIP3    H249751   2.587   6.728   1.374  0.8353  2.0670  1.0941
 9446TIP3   OH249752   0.671   3.224   4.796  0.1565  0.0713  0.0920
 9446TIP3    H149753   0.645   3.312   4.770  0.2173 -0.4922 -1.9833
 9446TIP3    H249754   0.714   3.188   4.719 -0.3797 -1.9817  0.7201
 9447TIP3   OH249755   2.247   4.359  12.472 -0.5009 -0.0587  0.0138
 9447TIP3    H149756   2.327   4.366  12.420  0.2715  0.8484  1.3011
 9447TIP3    H249757   2.273   4.389  12.559 -2.3025  0.4464  0.3818
 9448TIP3   OH249758   5.925   1.053   5.028 -0.3495 -0.0686  0.1492
 9448TIP3    H149759   5.914   0.974   5.081 -0.5777 -0.3580 -0.3332
 9448TIP3    H249760   5.901   1.125   5.087 -0.4930 -0.3841  0.4762
 9449TIP3   OH249761   5.164   0.042  13.553 -0.2603 -0.3798  0.0930
 9449TIP3    H149762   5.111  -0.004  13.488  0.0101 -0.2231 -0.2447
 9449TIP3    H249763   5.100   0.090  13.606 -0.3768  1.1406 -1.3561
 9450TIP3   OH249764   4.778   4.995  16.357 -0.3465  0.0011 -0.0363
 9450TIP3    H149765   4.799   5.080  16.318  1.1803  0.5916  1.9851
 9450TIP3    H249766   4.726   5.017  16.435  0.4038 -0.9033  0.7207
 9451TIP3   OH249767   3.406   6.642   0.061 -0.2642  0.3679  0.1652
 9451TIP3    H149768   3.454   6.566   0.028  0.2137 -0.0434  1.7682
 9451TIP3    H249769   3.332   6.605   0.109 -1.4006  0.9749 -1.0966
 9452TIP3   OH249770   4.147   1.351  15.188  0.0401  0.2342 -0.2206
 9452TIP3    H149771   4.098   1.419  15.234  0.8063  1.2618 -0.8950
 9452TIP3    H249772   4.236   1.386  15.183  0.7097 -1.3523  0.4728
 9453TIP3   OH249773   1.310   4.019   3.897 -0.4200  0.2320 -0.6710
 9453TIP3    H149774   1.313   3.973   3.981  0.0842 -1.5639 -1.6637
 9453TIP3    H249775   1.281   4.108   3.920 -0.0457 -0.1641  1.4211
 9454TIP3   OH249776   0.135   6.216   1.807  0.3677  0.4685 -0.5754
 9454TIP3    H149777   0.186   6.137   1.789  0.2875  0.6122 -1.4629
 9454TIP3    H249778   0.074   6.223   1.734  0.2314  1.2345 -0.3973
 9455TIP3   OH249779   0.467   0.338  15.802 -0.2229  0.3410 -0.5245
 9455TIP3    H149780   0.523   0.265  15.775  0.5600  1.3850 -1.7845
 9455TIP3    H249781   0.394   0.337  15.740 -1.3850 -0.7211  0.8223
 9456TIP3   OH249782   5.417   0.563   0.970  0.9044  0.2473 -0.1824
 9456TIP3    H149783   5.483   0.611   1.019  0.8404  0.2398 -0.0876
 9456TIP3    H249784   5.386   0.624   0.904 -1.4815  1.4660  1.9637
 9457TIP3   OH249785   2.781   6.775  15.746  0.1820  0.2023  0.0432
 9457TIP3    H149786   2.768   6.855  15.797  0.5159  0.5729 -0.4541
 9457TIP3    H249787   2.698   6.762  15.701  0.9907  1.7340 -1.9417
 9458TIP3   OH249788   2.508   1.693   5.056 -0.4693 -0.3375  0.1192
 9458TIP3    H149789   2.543   1.695   5.145  0.7987 -1.5464 -0.3351
 9458TIP3    H249790   2.419   1.728   5.064  0.3744  1.5144  1.5136
 9459TIP3   OH249791   4.775   5.461   3.592 -0.0744  0.0624  0.0896
 9459TIP3    H149792   4.831   5.397   3.635  0.6500  0.4511 -0.2619
 9459TIP3    H249793   4.739   5.415   3.516 -0.8390 -0.4199  0.7302
 9460TIP3   OH249794   0.741   0.270   0.488  0.3823  0.7608  0.2045
 9460TIP3    H149795   0.823   0.290   0.443  0.6362 -0.3771  0.1645
 9460TIP3    H249796   0.755   0.184   0.528 -0.4260  1.0136  1.0652
 9461TIP3   OH249797   3.727   1.750   2.776 -0.3933  0.1375 -0.8392
 9461TIP3    H149798   3.701   1.751   2.868 -0.9947 -0.2389 -1.0040
 9461TIP3    H249799   3.808   1.801   2.774  0.0229 -0.4698  0.0185
 9462TIP3   OH249800   0.673   1.331   1.519  0.1870  0.4987 -0.3007
 9462TIP3    H149801   0.687   1.244   1.556 -1.0149 -0.2881 -1.6445
 9462TIP3    H249802   0.757   1.354   1.480  1.4799  1.3464  2.8361
 9463TIP3   OH249803   3.497   3.866  16.859 -0.2254  0.0618 -0.6096
 9463TIP3    H149804   3.497   3.954  16.822 -0.1942  0.2735 -0.1147
 9463TIP3    H249805   3.480   3.880  16.953  0.2149 -0.4265 -0.4587
 9464TIP3   OH249806   0.444   2.521  13.670 -0.3326 -0.2030  0.5823
 9464TIP3    H149807   0.536   2.529  13.646 -0.2495 -0.2745  0.8806
 9464TIP3    H249808   0.397   2.555  13.594 -0.0817 -1.0170  0.0580
 9465TIP3   OH249809   3.980   5.843   0.569  0.7229 -0.2851  0.2120
 9465TIP3    H149810   4.052   5.790   0.603  0.3570 -2.2586 -1.9541
 9465TIP3    H249811   3.902   5.807   0.612  0.8042  0.6224  1.1418
 9466TIP3   OH249812   2.920   5.546  16.503 -0.2191  0.6053 -0.2955
 9466TIP3    H149813   3.012   5.563  16.481 -0.3824  1.1167 -0.5869
 9466TIP3    H249814   2.875   5.545  16.418 -0.3000 -0.7783 -0.2527
 9467TIP3   OH249815   0.514   1.427  16.709 -0.2542 -0.4391 -0.0996
 9467TIP3    H149816   0.462   1.412  16.629  1.9104  0.7418 -1.7797
 9467TIP3    H249817   0.456   1.399  16.780 -2.9155  0.1444 -1.9402
 9468TIP3   OH249818   6.675   6.308  11.170  0.3834  0.0946 -0.5573
 9468TIP3    H149819   6.677   6.229  11.116 -0.9939 -1.1507  1.1802
 9468TIP3    H249820   6.765   6.318  11.201  0.5860 -0.7598 -0.8530
 9469TIP3   OH249821   6.150   1.103   4.392 -0.3627 -0.3964  0.5529
 9469TIP3    H149822   6.055   1.100   4.388 -0.4474 -2.3572  2.7836
 9469TIP3    H249823   6.170   1.143   4.476  0.7835 -0.5858  0.3821
 9470TIP3   OH249824   2.744   5.779   1.797  0.1767  0.9200  0.2852
 9470TIP3    H149825   2.798   5.796   1.875  0.5192 -1.8825  0.7008
 9470TIP3    H249826   2.656   5.806   1.822  0.2893  0.0600  1.6470
 9471TIP3   OH249827   0.868   0.374  17.197  0.4056 -0.1442 -0.5801
 9471TIP3    H149828   0.810   0.420  17.137  1.9443  2.8619  0.1585
 9471TIP3    H249829   0.874   0.431  17.274  2.2613 -1.6426  0.4326
 9472TIP3   OH249830   2.384   3.489   4.437  0.0591 -0.2252 -0.0383
 9472TIP3    H149831   2.451   3.545   4.397 -1.1610  1.0737 -0.2582
 9472TIP3    H249832   2.368   3.421   4.372 -0.3926  0.6922 -0.9007
 9473TIP3   OH249833   2.046   1.587  11.556 -0.4273 -0.0332  0.2655
 9473TIP3    H149834   2.070   1.541  11.636  1.1721  1.9122  0.9487
 9473TIP3    H249835   1.962   1.628  11.577  1.0800  2.3847  1.8134
 9474TIP3   OH249836   0.778   0.727  14.484  0.2031  0.2466  0.1746
 9474TIP3    H149837   0.735   0.680  14.412 -0.0677  1.2590 -0.3291
 9474TIP3    H249838   0.843   0.782  14.440  1.3915 -0.5677  0.8560
 9475TIP3   OH249839   0.735   4.665  11.809 -0.2094  0.0975 -0.1023
 9475TIP3    H149840   0.789   4.668  11.731 -1.0862  0.4966 -0.6977
 9475TIP3    H249841   0.786   4.612  11.871  0.8106  0.3853 -0.6781
 9476TIP3   OH249842   5.792   6.315  15.610  0.6670 -0.1519 -0.2236
 9476TIP3    H149843   5.743   6.379  15.558  1.6044 -0.2916 -1.2766
 9476TIP3    H249844   5.881   6.350  15.612  0.7970 -0.5277  0.6758
 9477TIP3   OH249845   5.740   3.462   0.632  0.2297  0.5538 -0.1350
 9477TIP3    H149846   5.722   3.467   0.726 -1.6745 -1.0428 -0.3741
 9477TIP3    H249847   5.659   3.493   0.591  0.1735 -0.9729 -1.2358
 9478TIP3   OH249848   6.000   2.386  12.851 -0.1290 -0.0633  0.1935
 9478TIP3    H149849   5.964   2.474  12.863  1.0042  0.3176  0.8118
 9478TIP3    H249850   5.981   2.365  12.759  0.3598  1.1654 -0.1959
 9479TIP3   OH249851   3.180   0.835   4.477 -0.3305  0.6455 -0.1977
 9479TIP3    H149852   3.104   0.819   4.533 -0.2174  2.3101  0.4561
 9479TIP3    H249853   3.146   0.884   4.403 -0.5984 -2.1209 -1.9852
 9480TIP3   OH249854   4.779   3.135  13.796  0.7018  0.0369 -0.3832
 9480TIP3    H149855   4.755   3.184  13.875  1.3482  0.6853 -0.5946
 9480TIP3    H249856   4.803   3.048  13.829 -0.3781 -0.1268 -0.0051
 9481TIP3   OH249857   0.456   1.974   1.433  0.2629  0.4836 -0.0189
 9481TIP3    H149858   0.481   2.041   1.496 -2.7544  1.0236  0.7059
 9481TIP3    H249859   0.366   1.997   1.408 -0.1384 -2.1894 -1.2271
 9482TIP3   OH249860   6.484   2.264  13.820 -0.2552  0.5387  0.1310
 9482TIP3    H149861   6.425   2.338  13.820 -0.7278  0.1647  0.1601
 9482TIP3    H249862   6.429   2.189  13.797  0.0027  0.0295  1.1458
 9483TIP3   OH249863   1.412   5.291  12.603 -0.3391 -0.3067  0.6326
 9483TIP3    H149864   1.365   5.304  12.520 -2.0048 -2.4038  1.2107
 9483TIP3    H249865   1.420   5.379  12.640 -1.3499  0.4143 -0.8248
 9484TIP3   OH249866   0.917   2.154  10.409 -0.2812  0.5968  0.6809
 9484TIP3    H149867   0.979   2.221  10.380  0.5005  1.0527  3.2510
 9484TIP3    H249868   0.848   2.202  10.453  0.5007 -0.2795  2.9304
 9485TIP3   OH249869   3.412   1.827  15.440  0.2207  0.0561 -1.0994
 9485TIP3    H149870   3.405   1.923  15.445 -0.6905 -0.1192  1.3996
 9485TIP3    H249871   3.461   1.803  15.518 -2.2729 -1.7604 -0.0313
 9486TIP3   OH249872   6.242   2.059  17.041 -0.3013 -0.5315  0.1133
 9486TIP3    H149873   6.291   2.119  17.097  1.6942 -2.2402  0.2663
 9486TIP3    H249874   6.229   2.107  16.959  1.2510  0.1020  0.2377
 9487TIP3   OH249875   6.109   2.590  14.240 -0.1500  0.1925  0.1956
 9487TIP3    H149876   6.185   2.647  14.246 -1.7441  2.3242  0.7188
 9487TIP3    H249877   6.039   2.647  14.209 -1.6228 -1.6487  0.0603
 9488TIP3   OH249878   0.881   3.917  15.627 -0.3953  0.2322  0.8494
 9488TIP3    H149879   0.804   3.971  15.611 -0.0739  0.9745  1.7420
 9488TIP3    H249880   0.952   3.964  15.584 -0.4371 -0.4688 -0.0008
 9489TIP3   OH249881   2.077   5.184   5.142 -0.3660  0.0295  0.3608
 9489TIP3    H149882   2.035   5.108   5.103 -1.0351  1.4202 -1.7272
 9489TIP3    H249883   2.038   5.192   5.228 -0.4233 -1.8673  0.5226
 9490TIP3   OH249884   5.627   2.752  11.938  0.2868  0.1367 -0.5252
 9490TIP3    H149885   5.576   2.699  11.877 -0.0642  0.9542 -0.9481
 9490TIP3    H249886   5.718   2.725  11.923  0.0467 -0.8176 -0.2680
 9491TIP3   OH249887   5.017   6.102   1.282 -0.3311 -0.5567 -0.0600
 9491TIP3    H149888   5.080   6.102   1.209 -2.3676  0.3053 -1.8834
 9491TIP3    H249889   4.950   6.039   1.255 -0.7572 -0.7471  1.4080
 9492TIP3   OH249890   5.589   2.646   1.810  0.0968  0.3033 -0.0023
 9492TIP3    H149891   5.626   2.569   1.767 -0.4691 -0.3624  0.6779
 9492TIP3    H249892   5.657   2.674   1.871  0.0948  0.0229  0.1296
 9493TIP3   OH249893   6.127   1.838  15.730  0.2628  0.3327  0.3061
 9493TIP3    H149894   6.135   1.934  15.730 -0.5880  0.4140 -0.8599
 9493TIP3    H249895   6.211   1.807  15.696 -0.0127  0.7291 -0.7458
 9494TIP3   OH249896   3.364   0.443   5.116  0.1975  0.2318 -0.0560
 9494TIP3    H149897   3.418   0.429   5.195 -0.4430 -1.7490  0.0659
 9494TIP3    H249898   3.309   0.365   5.111  0.1298  0.4021 -2.4069
 9495TIP3   OH249899   1.938   4.968   6.874 -0.0334  0.2499  0.4194
 9495TIP3    H149900   1.867   4.917   6.834  2.2444 -1.2625 -1.8966
 9495TIP3    H249901   1.977   4.908   6.938  0.6111  0.2031 -0.0066
 9496TIP3   OH249902   6.093   4.094   0.197  0.0265 -0.4856  0.6167
 9496TIP3    H149903   6.171   4.066   0.245  0.9259  0.4447 -0.2688
 9496TIP3    H249904   6.085   4.187   0.215 -0.3769 -0.3997  0.0175
 9497TIP3   OH249905   2.372   5.553  12.925  0.1287  0.1918  0.3565
 9497TIP3    H149906   2.363   5.584  13.015  0.2365 -1.3643  0.9147
 9497TIP3    H249907   2.282   5.537  12.896  0.2465 -2.4274  1.3214
 9498TIP3   OH249908   1.538   5.088   3.999 -0.2283 -0.0354  0.3813
 9498TIP3    H149909   1.525   5.010   4.052 -0.0730 -1.6454 -1.8909
 9498TIP3    H249910   1.461   5.092   3.942 -1.1530  2.5212  1.7012
 9499TIP3   OH249911   1.177   0.783  16.787 -0.3664  0.2489 -0.5492
 9499TIP3    H149912   1.254   0.729  16.769  0.3465  1.4784 -1.2851
 9499TIP3    H249913   1.117   0.766  16.715 -1.0092 -1.0936  0.2871
 9500TIP3   OH249914   6.470   6.231  13.003 -0.1415  0.0603  0.0518
 9500TIP3    H149915   6.417   6.311  13.001  0.0311  0.1852  0.3933
 9500TIP3    H249916   6.449   6.186  12.921  0.2738  0.7817 -0.4458
 9501TIP3   OH249917   5.451   2.701   1.298 -0.2460  0.1892  0.2793
 9501TIP3    H149918   5.506   2.689   1.220 -0.2717  0.8548  0.1556
 9501TIP3    H249919   5.361   2.698   1.265 -0.2349  1.6357  0.1126
 9502TIP3   OH249920   2.521   5.797   6.568 -0.3959 -0.4868  0.4324
 9502TIP3    H149921   2.493   5.880   6.607  0.5213  0.4453 -0.8262
 9502TIP3    H249922   2.440   5.757   6.537 -0.9525 -0.5116  1.8928
 9503TIP3   OH249923   1.574   3.561  13.290 -0.2399 -0.8576 -0.6032
 9503TIP3    H149924   1.485   3.596  13.295 -0.1920 -0.9597  1.0437
 9503TIP3    H249925   1.564   3.468  13.313  0.4333 -0.6305  0.6234
 9504TIP3   OH249926   4.213   5.077  13.840 -0.4906  0.4307 -0.3385
 9504TIP3    H149927   4.278   5.138  13.807 -0.5293  0.2574 -0.7341
 9504TIP3    H249928   4.163   5.051  13.763 -0.4491 -0.1330 -0.1764
 9505TIP3   OH249929   1.975   2.085  16.780 -0.7752  0.0390  0.4516
 9505TIP3    H149930   1.977   2.151  16.849 -0.6976 -0.1665  0.6431
 9505TIP3    H249931   1.896   2.035  16.797 -1.2617  0.5849 -0.1647
 9506TIP3   OH249932   4.193   0.811   3.393 -0.0571 -0.6298  0.3112
 9506TIP3    H149933   4.201   0.813   3.298 -0.4379 -1.4899  0.2607
 9506TIP3    H249934   4.282   0.799   3.425  0.1511  0.3164  0.0842
 9507TIP3   OH249935   6.508   4.038   1.154  0.5212 -0.0945  0.1711
 9507TIP3    H149936   6.518   4.127   1.121  0.5557 -1.0714 -2.5608
 9507TIP3    H249937   6.597   4.011   1.176  0.2088  1.4933  3.7598
 9508TIP3   OH249938   1.658   2.621   2.308 -0.2432 -0.6307  0.0465
 9508TIP3    H149939   1.738   2.663   2.339 -0.6341  0.5700 -0.5241
 9508TIP3    H249940   1.637   2.557   2.375  0.1248  0.4159  1.1839
 9509TIP3   OH249941   3.186   5.107  13.514 -0.5569  0.3400  0.0308
 9509TIP3    H149942   3.202   5.113  13.608 -0.2793  1.0012 -0.0615
 9509TIP3    H249943   3.111   5.165  13.499 -1.2156 -0.5071 -0.0049
 9510TIP3   OH249944   0.431   3.595   1.755 -0.3004  0.3117  0.8100
 9510TIP3    H149945   0.500   3.661   1.749  0.6311 -0.6863  0.2324
 9510TIP3    H249946   0.364   3.634   1.812  0.3631  1.6205  0.7084
 9511TIP3   OH249947   5.380   5.556   0.174 -0.0701 -0.1541  0.4010
 9511TIP3    H149948   5.335   5.498   0.235 -0.1250  0.2870  0.7801
 9511TIP3    H249949   5.328   5.636   0.174  0.6527  0.3196  0.7608
 9512TIP3   OH249950   2.139   2.573  11.301  0.3588  0.3348 -0.5281
 9512TIP3    H149951   2.129   2.525  11.383 -1.2239  3.0164  0.9486
 9512TIP3    H249952   2.060   2.552  11.251  0.5454 -0.0519 -0.6537
 9513TIP3   OH249953   4.540   6.211   0.010 -0.0740 -0.2224 -0.2437
 9513TIP3    H149954   4.586   6.294   0.020 -0.8430 -0.0197  1.6481
 9513TIP3    H249955   4.513   6.210  -0.082  1.7343  0.6668 -0.8031
 9514TIP3   OH249956   3.942   3.818  15.739 -0.1020  0.6141 -0.3376
 9514TIP3    H149957   3.987   3.833  15.657 -0.0304  1.0426 -0.2167
 9514TIP3    H249958   3.897   3.734  15.726  1.6252 -0.3747 -0.0628
 9515TIP3   OH249959   4.495   3.554   6.269  0.1127  0.5848  0.3293
 9515TIP3    H149960   4.408   3.555   6.308  0.3670 -1.5736  1.0223
 9515TIP3    H249961   4.552   3.587   6.339  0.1774 -0.4648  0.7819
 9516TIP3   OH249962   6.481   6.116  14.692  0.0768  1.0456 -0.2946
 9516TIP3    H149963   6.410   6.179  14.682 -1.0501 -0.2694 -0.8260
 9516TIP3    H249964   6.542   6.157  14.754 -0.6191  2.6402 -0.6529
 9517TIP3   OH249965   3.700   0.511  11.036  0.0345 -0.4772  0.0688
 9517TIP3    H149966   3.754   0.590  11.037  0.3627 -0.6771 -1.3435
 9517TIP3    H249967   3.670   0.503  10.945 -1.3800 -1.0342  0.5729
 9518TIP3   OH249968   0.911   0.999   3.621  0.2704  0.9249  0.3507
 9518TIP3    H149969   0.906   0.925   3.682 -0.0162  0.4339 -0.2526
 9518TIP3    H249970   0.832   1.050   3.639 -1.6814 -1.0872 -1.9237
 9519TIP3   OH249971   6.537   5.090   6.156  0.1636  0.3156  0.1450
 9519TIP3    H149972   6.625   5.058   6.135  0.4308  0.4282  1.0681
 9519TIP3    H249973   6.550   5.182   6.179 -0.0451  0.0735  1.2594
 9520TIP3   OH249974   0.168   1.611  12.289 -0.2925 -0.0815 -0.1117
 9520TIP3    H149975   0.076   1.630  12.309 -0.5713  1.0092 -2.2572
 9520TIP3    H249976   0.209   1.697  12.281  0.6596 -0.5436 -0.2143
 9521TIP3   OH249977   3.035   3.246  13.953 -0.1389  0.2239  0.0126
 9521TIP3    H149978   3.035   3.298  13.873  1.9255  1.3483  0.6963
 9521TIP3    H249979   3.002   3.305  14.020  0.7777  0.1915  0.5029
 9522TIP3   OH249980   0.336   2.354  15.323  0.0235  0.2310 -0.3456
 9522TIP3    H149981   0.278   2.429  15.313 -0.1020  0.0329 -1.1208
 9522TIP3    H249982   0.278   2.278  15.317  0.2772  0.0475 -0.4754
 9523TIP3   OH249983   4.523   2.510   2.598  0.1576 -0.2013  0.0456
 9523TIP3    H149984   4.471   2.580   2.558 -0.0188 -1.2431 -1.5918
 9523TIP3    H249985   4.478   2.490   2.680 -1.2717 -0.1594 -0.7087
 9524TIP3   OH249986   2.471   4.432   6.337 -0.4410  0.2749 -0.7343
 9524TIP3    H149987   2.505   4.516   6.304  0.7629 -0.1743 -0.6814
 9524TIP3    H249988   2.545   4.394   6.385 -1.2358 -0.4503 -0.0722
 9525TIP3   OH249989   0.827   2.967   1.939 -0.4060  0.6530 -0.6711
 9525TIP3    H149990   0.748   2.984   1.887 -1.7559 -0.7984  0.8324
 9525TIP3    H249991   0.823   3.032   2.010 -0.4115  0.3637 -0.4086
 9526TIP3   OH249992   4.552   1.885  14.212 -0.6938  0.1282  0.2552
 9526TIP3    H149993   4.570   1.856  14.301 -1.6833  1.4187  0.8983
 9526TIP3    H249994   4.467   1.928  14.218 -0.6705  0.4193 -1.2787
 9527TIP3   OH249995   1.462   3.869  13.622  0.1283  0.1001 -1.1896
 9527TIP3    H149996   1.521   3.944  13.624 -0.6907  0.7217  1.1728
 9527TIP3    H249997   1.411   3.881  13.542  1.9870  0.4878 -2.3354
 9528TIP3   OH249998   5.648   0.261  13.452  0.3038 -0.3148  0.1184
 9528TIP3    H149999   5.580   0.295  13.393  2.2556 -0.9605 -2.6075
 9528TIP3    H250000   5.703   0.337  13.471  1.3802 -0.6926 -1.3608
 9529TIP3   OH250001   2.199   4.547  12.149 -0.2710  0.2680 -0.3202
 9529TIP3    H150002   2.228   4.623  12.097 -0.0484  1.0109  0.8686
 9529TIP3    H250003   2.174   4.482  12.084 -0.7700  1.4872 -1.3692
 9530TIP3   OH250004   0.008   3.047   1.495  0.8801 -0.1457 -0.0363
 9530TIP3    H150005   0.014   3.011   1.584 -0.7227 -0.1767  0.0596
 9530TIP3    H250006   0.052   3.132   1.502 -0.1707  0.3294  1.0593
 9531TIP3   OH250007   6.141   6.490   1.290  0.1621 -0.2738 -0.0252
 9531TIP3    H150008   6.093   6.424   1.341 -1.2895  1.0982  0.3994
 9531TIP3    H250009   6.103   6.484   1.203 -0.8526  0.8646  0.3299
 9532TIP3   OH250010   2.215   4.104   0.427 -0.0590 -0.0563 -0.6203
 9532TIP3    H150011   2.169   4.060   0.498 -1.2897  0.6536 -0.9706
 9532TIP3    H250012   2.152   4.168   0.393  0.3960 -0.5886 -2.5301
 9533TIP3   OH250013   6.216   3.062   5.659 -0.1049  0.2874 -0.3328
 9533TIP3    H150014   6.278   3.131   5.635  0.9401 -0.3458  0.5168
 9533TIP3    H250015   6.138   3.109   5.689  0.0938  1.0903 -1.0624
 9534TIP3   OH250016   3.524   4.945  16.330 -0.3199 -0.2623  0.6958
 9534TIP3    H150017   3.465   5.020  16.335 -1.8668 -1.4720  0.9669
 9534TIP3    H250018   3.612   4.984  16.324 -1.0628  1.5494  1.2208
 9535TIP3   OH250019   0.574   4.911  12.896  0.3838 -0.0002 -0.5277
 9535TIP3    H150020   0.610   4.885  12.811  1.1606 -2.0522  0.3948
 9535TIP3    H250021   0.499   4.853  12.909 -0.4915  1.1448 -0.3488
 9536TIP3   OH250022   1.519   3.549  12.920 -0.5907 -0.3908 -0.5744
 9536TIP3    H150023   1.497   3.551  12.827 -0.7153 -1.2710 -0.5712
 9536TIP3    H250024   1.503   3.458  12.946  3.1923 -1.1276 -0.5903
 9537TIP3   OH250025   5.023   1.988   2.340  0.6081  0.3830 -0.0622
 9537TIP3    H150026   5.011   2.078   2.369  1.6355  0.7264 -0.6618
 9537TIP3    H250027   5.116   1.983   2.316  0.1845 -0.3518 -1.6157
 9538TIP3   OH250028   4.032   5.106   4.859 -0.2042  0.3628 -0.4150
 9538TIP3    H150029   4.010   5.183   4.806  0.5408  1.4055  0.7655
 9538TIP3    H250030   3.949   5.078   4.897 -0.3650  1.0017 -0.2950
 9539TIP3   OH250031   0.425   3.578   5.782 -0.1471  0.5606 -0.4015
 9539TIP3    H150032   0.465   3.639   5.720 -0.5079  0.0496 -1.1317
 9539TIP3    H250033   0.500   3.535   5.825  0.1265  1.9890  0.6075
 9540TIP3   OH250034   5.149   2.127   3.240 -0.1575 -0.0915 -0.0786
 9540TIP3    H150035   5.069   2.087   3.208  0.5883 -1.5211 -0.2070
 9540TIP3    H250036   5.179   2.183   3.168 -0.2222 -0.7601 -0.6310
 9541TIP3   OH250037   1.431   0.032  15.834 -0.2279  0.1354  0.5286
 9541TIP3    H150038   1.344   0.068  15.818 -0.4055 -1.2341 -1.7858
 9541TIP3    H250039   1.490   0.089  15.785 -0.0046  0.0161  0.6578
 9542TIP3   OH250040   4.676   6.702   5.557 -0.3046 -0.2111  0.0293
 9542TIP3    H150041   4.642   6.655   5.633  0.9101 -2.4779 -0.7899
 9542TIP3    H250042   4.676   6.637   5.487  3.0581  0.4978 -0.6913
 9543TIP3   OH250043   3.265   5.113   1.826 -0.2259 -1.0290 -0.4740
 9543TIP3    H150044   3.346   5.144   1.785  0.0487 -0.0382  0.7846
 9543TIP3    H250045   3.267   5.018   1.813  0.3709 -0.8572 -1.8129
 9544TIP3   OH250046   5.070   2.919   4.573 -0.3777  0.9490 -0.1314
 9544TIP3    H150047   5.041   2.875   4.652 -2.6616  1.5849 -0.5667
 9544TIP3    H250048   5.029   3.006   4.577  0.7460  1.5623 -1.2469
 9545TIP3   OH250049   2.070   1.094  16.819 -0.3622  0.4789 -0.0927
 9545TIP3    H150050   2.011   1.079  16.893  1.0884  0.3020  1.0456
 9545TIP3    H250051   2.053   1.021  16.760 -0.2904 -0.3358  0.8816
 9546TIP3   OH250052   4.187   0.267  10.712  0.5569  0.3242  0.1167
 9546TIP3    H150053   4.105   0.292  10.753  0.5443  0.9177 -0.2716
 9546TIP3    H250054   4.227   0.349  10.686  0.9711 -0.0038 -0.2854
 9547TIP3   OH250055   4.127   3.382  16.682 -0.7353  0.1283  0.3306
 9547TIP3    H150056   4.198   3.440  16.711 -0.7823  1.1078 -1.4541
 9547TIP3    H250057   4.049   3.418  16.724 -0.5459  0.5209  0.3559
 9548TIP3   OH250058   2.600   3.170  12.476 -0.6943  0.2899 -0.0835
 9548TIP3    H150059   2.681   3.201  12.436 -0.1439  1.0215  1.5287
 9548TIP3    H250060   2.588   3.082  12.441  1.1831 -0.1034  0.1636
 9549TIP3   OH250061   5.374   5.372  12.410 -0.0145  0.3680  0.1150
 9549TIP3    H150062   5.377   5.376  12.505  0.9412  2.5819  0.0387
 9549TIP3    H250063   5.463   5.396  12.382  0.5656 -3.1230 -1.3054
 9550TIP3   OH250064   0.511   1.194  16.484 -0.6654  0.5506 -0.0225
 9550TIP3    H150065   0.603   1.207  16.507 -1.5484  2.7456  2.4136
 9550TIP3    H250066   0.509   1.198  16.388  1.7247  0.6637 -0.0798
 9551TIP3   OH250067   1.404   2.655   6.158  0.8239  0.0555  0.0167
 9551TIP3    H150068   1.377   2.707   6.234  3.2973  1.2305  0.1598
 9551TIP3    H250069   1.475   2.599   6.192 -0.2825 -1.8299 -0.6728
 9552TIP3   OH250070   4.716   2.690  16.967 -0.0782 -0.5341  0.1077
 9552TIP3    H150071   4.672   2.617  16.924  0.1119 -0.4895 -0.1637
 9552TIP3    H250072   4.719   2.759  16.900 -1.2833  0.1362  0.7168
 9553TIP3   OH250073   0.833   4.549  16.595 -0.2839  0.9582  0.4727
 9553TIP3    H150074   0.869   4.496  16.666  0.6318 -1.3853 -1.6834
 9553TIP3    H250075   0.867   4.637  16.611  0.9431  0.1839  2.2284
 9554TIP3   OH250076   5.114   1.817   2.585  0.4921  0.2588  0.0147
 9554TIP3    H150077   5.059   1.858   2.652 -1.1864 -3.6664  1.1674
 9554TIP3    H250078   5.069   1.834   2.503 -1.3671 -1.0972  0.7212
 9555TIP3   OH250079   1.078   1.759   2.059  0.2802  0.0305 -0.7341
 9555TIP3    H150080   1.000   1.767   2.004 -0.3984  3.4316  0.5709
 9555TIP3    H250081   1.047   1.784   2.147  2.1884 -1.5756  0.4398
 9556TIP3   OH250082   1.347   5.543  13.029  0.4435  0.3227  0.3174
 9556TIP3    H150083   1.290   5.501  13.094  1.2426 -1.4664 -0.1052
 9556TIP3    H250084   1.419   5.481  13.017  0.0450  0.3902 -2.6436
 9557TIP3   OH250085   2.218   1.862  13.450 -0.3385 -0.3719  0.1360
 9557TIP3    H150086   2.229   1.849  13.544 -0.0629  2.7490  0.5904
 9557TIP3    H250087   2.306   1.853  13.414  0.1287  1.8419  0.6717
 9558TIP3   OH250088   4.321   2.154   4.225 -0.5009 -0.3447 -0.3885
 9558TIP3    H150089   4.256   2.120   4.164 -0.8653  0.5901 -0.5309
 9558TIP3    H250090   4.273   2.168   4.306 -0.9624  2.1864 -1.0476
 9559TIP3   OH250091   0.523   4.044  11.614 -0.3191  0.4220 -0.4702
 9559TIP3    H150092   0.605   3.997  11.629 -1.1560 -1.0492 -0.5099
 9559TIP3    H250093   0.525   4.067  11.521 -0.0385  0.2129 -0.5160
 9560TIP3   OH250094   4.908   3.371   0.234 -0.0638 -0.2607 -0.4652
 9560TIP3    H150095   4.896   3.277   0.248  4.1431 -0.8101  0.0915
 9560TIP3    H250096   4.881   3.411   0.316 -1.1202 -1.0224 -0.4197
 9561TIP3   OH250097   1.264   5.102  13.699 -0.4722 -0.5062  0.2674
 9561TIP3    H150098   1.223   5.050  13.768  0.5867 -1.5207  0.1473
 9561TIP3    H250099   1.328   5.043  13.660  0.4173  0.7488 -0.1840
 9562TIP3   OH250100   1.104   1.717  14.894  0.5185  0.1895 -0.0504
 9562TIP3    H150101   1.151   1.649  14.943  0.8470  0.3372 -0.1544
 9562TIP3    H250102   1.027   1.736  14.947  0.7273  0.1473  0.2738
 9563TIP3   OH250103   5.740   0.961   1.339 -0.0162  0.2499  0.1849
 9563TIP3    H150104   5.747   0.979   1.433  1.0040  0.3262  0.1076
 9563TIP3    H250105   5.733   1.048   1.298 -1.4251  0.1720  0.2577
 9564TIP3   OH250106   1.068   0.456   1.207  0.0098  0.6059 -0.2034
 9564TIP3    H150107   1.061   0.366   1.239 -0.6145  0.3635 -1.0070
 9564TIP3    H250108   1.053   0.449   1.113  0.9636  1.4241 -0.4252
 9565TIP3   OH250109   6.070   4.514   3.005 -0.0045  0.0671  0.6371
 9565TIP3    H150110   6.141   4.474   2.954  1.1513  2.1959  0.5299
 9565TIP3    H250111   6.109   4.530   3.091 -1.1721 -1.1371  1.4157
 9566TIP3   OH250112   0.027   3.220  11.492 -0.5082 -0.5949 -0.0090
 9566TIP3    H150113   0.029   3.211  11.588  0.4356 -1.9764 -0.1481
 9566TIP3    H250114  -0.047   3.278  11.475  0.2896  0.9850  1.6681
 9567TIP3   OH250115   2.548   6.012  11.935  0.1239 -0.4929  0.5275
 9567TIP3    H150116   2.636   6.048  11.928 -0.5608  1.6435  2.1944
 9567TIP3    H250117   2.553   5.951  12.008  0.1277 -0.0915  0.8623
 9568TIP3   OH250118   2.406   4.887   2.065 -0.5685 -0.2080  0.5386
 9568TIP3    H150119   2.375   4.886   1.974 -0.6865 -0.4000  0.5824
 9568TIP3    H250120   2.478   4.951   2.065  0.5126 -1.3915 -0.0426
 9569TIP3   OH250121   5.711   3.019   3.098 -0.0918 -0.0239  0.2783
 9569TIP3    H150122   5.779   2.965   3.139  1.8091  0.2834 -2.3079
 9569TIP3    H250123   5.690   3.086   3.163  2.2885  0.0214  1.0449
 9570TIP3   OH250124   1.668   1.168   5.564 -0.3734 -0.0756  0.5753
 9570TIP3    H150125   1.632   1.252   5.534  0.0670  0.0276  0.3300
 9570TIP3    H250126   1.730   1.143   5.496 -2.2824 -1.8171 -0.5457
 9571TIP3   OH250127   6.326   2.199   3.712 -0.1231 -0.2997  0.0436
 9571TIP3    H150128   6.231   2.212   3.711  0.2304  2.4867  0.6950
 9571TIP3    H250129   6.356   2.243   3.632  0.5138 -2.4104 -0.9246
 9572TIP3   OH250130   6.487   6.256  16.863  0.0904 -0.0238  0.0580
 9572TIP3    H150131   6.523   6.167  16.866 -0.1187 -0.0700  2.8105
 9572TIP3    H250132   6.418   6.252  16.797  1.7090 -1.2508 -1.6190
 9573TIP3   OH250133   0.428   0.423   2.175 -0.0710 -0.0033 -0.1900
 9573TIP3    H150134   0.423   0.419   2.080  1.0789  0.4400 -0.2744
 9573TIP3    H250135   0.441   0.516   2.194 -0.4672 -0.0675  0.4131
 9574TIP3   OH250136   4.663   2.257   3.114 -0.5062  0.5194 -0.1329
 9574TIP3    H150137   4.580   2.260   3.161  0.8190 -2.6141  2.5963
 9574TIP3    H250138   4.641   2.215   3.030 -1.6978 -0.1968  0.5260
 9575TIP3   OH250139   1.834   5.992  13.856 -0.1872  0.3399 -0.4963
 9575TIP3    H150140   1.744   6.002  13.888  0.0881 -0.8380  0.6913
 9575TIP3    H250141   1.888   6.032  13.925  0.1494  2.1762 -1.7809
 9576TIP3   OH250142   0.139   2.781   3.744  0.1403 -0.3413  0.8650
 9576TIP3    H150143   0.221   2.817   3.709  0.0187 -0.0004  0.9327
 9576TIP3    H250144   0.166   2.699   3.786  0.5362  0.0292  1.3476
 9577TIP3   OH250145   2.075   3.521  10.907 -0.9800  0.0765  0.2773
 9577TIP3    H150146   2.135   3.531  10.833 -1.8994  0.0213 -0.4846
 9577TIP3    H250147   2.035   3.608  10.916 -1.4287 -0.1226  0.2171
 9578TIP3   OH250148   4.266   6.748   5.261  0.1110 -0.4240 -0.5867
 9578TIP3    H150149   4.215   6.757   5.342  1.4330  1.0394  0.1044
 9578TIP3    H250150   4.214   6.793   5.195 -0.6911 -1.1093 -0.4326
 9579TIP3   OH250151   4.447   6.732   6.612  0.1877  0.1380 -0.7478
 9579TIP3    H150152   4.441   6.636   6.615 -0.2183  0.1626 -0.7532
 9579TIP3    H250153   4.472   6.757   6.701  2.2693 -0.1039 -1.2395
 9580TIP3   OH250154   3.282   3.862  12.477 -0.3946  0.2009  0.3337
 9580TIP3    H150155   3.262   3.917  12.402 -0.5963  0.9184  0.9085
 9580TIP3    H250156   3.205   3.807  12.488 -0.4035  0.1617  0.0768
 9581TIP3   OH250157   5.295   6.652  13.786  0.3384  0.2387  0.3160
 9581TIP3    H150158   5.275   6.699  13.705  3.6832 -1.1717 -1.4053
 9581TIP3    H250159   5.280   6.560  13.765  1.9493 -0.2089  1.0431
 9582TIP3   OH250160   5.785   2.282  12.301  0.1823  0.6431  0.7338
 9582TIP3    H150161   5.803   2.375  12.307  1.2330  0.4992 -0.0935
 9582TIP3    H250162   5.714   2.275  12.237  0.0535  0.8859  0.8514
 9583TIP3   OH250163   5.939   4.171   5.181 -0.0581  0.4781  0.2480
 9583TIP3    H150164   5.918   4.247   5.127  0.4489  0.0074 -0.6415
 9583TIP3    H250165   6.012   4.200   5.237  0.3190  0.5691 -0.2834
 9584TIP3   OH250166   4.776   2.880  14.414 -0.3573 -0.4706  0.4824
 9584TIP3    H150167   4.711   2.944  14.444  0.2209  0.1224  0.5009
 9584TIP3    H250168   4.730   2.797  14.415 -1.5019  0.1316 -0.7308
 9585TIP3   OH250169   5.808   6.678   1.968 -0.4398  0.2010  0.2503
 9585TIP3    H150170   5.791   6.763   1.928 -1.7274  0.6281  1.6494
 9585TIP3    H250171   5.841   6.698   2.055  0.5418 -0.7387  0.1154
 9586TIP3   OH250172   2.336   1.862   3.793  0.4149  0.0952 -0.3509
 9586TIP3    H150173   2.293   1.864   3.878  3.7019 -1.4385  1.4397
 9586TIP3    H250174   2.388   1.942   3.792  0.8878 -0.2154 -0.6203
 9587TIP3   OH250175   4.277   0.455   3.927 -0.2174  0.2312 -0.0105
 9587TIP3    H150176   4.225   0.501   3.862 -0.4938  2.5239  1.7691
 9587TIP3    H250177   4.213   0.413   3.984 -0.0061 -0.5519 -0.3418
 9588TIP3   OH250178   6.041   1.891   6.568 -0.4550 -0.1002 -0.9385
 9588TIP3    H150179   6.080   1.948   6.502  0.2623  0.2475 -0.2209
 9588TIP3    H250180   5.967   1.942   6.602 -0.2293  0.1217 -0.7798
 9589TIP3   OH250181   2.268   2.469  14.096 -0.0921  0.0186  0.3569
 9589TIP3    H150182   2.296   2.424  14.017 -2.6319  0.0730 -0.6222
 9589TIP3    H250183   2.206   2.536  14.065 -2.2722 -0.9430  2.4775
 9590TIP3   OH250184   1.013   5.235   6.049 -0.2224 -0.0288  0.3378
 9590TIP3    H150185   0.991   5.175   5.977  0.9804 -0.9079  0.6809
 9590TIP3    H250186   0.985   5.321   6.018 -1.5617 -0.6977 -0.3524
 9591TIP3   OH250187   0.372   2.346   1.425  0.1392  0.3066 -0.0976
 9591TIP3    H150188   0.302   2.410   1.437 -0.2716 -0.4034  1.3267
 9591TIP3    H250189   0.351   2.302   1.343 -0.2451  1.1311 -0.4517
 9592TIP3   OH250190   0.396   4.528   2.166  0.6558 -0.1889 -0.2396
 9592TIP3    H150191   0.384   4.600   2.228 -0.7440  0.4436 -1.2128
 9592TIP3    H250192   0.323   4.468   2.185 -0.3131  0.4460 -1.8436
 9593TIP3   OH250193   5.548   5.787  16.292 -0.0244  0.4740 -0.4792
 9593TIP3    H150194   5.509   5.863  16.335 -0.2125  0.2663 -0.2843
 9593TIP3    H250195   5.638   5.785  16.323  0.2736  1.2217 -1.2811
 9594TIP3   OH250196   0.381   0.125  11.982 -0.2537 -0.0235  0.2580
 9594TIP3    H150197   0.437   0.055  11.948 -1.7046 -0.6677 -0.8703
 9594TIP3    H250198   0.324   0.081  12.046 -2.7216 -0.4177 -2.0926
 9595TIP3   OH250199   2.188   0.036  13.147  0.2583  0.9298  0.4630
 9595TIP3    H150200   2.256   0.083  13.098  0.2504  0.4113 -0.0558
 9595TIP3    H250201   2.115   0.029  13.086 -0.3384  1.6590  1.0898
 9596TIP3   OH250202   2.682   6.274   2.729  0.4428 -0.1633 -0.3396
 9596TIP3    H150203   2.598   6.241   2.762 -0.2934  2.4814  0.5942
 9596TIP3    H250204   2.660   6.312   2.643  0.3968  1.7056  0.4817
 9597TIP3   OH250205   6.782   4.044   1.718 -0.7247 -0.4658  0.6785
 9597TIP3    H150206   6.793   4.119   1.777 -0.7687 -0.2146  0.3697
 9597TIP3    H250207   6.867   4.034   1.676 -1.5259  1.2619 -1.4556
 9598TIP3   OH250208   1.522   2.710   0.551 -0.8089  1.1026  0.3954
 9598TIP3    H150209   1.596   2.690   0.609 -1.4619 -0.8917  0.5851
 9598TIP3    H250210   1.563   2.744   0.472  0.4645 -1.3561 -0.0704
 9599TIP3   OH250211   1.209   3.382   2.736  0.1300 -0.2896 -0.1961
 9599TIP3    H150212   1.269   3.435   2.789 -2.0100  0.2718  1.7419
 9599TIP3    H250213   1.267   3.328   2.682  2.3639  1.7040  0.1120
 9600TIP3   OH250214   2.298   0.818   6.595 -0.1624  0.2340  0.7879
 9600TIP3    H150215   2.347   0.882   6.543  0.7521  0.1661  1.5554
 9600TIP3    H250216   2.344   0.735   6.581  0.4502  0.3245  2.1572
 9601TIP3   OH250217   0.468   5.463  11.471  0.1099  0.5838  0.0088
 9601TIP3    H150218   0.380   5.435  11.495  0.0134 -0.1852 -1.2022
 9601TIP3    H250219   0.481   5.545  11.520 -0.5691 -0.2307  1.6034
 9602TIP3   OH250220   2.708   0.375  14.511 -0.8639  0.0819 -0.5408
 9602TIP3    H150221   2.670   0.287  14.514 -1.3382  0.2531 -1.2943
 9602TIP3    H250222   2.658   0.425  14.575  0.2914 -0.5314  0.8578
 9603TIP3   OH250223   5.703   0.909   4.725 -0.0048  0.4504  0.7850
 9603TIP3    H150224   5.729   0.819   4.702 -0.1324  0.4241  0.7428
 9603TIP3    H250225   5.623   0.924   4.675  1.0009  1.2307 -0.6328
 9604TIP3   OH250226   4.873   2.572  17.139 -0.4945  0.9401 -0.6488
 9604TIP3    H150227   4.825   2.631  17.080  1.3382  2.7793 -0.3617
 9604TIP3    H250228   4.834   2.587  17.225 -0.5993  1.1413 -0.7314
 9605TIP3   OH250229   6.134   2.695   1.414 -0.2252  0.1124  0.5598
 9605TIP3    H150230   6.067   2.755   1.382  1.3566  1.6836  0.0666
 9605TIP3    H250231   6.217   2.742   1.400  0.8092 -0.6816  3.5082
 9606TIP3   OH250232   6.178   4.926   6.638 -0.2890 -0.5769  0.1922
 9606TIP3    H150233   6.112   4.932   6.706 -0.9544  0.0697 -0.4985
 9606TIP3    H250234   6.240   4.997   6.658  1.0292 -2.1225  1.7003
 9607TIP3   OH250235   2.630   4.729   1.622 -0.0594  0.0226 -0.2826
 9607TIP3    H150236   2.641   4.634   1.633 -1.5958  0.1551  3.1104
 9607TIP3    H250237   2.537   4.741   1.604 -0.3513  1.0192  1.7224
 9608TIP3   OH250238   0.334   1.737  14.911 -0.1859 -0.1686 -0.1354
 9608TIP3    H150239   0.319   1.770  15.000 -0.8348 -0.4956 -0.1130
 9608TIP3    H250240   0.339   1.642  14.922  0.1311 -0.1810 -0.3950
 9609TIP3   OH250241   3.056   2.491   3.314 -0.5032 -0.2085  0.1065
 9609TIP3    H150242   3.131   2.452   3.269 -2.7461 -3.1361 -1.2181
 9609TIP3    H250243   3.066   2.463   3.405  0.6077  0.3893  0.1821
 9610TIP3   OH250244   0.285   0.608   5.801 -0.1630  0.4696 -0.2883
 9610TIP3    H150245   0.377   0.620   5.825 -0.6011 -1.8191  2.7335
 9610TIP3    H250246   0.237   0.629   5.881 -2.1069 -0.7759 -1.1172
 9611TIP3   OH250247   5.895   1.562  15.913 -0.1501 -0.5748  0.1095
 9611TIP3    H150248   5.971   1.555  15.971 -0.7458  0.5279  1.0336
 9611TIP3    H250249   5.859   1.473  15.909 -0.1431 -0.6446  1.4685
 9612TIP3   OH250250   2.828   1.175  13.988 -0.5557  0.2907  0.0182
 9612TIP3    H150251   2.921   1.187  14.007 -0.4394  0.7549 -0.8010
 9612TIP3    H250252   2.782   1.220  14.060 -0.1275  3.1200 -1.3800
 9613TIP3   OH250253   1.448   6.697   0.318 -0.1939  0.6976 -0.0668
 9613TIP3    H150254   1.353   6.703   0.323 -0.2020 -0.0475  0.8089
 9613TIP3    H250255   1.475   6.670   0.406  0.7356 -0.2445 -0.6318
 9614TIP3   OH250256   1.762   2.461  11.475 -0.1164 -0.3216  0.3479
 9614TIP3    H150257   1.749   2.413  11.557 -0.1144  1.2849  1.3071
 9614TIP3    H250258   1.828   2.527  11.496 -0.5816  0.5199 -0.7641
 9615TIP3   OH250259   3.160   1.331  10.765  0.0643 -0.1639  0.5777
 9615TIP3    H150260   3.172   1.291  10.851  0.3261  1.5496  1.3638
 9615TIP3    H250261   3.074   1.372  10.768  0.1873  0.1448  0.1307
 9616TIP3   OH250262   6.233   6.428   4.821 -0.3071  0.2138  0.1518
 9616TIP3    H150263   6.304   6.464   4.768 -0.1948  1.3734  1.0702
 9616TIP3    H250264   6.154   6.448   4.772 -0.0532 -0.6302 -0.6256
 9617TIP3   OH250265   6.323   6.104   6.012  0.0194  0.1300 -0.2904
 9617TIP3    H150266   6.242   6.118   6.061 -0.2174 -1.5426 -0.1791
 9617TIP3    H250267   6.388   6.080   6.077  0.2237 -0.0271 -0.5492
 9618TIP3   OH250268   0.696   0.635   2.400 -0.0892 -0.3003 -0.3015
 9618TIP3    H150269   0.644   0.615   2.478 -0.5803 -1.1123 -0.8311
 9618TIP3    H250270   0.726   0.725   2.414 -1.8443  0.2779 -0.0905
 9619TIP3   OH250271   4.065   4.658  16.366  0.3158 -0.7927  0.2545
 9619TIP3    H150272   4.010   4.580  16.371 -0.6116 -0.1320  0.4374
 9619TIP3    H250273   4.094   4.661  16.275 -0.3537 -0.8745  0.0351
 9620TIP3   OH250274   3.522   5.565  13.074  0.2279  0.0073 -0.1892
 9620TIP3    H150275   3.433   5.531  13.064  0.4674 -0.4088 -1.0264
 9620TIP3    H250276   3.571   5.492  13.113  0.2428  0.1793  0.1166
 9621TIP3   OH250277   2.146   3.605   3.429  0.1439  0.4934 -0.3107
 9621TIP3    H150278   2.082   3.586   3.497 -0.0723  1.1808 -0.3155
 9621TIP3    H250279   2.174   3.520   3.398  0.0202  0.1799  0.4341
 9622TIP3   OH250280   6.653   2.169   1.031  0.2508 -0.1131  0.3467
 9622TIP3    H150281   6.573   2.197   1.074  0.5171 -0.1751  0.8860
 9622TIP3    H250282   6.627   2.153   0.940 -0.1047  0.9495  0.2542
 9623TIP3   OH250283   0.435   3.084  13.744 -0.2534  0.6641  0.5329
 9623TIP3    H150284   0.458   3.065  13.653 -2.4859  0.9255 -0.1162
 9623TIP3    H250285   0.514   3.062  13.794 -0.4934 -4.0900 -0.9024
 9624TIP3   OH250286   6.392   4.277   4.668 -0.0996  0.0845  0.7948
 9624TIP3    H150287   6.424   4.268   4.578 -0.3368 -0.5884  0.7747
 9624TIP3    H250288   6.455   4.228   4.721  0.1048  0.5780  1.0155
 9625TIP3   OH250289   5.793   2.039   6.585  0.0361 -0.1322 -0.6163
 9625TIP3    H150290   5.772   2.091   6.508  1.9401 -1.6575 -2.1961
 9625TIP3    H250291   5.728   2.066   6.650 -0.9655  1.9015 -2.4090
 9626TIP3   OH250292   3.628   2.442   1.600  0.4434 -0.1124  0.1597
 9626TIP3    H150293   3.632   2.395   1.683  2.1748 -0.9013 -0.3471
 9626TIP3    H250294   3.577   2.386   1.542 -0.5401  0.3164  0.5972
 9627TIP3   OH250295   3.456   3.477  13.864 -0.3030  0.4506 -0.1147
 9627TIP3    H150296   3.437   3.546  13.928  2.2252  0.6623  0.4439
 9627TIP3    H250297   3.430   3.514  13.780 -0.7766  1.3377  0.4169
 9628TIP3   OH250298   3.650   3.682  16.583  0.4294  0.0281  0.5578
 9628TIP3    H150299   3.556   3.666  16.582  0.5519 -0.7008  0.0976
 9628TIP3    H250300   3.685   3.623  16.515  0.9985  1.6874 -0.6245
 9629TIP3   OH250301   1.394   0.310   2.093 -0.2781  0.3277 -0.2080
 9629TIP3    H150302   1.301   0.291   2.101 -1.0156  3.0457 -1.6646
 9629TIP3    H250303   1.434   0.225   2.073 -2.5223 -0.7660 -0.1999
 9630TIP3   OH250304   5.424   6.321  14.843 -0.1349  0.2652 -0.7263
 9630TIP3    H150305   5.338   6.293  14.812  0.6799 -0.7956 -2.0751
 9630TIP3    H250306   5.405   6.372  14.921 -1.8339 -2.0746  0.4681
 9631TIP3   OH250307   2.894   5.199  12.992  0.1416 -0.9353 -0.4875
 9631TIP3    H150308   2.817   5.226  12.941  1.3067  0.3142 -1.6137
 9631TIP3    H250309   2.952   5.158  12.928  1.2560 -0.1074 -0.0231
 9632TIP3   OH250310   1.972   6.604  13.261 -0.1737 -0.0999  0.2658
 9632TIP3    H150311   2.016   6.688  13.253  0.1076 -0.2465  0.2407
 9632TIP3    H250312   1.902   6.619  13.323  0.2325  0.0088  0.7009
 9633TIP3   OH250313   0.714   5.889   4.940 -0.0926  0.2604  0.0303
 9633TIP3    H150314   0.775   5.942   4.992  0.5759  0.6402 -1.1105
 9633TIP3    H250315   0.710   5.934   4.855  0.0949 -1.2286 -0.7908
 9634TIP3   OH250316   5.512   1.894   3.609 -0.1124  0.1965  0.2053
 9634TIP3    H150317   5.524   1.969   3.551 -0.5175 -0.4054 -0.6602
 9634TIP3    H250318   5.422   1.867   3.595  0.8481 -2.1730 -1.5446
 9635TIP3   OH250319   0.257   0.747   2.004 -0.1359 -0.1773  0.2458
 9635TIP3    H150320   0.304   0.744   2.086  0.8523  1.8255 -0.2091
 9635TIP3    H250321   0.315   0.706   1.940 -0.3156 -0.5033  0.2952
 9636TIP3   OH250322   4.915   4.119   5.111  0.1445  0.9234  0.3302
 9636TIP3    H150323   4.886   4.065   5.037  2.2764  0.4539 -0.1866
 9636TIP3    H250324   4.902   4.063   5.187 -1.5931  1.2297  0.2917
 9637TIP3   OH250325   5.760   4.562  13.762 -0.0269  0.3630 -0.2485
 9637TIP3    H150326   5.822   4.489  13.766  1.1760  1.4074  0.6960
 9637TIP3    H250327   5.686   4.533  13.816 -0.3732 -0.8844 -1.3723
 9638TIP3   OH250328   3.040   5.967   4.556 -0.0549 -0.2904 -0.4261
 9638TIP3    H150329   3.050   6.061   4.544  1.5149 -0.3583  0.1696
 9638TIP3    H250330   2.978   5.940   4.488 -2.1335  1.4771  0.7304
 9639TIP3   OH250331   1.360   4.879  13.599 -0.5255  0.1887 -0.0281
 9639TIP3    H150332   1.329   4.828  13.674 -1.4024  0.0160 -0.5094
 9639TIP3    H250333   1.341   4.825  13.523 -0.2147  0.6443 -0.4356
 9640TIP3   OH250334   6.604   6.206  12.255  0.0319  0.4478 -0.2286
 9640TIP3    H150335   6.542   6.277  12.240  0.4769  1.3121  1.8194
 9640TIP3    H250336   6.637   6.222  12.343  2.2554 -0.6967 -0.8227
 9641TIP3   OH250337   0.413   5.163   1.223  0.2032  0.6871  0.6094
 9641TIP3    H150338   0.358   5.136   1.149  0.1988 -1.9828  1.5346
 9641TIP3    H250339   0.501   5.134   1.199  0.1741 -0.3360  1.6998
 9642TIP3   OH250340   4.480   4.158   3.145 -0.1627 -0.2823 -0.3950
 9642TIP3    H150341   4.540   4.151   3.220  0.5257  0.1939 -0.9040
 9642TIP3    H250342   4.463   4.252   3.137  0.1353 -0.2927 -1.1370
 9643TIP3   OH250343   3.937   2.087   5.575 -0.4798 -0.3626  0.2947
 9643TIP3    H150344   3.990   2.152   5.529 -0.8301 -1.2521 -1.3849
 9643TIP3    H250345   3.848   2.100   5.541 -0.8341 -0.7301  1.0577
 9644TIP3   OH250346   4.079   0.916  12.488  0.7455  0.1545  0.1660
 9644TIP3    H150347   4.122   0.876  12.413 -0.0101 -1.5252  0.6060
 9644TIP3    H250348   4.110   1.007  12.488  2.4160 -0.3961 -0.9037
 9645TIP3   OH250349   3.320   5.510   1.170  0.1439 -0.5424  0.4240
 9645TIP3    H150350   3.328   5.537   1.261 -0.5997 -0.4965  0.4825
 9645TIP3    H250351   3.364   5.426   1.166  0.3598 -0.4468  0.7827
 9646TIP3   OH250352   2.786   0.484   2.630 -0.0710  0.4163 -0.1701
 9646TIP3    H150353   2.819   0.454   2.545 -1.2729 -0.0331 -0.4849
 9646TIP3    H250354   2.759   0.574   2.615  1.3208  0.9169  0.1847
 9647TIP3   OH250355   1.905   4.758  10.622  0.4114 -0.0679  0.2200
 9647TIP3    H150356   1.971   4.819  10.655 -0.3617 -0.0083  1.7007
 9647TIP3    H250357   1.925   4.675  10.665 -0.0324 -0.2391  0.1012
 9648TIP3   OH250358   1.406   5.553  12.666  0.7138 -0.1412 -0.5399
 9648TIP3    H150359   1.450   5.582  12.587  1.2062  0.2425 -0.1304
 9648TIP3    H250360   1.369   5.634  12.703  1.1201 -0.2084  0.0107
 9649TIP3   OH250361   2.623   4.897   5.637 -0.0774 -0.0888 -0.0929
 9649TIP3    H150362   2.559   4.965   5.614 -1.0522 -0.2526  2.0034
 9649TIP3    H250363   2.675   4.937   5.707 -1.0506 -1.6872  1.5798
 9650TIP3   OH250364   6.786   6.354   1.607 -0.5266 -0.0170  0.5538
 9650TIP3    H150365   6.745   6.413   1.543 -1.3613 -1.9052 -0.6908
 9650TIP3    H250366   6.812   6.278   1.557 -0.3925 -1.1707  2.3199
 9651TIP3   OH250367   2.488   2.801   2.898  0.2847 -0.3277  0.2487
 9651TIP3    H150368   2.485   2.897   2.903  3.3328 -0.1442 -0.8898
 9651TIP3    H250369   2.525   2.774   2.982 -1.3127 -0.6140  0.8967
 9652TIP3   OH250370   2.043   0.125   1.950  0.1020  0.4023 -0.3216
 9652TIP3    H150371   2.027   0.173   1.869  1.6183 -0.5925 -1.2457
 9652TIP3    H250372   1.976   0.156   2.010  1.2159  3.9035 -0.7899
 9653TIP3   OH250373   3.061   6.225  13.653 -0.3277  0.1429  0.2915
 9653TIP3    H150374   3.151   6.258  13.654  0.0792 -0.8963 -1.0332
 9653TIP3    H250375   3.042   6.204  13.744  0.6884  0.5922  0.6167
 9654TIP3   OH250376   6.059   5.371  15.501 -0.1940 -0.3837  0.6719
 9654TIP3    H150377   6.086   5.315  15.573  0.4987  2.1376  2.4503
 9654TIP3    H250378   6.138   5.422  15.479 -0.2374 -1.4782 -2.2435
 9655TIP3   OH250379   3.427   3.294  13.416 -0.0739 -0.2247 -0.7293
 9655TIP3    H150380   3.381   3.373  13.389  0.5210  0.1365 -0.6983
 9655TIP3    H250381   3.423   3.237  13.339  0.5127  0.3006 -1.1543
 9656TIP3   OH250382   4.532   1.491   5.505  0.4101  0.1383 -0.2167
 9656TIP3    H150383   4.505   1.483   5.597  3.7596 -2.2794  0.6528
 9656TIP3    H250384   4.512   1.582   5.482 -2.4616  0.2049  2.2117
 9657TIP3   OH250385   3.448   0.400   4.631 -0.3828  0.3448  0.5518
 9657TIP3    H150386   3.412   0.484   4.658 -0.0274  0.0501  1.9998
 9657TIP3    H250387   3.390   0.370   4.560  0.6250  2.6867 -1.3405
 9658TIP3   OH250388   5.678   5.352  12.852  0.0309  0.7971  0.2661
 9658TIP3    H150389   5.712   5.396  12.774 -2.3516  0.7290 -0.8624
 9658TIP3    H250390   5.715   5.264  12.848  0.9984  1.2148 -0.0479
 9659TIP3   OH250391   2.555   0.936   1.099  0.4041 -0.3500 -0.1414
 9659TIP3    H150392   2.650   0.921   1.098  0.0600 -2.6016  0.1701
 9659TIP3    H250393   2.524   0.889   1.176 -0.8878  0.9676  0.1625
 9660TIP3   OH250394   5.227   3.927  12.300 -0.1178 -0.4853 -0.7346
 9660TIP3    H150395   5.234   3.832  12.291  2.0017 -0.4843  0.7027
 9660TIP3    H250396   5.144   3.949  12.257 -0.1051 -2.8416 -2.0370
 9661TIP3   OH250397   2.141   4.396   4.465 -0.2314 -0.1961 -0.1013
 9661TIP3    H150398   2.061   4.443   4.439 -0.1662 -0.3132 -0.5076
 9661TIP3    H250399   2.113   4.340   4.538 -0.0284  1.4509  1.2742
 9662TIP3   OH250400   5.608   1.086  16.286 -0.2032  0.2648 -0.6783
 9662TIP3    H150401   5.635   1.141  16.212 -1.4114  1.4456 -0.2496
 9662TIP3    H250402   5.679   1.022  16.294  1.3835  1.9396 -0.9946
 9663TIP3   OH250403   3.147   5.743   1.159 -0.5036  0.2491 -0.1407
 9663TIP3    H150404   3.159   5.648   1.161 -0.9609  0.0437 -3.6560
 9663TIP3    H250405   3.078   5.760   1.224 -1.4188 -2.0105 -0.4943
 9664TIP3   OH250406   1.280   0.250  11.831  0.0708 -0.5697 -0.2220
 9664TIP3    H150407   1.277   0.194  11.753  0.5300 -1.8925  0.7093
 9664TIP3    H250408   1.366   0.291  11.828 -0.5423  0.6859 -1.3023
 9665TIP3   OH250409   2.160   0.377  17.015  0.1602 -0.2484  0.5571
 9665TIP3    H150410   2.226   0.410  16.953 -1.7626  1.1118 -0.8396
 9665TIP3    H250411   2.193   0.404  17.101  1.0774  1.0410 -0.1729
 9666TIP3   OH250412   1.932   0.536   0.582 -0.2505 -0.4468 -0.1028
 9666TIP3    H150413   1.907   0.494   0.664  0.9418  0.4691  0.7381
 9666TIP3    H250414   1.853   0.530   0.527 -0.9435 -1.3636  0.9692
 9667TIP3   OH250415   5.629   3.598   6.074  0.7584  0.8192  0.2262
 9667TIP3    H150416   5.674   3.652   6.139  1.8133  0.1860  0.0383
 9667TIP3    H250417   5.545   3.642   6.060  1.2704  1.9595  0.6647
 9668TIP3   OH250418   2.820   5.200  15.984 -0.4151 -0.5559  0.3516
 9668TIP3    H150419   2.881   5.133  15.952  0.3440 -0.5011  1.6171
 9668TIP3    H250420   2.780   5.161  16.062 -1.4286 -0.2937 -0.0333
 9669TIP3   OH250421   2.252   2.941   0.130 -0.3539  0.6774  0.6401
 9669TIP3    H150422   2.273   2.873   0.066 -0.7661  1.4515 -0.3221
 9669TIP3    H250423   2.196   3.002   0.083 -0.5621  1.3206  1.7076
 9670TIP3   OH250424   2.929   2.041   3.865 -0.4660  0.3066  0.7714
 9670TIP3    H150425   2.948   2.042   3.771  0.3212  0.3918  0.9285
 9670TIP3    H250426   2.929   1.948   3.888 -0.1078  0.3142  0.7988
 9671TIP3   OH250427   4.542   0.673   1.415  0.4456 -0.0824 -0.0801
 9671TIP3    H150428   4.476   0.740   1.396  1.0135  0.1378 -1.3263
 9671TIP3    H250429   4.576   0.697   1.501 -1.3703 -0.4245  0.7440
 9672TIP3   OH250430   3.589   3.302  11.128 -0.2928 -0.3610 -0.0133
 9672TIP3    H150431   3.520   3.352  11.171 -0.4097 -0.4613 -0.0838
 9672TIP3    H250432   3.571   3.211  11.151 -1.1894 -0.5608 -1.4278
 9673TIP3   OH250433   0.949   5.513   6.118 -0.0349 -0.7708  0.2709
 9673TIP3    H150434   1.030   5.541   6.161  0.6246 -1.3849 -0.5365
 9673TIP3    H250435   0.879   5.544   6.175  0.7267  1.0190  0.2570
 9674TIP3   OH250436   3.181   4.863   4.927  1.2700  0.0853 -0.2968
 9674TIP3    H150437   3.183   4.959   4.938 -0.0563 -0.0914  1.9129
 9674TIP3    H250438   3.273   4.839   4.917  1.8467  1.4034  1.4127
 9675TIP3   OH250439   3.642   3.845   5.933 -0.2558  0.1967 -0.5849
 9675TIP3    H150440   3.609   3.756   5.923  0.2377 -0.1508  0.8408
 9675TIP3    H250441   3.563   3.899   5.936 -0.7288 -0.5514  1.9830
 9676TIP3   OH250442   5.419   6.434  14.113  0.2133 -0.1845 -0.2450
 9676TIP3    H150443   5.429   6.415  14.206 -1.0893 -0.4669 -0.1459
 9676TIP3    H250444   5.483   6.503  14.096 -2.9058  3.5632  2.0691
 9677TIP3   OH250445   1.675   5.517   4.944  0.0030 -0.3978 -0.1796
 9677TIP3    H150446   1.596   5.516   4.998  0.3615 -0.7578  0.3435
 9677TIP3    H250447   1.699   5.425   4.935  0.2208 -0.3058 -0.5472
 9678TIP3   OH250448   0.007   1.977   4.815  0.1479 -0.0415 -0.4471
 9678TIP3    H150449   0.099   2.003   4.804 -0.3492  1.9285 -0.1975
 9678TIP3    H250450  -0.038   2.013   4.738 -0.7214  0.5848  0.3457
 9679TIP3   OH250451   4.047   6.466  10.561  0.1606 -0.4035  0.4700
 9679TIP3    H150452   4.083   6.545  10.519 -0.7864 -0.9079 -1.3456
 9679TIP3    H250453   3.959   6.492  10.588  0.3628 -0.4187  1.1358
 9680TIP3   OH250454   0.778   2.920   4.286  0.5429 -0.3901 -0.5086
 9680TIP3    H150455   0.722   2.995   4.305  0.6423 -0.7072  1.0845
 9680TIP3    H250456   0.864   2.945   4.320  0.1022 -2.0216  1.9444
 9681TIP3   OH250457   3.258   0.443  15.851 -0.0015  0.1564 -0.2393
 9681TIP3    H150458   3.204   0.376  15.810 -0.3377  0.1696  0.1791
 9681TIP3    H250459   3.196   0.500  15.897  0.1240  1.6906 -1.8895
 9682TIP3   OH250460   2.460   1.521   5.728 -0.0697  0.4868 -0.5517
 9682TIP3    H150461   2.499   1.512   5.815  0.8939 -1.4684 -1.1718
 9682TIP3    H250462   2.534   1.529   5.668 -0.6777 -0.1225 -1.4014
 9683TIP3   OH250463   0.428   0.180  11.459  0.4696 -0.0877 -0.0738
 9683TIP3    H150464   0.427   0.232  11.378 -1.7259  0.2455  0.1315
 9683TIP3    H250465   0.467   0.238  11.524  2.3093 -0.3761 -0.8807
 9684TIP3   OH250466   0.822   5.016   4.330  0.5353 -0.0517 -0.4003
 9684TIP3    H150467   0.787   5.105   4.320  2.3697  0.7626  0.2207
 9684TIP3    H250468   0.846   5.010   4.423 -0.1877 -1.4451 -0.2873
 9685TIP3   OH250469   0.559   1.165   4.529  0.8907 -0.4554 -0.5828
 9685TIP3    H150470   0.587   1.253   4.502  1.1085 -0.5015 -0.5079
 9685TIP3    H250471   0.527   1.125   4.449  2.0382 -0.7828 -0.8861
 9686TIP3   OH250472   3.149   1.617   1.809  0.7691 -0.1302 -0.3122
 9686TIP3    H150473   3.219   1.552   1.810  0.2696 -0.7354 -2.4880
 9686TIP3    H250474   3.194   1.701   1.798  1.3699 -0.1247  1.8695
 9687TIP3   OH250475   5.957   3.663   2.373 -0.1692 -0.0958  0.2542
 9687TIP3    H150476   5.928   3.753   2.358 -2.2659 -1.0545 -1.8097
 9687TIP3    H250477   5.972   3.628   2.286  1.2165 -1.5649  1.0710
 9688TIP3   OH250478   2.258   1.326  13.873 -0.1532  0.3693  0.5065
 9688TIP3    H150479   2.260   1.402  13.932 -0.8047 -0.0860  1.1220
 9688TIP3    H250480   2.184   1.344  13.814  1.0519  1.2604 -0.7834
 9689TIP3   OH250481   3.784   2.538  16.250 -0.2435 -0.0744  0.1089
 9689TIP3    H150482   3.793   2.601  16.179  1.1405 -1.5307 -1.0423
 9689TIP3    H250483   3.790   2.590  16.330  0.7995  1.2563 -0.8318
 9690TIP3   OH250484   5.062   1.822   5.382 -0.5095 -0.1439 -0.1598
 9690TIP3    H150485   4.985   1.766   5.374 -0.7659  0.2472 -0.4509
 9690TIP3    H250486   5.091   1.837   5.292 -0.5137  0.2888 -0.0898
 9691TIP3   OH250487   0.718   3.028  12.520 -0.3637  0.0216 -0.1958
 9691TIP3    H150488   0.705   2.947  12.570  0.3666 -0.2141 -0.3866
 9691TIP3    H250489   0.748   2.999  12.434  0.1046  0.5102 -0.1962
 9692TIP3   OH250490   6.715   5.147  13.174 -0.2645 -0.3961  0.2715
 9692TIP3    H150491   6.784   5.096  13.217 -0.1185 -1.6397 -1.3902
 9692TIP3    H250492   6.760   5.195  13.104 -1.1028 -1.4322 -1.0028
 9693TIP3   OH250493   5.202   0.446  13.219  0.3537  0.2278  0.4495
 9693TIP3    H150494   5.212   0.354  13.196 -0.0871  0.2412  0.2003
 9693TIP3    H250495   5.138   0.480  13.157  0.1949  0.6005  0.8091
 9694TIP3   OH250496   3.340   3.647  14.077  0.1374 -0.1012 -0.6937
 9694TIP3    H150497   3.279   3.721  14.081 -2.0243 -1.9252  1.1618
 9694TIP3    H250498   3.418   3.679  14.122 -0.8737  0.9858  0.3456
 9695TIP3   OH250499   4.708   2.897   0.749 -0.3939  0.0820 -0.0955
 9695TIP3    H150500   4.758   2.896   0.667 -1.3759 -1.5108 -0.6974
 9695TIP3    H250501   4.746   2.969   0.799  0.6739  0.6490 -1.6714
 9696TIP3   OH250502   6.098   2.584   1.019 -0.4770  0.5198 -0.3981
 9696TIP3    H150503   6.145   2.541   1.090 -1.0438 -0.1403 -0.4152
 9696TIP3    H250504   6.118   2.677   1.030  1.8743  0.1339 -1.1842
 9697TIP3   OH250505   1.382   3.205  16.880 -0.1141 -0.0198 -0.2695
 9697TIP3    H150506   1.351   3.180  16.793 -2.3882 -0.9360  0.7711
 9697TIP3    H250507   1.302   3.219  16.930  1.1692  1.7875  1.3274
 9698TIP3   OH250508   5.972   6.421  14.370  0.4665  0.5690  0.9615
 9698TIP3    H150509   5.991   6.374  14.451  1.0171  0.4074  0.7415
 9698TIP3    H250510   5.907   6.367  14.326 -1.0257  1.4661  2.0334
 9699TIP3   OH250511   0.311   6.654   3.846 -0.0782 -0.0807  0.4040
 9699TIP3    H150512   0.344   6.668   3.935  0.7591 -1.5720  0.3369
 9699TIP3    H250513   0.340   6.731   3.797 -2.0100  1.6010  1.8028
 9700TIP3   OH250514   3.383   3.069  11.843  0.1461  0.4443  0.3576
 9700TIP3    H150515   3.289   3.066  11.861  0.1612  1.3586  0.6004
 9700TIP3    H250516   3.418   2.992  11.889 -0.9472 -1.9907 -2.6811
 9701TIP3   OH250517   0.506   3.117   6.053  0.7863  0.3164 -0.0939
 9701TIP3    H150518   0.588   3.164   6.034  0.6148  1.0395  0.9568
 9701TIP3    H250519   0.471   3.159   6.131  0.2876 -1.1385  0.4846
 9702TIP3   OH250520   1.737   3.562   1.977  0.2005  1.0642 -0.3556
 9702TIP3    H150521   1.722   3.471   2.003 -2.2339  0.8851 -2.1644
 9702TIP3    H250522   1.749   3.609   2.059 -0.8780 -0.5111  0.7324
 9703TIP3   OH250523   0.974   4.770   1.614 -0.0956 -0.2865 -0.7725
 9703TIP3    H150524   0.904   4.712   1.582 -1.8081  1.1119  0.3004
 9703TIP3    H250525   1.002   4.819   1.537  0.4042 -1.5689 -1.4112
 9704TIP3   OH250526   4.876   6.299  12.486 -0.1456 -0.7603  0.0731
 9704TIP3    H150527   4.932   6.267  12.556  1.4004  0.3979 -0.6045
 9704TIP3    H250528   4.847   6.385  12.515 -0.8080 -0.9475 -0.0131
 9705TIP3   OH250529   3.974   1.870  12.960 -0.5869 -0.1837  0.2121
 9705TIP3    H150530   3.922   1.950  12.951 -0.6500 -0.2515 -0.0291
 9705TIP3    H250531   3.941   1.813  12.891  0.5193  0.1503 -0.6097
 9706TIP3   OH250532   6.414   3.958  16.291  0.0490  0.6996 -0.0749
 9706TIP3    H150533   6.390   4.044  16.259  0.6470  2.3853  3.6641
 9706TIP3    H250534   6.355   3.942  16.365  0.8746 -1.4629  0.1794
 9707TIP3   OH250535   0.858   3.644   4.212  0.0557 -0.0774  0.1116
 9707TIP3    H150536   0.934   3.669   4.264  1.8592 -0.0734 -2.3897
 9707TIP3    H250537   0.807   3.585   4.268  1.3805  0.6960  2.1742
 9708TIP3   OH250538   0.094   1.692   4.950  0.2282  0.4662  0.2865
 9708TIP3    H150539   0.009   1.712   4.989  1.2044  1.7773  1.7374
 9708TIP3    H250540   0.105   1.598   4.964 -0.9371  0.3038  0.1596
 9709TIP3   OH250541   5.344   3.436   1.453  0.3970  0.5430 -0.1018
 9709TIP3    H150542   5.386   3.482   1.526 -2.4779 -0.0637  2.0022
 9709TIP3    H250543   5.329   3.347   1.487 -1.4110  0.3980 -1.2509
 9710TIP3   OH250544   5.504   1.441   2.176  0.7335  0.6396  0.4463
 9710TIP3    H150545   5.578   1.431   2.116 -0.2812  0.2393 -0.7446
 9710TIP3    H250546   5.438   1.379   2.144  0.0961  0.5791  1.8395
 9711TIP3   OH250547   5.052   2.175   5.170 -0.2889 -0.1790 -0.4976
 9711TIP3    H150548   4.988   2.189   5.239 -1.3522 -0.4370 -1.4166
 9711TIP3    H250549   5.050   2.081   5.153  1.3961 -0.4212  0.4603
 9712TIP3   OH250550   2.301   2.657   0.197 -0.2580  0.1023  0.2084
 9712TIP3    H150551   2.311   2.674   0.104 -0.4552 -3.9968 -0.6669
 9712TIP3    H250552   2.227   2.596   0.203  0.3592 -0.4515  2.9397
 9713TIP3   OH250553   1.900   3.025  12.542 -0.2900 -0.0126 -0.3801
 9713TIP3    H150554   1.862   3.103  12.502  1.2187  0.6601 -0.5573
 9713TIP3    H250555   1.876   2.953  12.484 -1.4810  0.3568 -0.3492
 9714TIP3   OH250556   5.507   5.261  15.065 -0.5462  0.3543 -0.4456
 9714TIP3    H150557   5.522   5.356  15.073 -2.6820  0.7506 -0.8310
 9714TIP3    H250558   5.528   5.227  15.152  0.1117  1.1880 -0.2608
 9715TIP3   OH250559   1.972   6.552   1.501  0.7250  0.0786  0.6118
 9715TIP3    H150560   2.015   6.467   1.496 -0.5246 -0.4754 -1.3308
 9715TIP3    H250561   1.886   6.534   1.540 -0.1465  0.1869 -1.2178
 9716TIP3   OH250562   5.820   5.188  15.560  0.1938 -0.1714  0.0436
 9716TIP3    H150563   5.849   5.107  15.602  0.2518 -0.3402 -0.3258
 9716TIP3    H250564   5.887   5.207  15.494  0.4611  0.4650  0.4893
 9717TIP3   OH250565   4.936   3.309   5.744 -0.1105  0.1370  0.0639
 9717TIP3    H150566   4.897   3.222   5.753 -1.6128  0.7832 -0.0542
 9717TIP3    H250567   5.015   3.295   5.693 -0.2435 -1.1913  0.2062
 9718TIP3   OH250568   4.531   4.969   0.423 -0.1427 -0.0452  0.4141
 9718TIP3    H150569   4.491   4.901   0.478  0.1628 -0.8900 -0.3771
 9718TIP3    H250570   4.474   4.975   0.347 -1.0371  1.7456  1.2232
 9719TIP3   OH250571   3.764   2.554  14.407 -0.4266 -0.0431  0.0593
 9719TIP3    H150572   3.836   2.514  14.359  0.6085  2.0937 -0.2222
 9719TIP3    H250573   3.807   2.620  14.463 -2.3948  3.3043 -2.2389
 9720TIP3   OH250574   4.076   4.285   5.409 -0.1904 -0.6864  0.1960
 9720TIP3    H150575   3.987   4.318   5.394  0.2033 -0.6534 -2.2268
 9720TIP3    H250576   4.064   4.209   5.467 -1.5542  0.7213  1.8008
 9721TIP3   OH250577   6.610   2.297   2.515 -0.6435 -0.2894  0.6853
 9721TIP3    H150578   6.697   2.256   2.517 -0.1781  0.7027  1.0551
 9721TIP3    H250579   6.564   2.258   2.589  0.0468  0.3723  1.4762
 9722TIP3   OH250580   5.274   6.437   0.657  0.3835 -0.2847  0.3828
 9722TIP3    H150581   5.356   6.484   0.641  0.0256  0.6702  1.3058
 9722TIP3    H250582   5.287   6.351   0.617  0.7176  0.8960 -2.1506
 9723TIP3   OH250583   6.445   0.993  11.778  0.0950  0.0293  0.4961
 9723TIP3    H150584   6.480   0.936  11.846  0.4785  1.3894  1.4478
 9723TIP3    H250585   6.514   1.057  11.762 -0.8508  1.0386  0.3897
 9724TIP3   OH250586   0.444   2.009  10.709 -0.2292  0.0943 -0.2751
 9724TIP3    H150587   0.494   1.955  10.647  1.0341  0.4483  0.4244
 9724TIP3    H250588   0.396   2.071  10.654  0.7779  0.3161 -0.9100
 9725TIP3   OH250589   1.910   3.813   3.374 -0.7765  0.1569 -0.5417
 9725TIP3    H150590   1.958   3.741   3.414  0.7676  1.4791  0.0461
 9725TIP3    H250591   1.894   3.785   3.284 -0.0041 -0.8172 -0.3742
 9726TIP3   OH250592   3.975   1.803   4.659  0.3158  0.1388 -0.3051
 9726TIP3    H150593   3.957   1.797   4.752  0.3179  0.1052 -0.3070
 9726TIP3    H250594   3.973   1.713   4.628  1.3314  0.0660 -0.1536
 9727TIP3   OH250595   1.325   3.360  15.556 -0.1807 -0.8053  0.6344
 9727TIP3    H150596   1.374   3.282  15.582 -1.4889 -0.8289  3.2399
 9727TIP3    H250597   1.289   3.394  15.638 -2.4358  0.6200 -0.8818
 9728TIP3   OH250598   2.040   4.788   4.715  0.3293 -0.0203  0.0607
 9728TIP3    H150599   2.056   4.705   4.759 -0.3036  0.9437  2.1839
 9728TIP3    H250600   1.990   4.765   4.637 -0.5004 -1.5859  1.0172
 9729TIP3   OH250601   0.264   4.939  12.312  0.3977  0.2711  0.4406
 9729TIP3    H150602   0.189   4.879  12.320  1.1252 -0.6615  0.3959
 9729TIP3    H250603   0.331   4.901  12.368  0.2955  1.9830  1.7360
 9730TIP3   OH250604   2.428   4.855  16.543  0.4558 -0.0559 -0.4400
 9730TIP3    H150605   2.519   4.827  16.556  0.2883 -0.3605  0.0839
 9730TIP3    H250606   2.419   4.862  16.448  0.5793 -1.5503 -0.5792
 9731TIP3   OH250607   6.307   0.027  16.429 -0.3757  0.1379 -0.0747
 9731TIP3    H150608   6.375   0.087  16.399  1.9573 -3.5408 -2.6384
 9731TIP3    H250609   6.337  -0.003  16.514  0.1431  0.1104 -0.2667
 9732TIP3   OH250610   0.598   3.878  16.371 -0.0506 -0.2958  0.8831
 9732TIP3    H150611   0.657   3.811  16.335  0.0072 -1.0540  2.3593
 9732TIP3    H250612   0.625   3.959  16.328 -1.4649 -1.5278 -2.5077
 9733TIP3   OH250613   5.863   3.342   1.909  0.2184 -0.4593 -0.5370
 9733TIP3    H150614   5.769   3.359   1.904  0.4571  0.6820 -1.5250
 9733TIP3    H250615   5.903   3.420   1.869  1.6289 -0.3152  1.1079
 9734TIP3   OH250616   3.433   4.424   0.910 -0.1844  0.2166  0.2825
 9734TIP3    H150617   3.418   4.466   0.825 -1.2179 -0.0671  0.3164
 9734TIP3    H250618   3.488   4.349   0.890 -0.3432  0.2047 -0.1278
 9735TIP3   OH250619   0.679   2.670  16.545 -0.0533  0.2734  0.6983
 9735TIP3    H150620   0.619   2.737  16.514  0.8864  0.1495 -1.4790
 9735TIP3    H250621   0.626   2.591  16.553 -0.1910  0.1436 -1.2904
 9736TIP3   OH250622   1.689   3.287   1.971  0.3663 -0.2798 -0.4145
 9736TIP3    H150623   1.606   3.241   1.986  0.8810 -0.3377  2.4417
 9736TIP3    H250624   1.756   3.221   1.984  1.0149  0.6960  1.4013
 9737TIP3   OH250625   1.935   1.198  13.048  0.6895 -0.1393 -0.6649
 9737TIP3    H150626   2.002   1.133  13.033  1.5607  0.9355 -1.4704
 9737TIP3    H250627   1.964   1.245  13.127 -0.3190 -1.2020  0.3581
 9738TIP3   OH250628   0.720   5.901  10.536 -0.2175  0.5431 -0.4199
 9738TIP3    H150629   0.702   5.837  10.604 -2.1978  1.4598 -0.0570
 9738TIP3    H250630   0.635   5.917  10.495  0.3148  2.6213 -0.7646
 9739TIP3   OH250631   5.726   2.603   3.012  0.6448 -0.5393  0.2607
 9739TIP3    H150632   5.675   2.549   2.952  0.1674  0.3295 -0.1168
 9739TIP3    H250633   5.777   2.661   2.956 -0.8889  1.2754  0.7032
 9740TIP3   OH250634   6.433   6.332  10.463  0.1681  0.1699 -0.2177
 9740TIP3    H150635   6.519   6.308  10.427  0.0230 -0.4227 -0.1814
 9740TIP3    H250636   6.411   6.260  10.522 -0.2018  0.4867  0.0320
 9741TIP3   OH250637   0.198   1.188   1.377 -0.2327 -0.0629  0.1418
 9741TIP3    H150638   0.255   1.263   1.392 -0.2893  0.1675 -0.7597
 9741TIP3    H250639   0.131   1.220   1.318  0.2372 -1.0609 -0.9537
 9742TIP3   OH250640   5.890   0.221  16.277  0.0864  0.4311  0.3686
 9742TIP3    H150641   5.928   0.308  16.261  1.3325  0.0091  0.9267
 9742TIP3    H250642   5.798   0.230  16.253  0.4921  1.5501 -0.8690
 9743TIP3   OH250643   1.187   1.999   5.623  0.3297 -0.5282 -0.0415
 9743TIP3    H150644   1.182   1.992   5.718  2.7125  2.0534  0.3625
 9743TIP3    H250645   1.252   1.933   5.597 -1.2889 -2.1390 -0.0577
 9744TIP3   OH250646   3.588   2.011   3.194  0.2558  0.4095 -0.0131
 9744TIP3    H150647   3.582   2.097   3.152 -0.6619  0.9858  1.2705
 9744TIP3    H250648   3.628   2.028   3.279 -0.5990 -0.3299  0.5410
 9745TIP3   OH250649   1.485   5.588  15.162  0.3503  0.4204 -0.4930
 9745TIP3    H150650   1.495   5.569  15.069 -1.7137 -0.6634 -0.5282
 9745TIP3    H250651   1.432   5.667  15.165  0.7263  0.6640 -0.2379
 9746TIP3   OH250652   1.002   5.124  11.051  0.2633 -0.0839  0.0527
 9746TIP3    H150653   0.992   5.182  10.975 -0.7961  0.1492  0.3694
 9746TIP3    H250654   1.072   5.165  11.102 -0.3365  0.8160  0.1716
 9747TIP3   OH250655   0.336   5.889  16.417 -0.0287  0.3181 -0.4820
 9747TIP3    H150656   0.391   5.963  16.440 -0.2790  1.2602 -2.7851
 9747TIP3    H250657   0.397   5.816  16.405  0.3775  0.5419  0.2128
 9748TIP3   OH250658   3.166   6.734   4.245  0.2554  0.0626  0.7519
 9748TIP3    H150659   3.188   6.693   4.329 -1.5671 -0.9296  0.7703
 9748TIP3    H250660   3.233   6.802   4.233  0.6952  0.0349  2.8631
 9749TIP3   OH250661   5.802   6.188   4.881  0.0777 -0.4307 -0.0885
 9749TIP3    H150662   5.876   6.141   4.920  0.1485  1.0166  1.5630
 9749TIP3    H250663   5.728   6.170   4.938 -0.1590  0.5153 -0.0842
 9750TIP3   OH250664   0.685   6.243   5.312 -0.3974  0.5296  0.3462
 9750TIP3    H150665   0.719   6.329   5.335 -2.3237  1.2323  0.6247
 9750TIP3    H250666   0.715   6.186   5.382  1.5211  0.8084 -0.2282
 9751TIP3   OH250667   1.821   4.669  13.247 -0.0826 -0.4318  0.1617
 9751TIP3    H150668   1.903   4.674  13.297 -0.1814 -1.0719  0.3853
 9751TIP3    H250669   1.848   4.642  13.159 -0.0841 -0.9421  0.3163
 9752TIP3   OH250670   6.675   5.104  13.517 -0.5613  0.2247 -0.1288
 9752TIP3    H150671   6.754   5.076  13.471 -2.2774 -2.6439 -1.4387
 9752TIP3    H250672   6.705   5.171  13.578  2.7870 -0.4622 -0.9556
 9753TIP3   OH250673   4.140   2.806  15.199 -0.0014  0.5762  0.2411
 9753TIP3    H150674   4.101   2.732  15.246 -0.1103  1.2032  1.1502
 9753TIP3    H250675   4.067   2.849  15.157  0.0642  0.1605 -0.3086
 9754TIP3   OH250676   0.209   4.135   4.925 -0.0154 -0.2852  0.2977
 9754TIP3    H150677   0.227   4.045   4.899 -1.7174 -0.7529  0.6530
 9754TIP3    H250678   0.290   4.165   4.966  0.8315 -1.3836 -0.5470
 9755TIP3   OH250679   1.365   3.628  16.593  0.0534  0.4854  0.0865
 9755TIP3    H150680   1.396   3.666  16.511 -0.5672 -1.4861 -1.0953
 9755TIP3    H250681   1.270   3.617  16.580  0.1814 -1.2125  0.4664
 9756TIP3   OH250682   2.900   0.683  16.902  0.0498 -0.0268 -0.1973
 9756TIP3    H150683   2.859   0.615  16.956 -0.6570  2.0454  1.9439
 9756TIP3    H250684   2.989   0.689  16.936  0.8246 -1.3983 -1.8838
 9757TIP3   OH250685   4.983   5.050  14.622 -0.1735 -0.5604 -0.3150
 9757TIP3    H150686   4.895   5.030  14.589 -0.3484  0.1367 -0.2819
 9757TIP3    H250687   4.975   5.139  14.657  0.4934 -0.5789 -0.1189
 9758TIP3   OH250688   2.849   1.328  11.854 -0.2188  0.5887 -0.5808
 9758TIP3    H150689   2.758   1.299  11.855 -0.6806  1.9783  0.7964
 9758TIP3    H250690   2.855   1.385  11.777 -0.9183  1.6392  0.1193
 9759TIP3   OH250691   6.494   5.776  15.518  0.1154 -0.2570  0.1020
 9759TIP3    H150692   6.489   5.681  15.523 -0.2148 -0.2133  0.7321
 9759TIP3    H250693   6.564   5.794  15.455  1.2588 -0.9270  1.1568
 9760TIP3   OH250694   1.948   1.831  14.380 -0.1683  0.9927  0.4830
 9760TIP3    H150695   1.926   1.792  14.296  0.4222  1.6322  0.0268
 9760TIP3    H250696   2.027   1.882  14.363 -1.2235  2.8266  0.9332
 9761TIP3   OH250697   6.587   5.105   3.278 -1.4024  0.3795  0.7860
 9761TIP3    H150698   6.616   5.148   3.198  1.0123 -1.9333  0.3459
 9761TIP3    H250699   6.622   5.158   3.349  0.7503 -0.2704  0.2583
 9762TIP3   OH250700   3.947   4.312   5.006  0.1901  0.0172 -0.1301
 9762TIP3    H150701   3.968   4.291   4.915 -0.3664 -1.4207  0.0555
 9762TIP3    H250702   4.023   4.282   5.055 -0.2673 -0.8615  0.0541
 9763TIP3   OH250703   0.187   4.254  16.431 -0.1604  0.4622 -0.4108
 9763TIP3    H150704   0.191   4.237  16.337  1.0966  1.0751 -0.4749
 9763TIP3    H250705   0.096   4.279  16.447 -0.9197 -1.7947 -1.0809
 9764TIP3   OH250706   2.948   1.873   3.126 -1.0808  0.0019  0.5150
 9764TIP3    H150707   2.966   1.785   3.158 -0.1290 -0.0717 -0.2071
 9764TIP3    H250708   2.853   1.884   3.138 -1.3154 -1.3663 -0.0217
 9765TIP3   OH250709   1.997   1.435  15.398 -0.6567 -0.1209  0.1568
 9765TIP3    H150710   1.941   1.435  15.321 -0.7038  0.7912  0.1949
 9765TIP3    H250711   2.053   1.358  15.386 -0.7261 -0.0343 -0.7342
 9766TIP3   OH250712   5.841   0.728  11.827  0.0524 -0.1890  0.3269
 9766TIP3    H150713   5.917   0.672  11.814 -0.0963 -0.8791  2.1739
 9766TIP3    H250714   5.870   0.815  11.802  1.4786 -0.4429  1.0366
 9767TIP3   OH250715   4.068   6.011  13.225 -0.1855  0.1223  0.7162
 9767TIP3    H150716   4.127   5.937  13.234  0.5481  0.7628  1.2550
 9767TIP3    H250717   4.112   6.070  13.164 -1.5378 -0.6410 -1.0364
 9768TIP3   OH250718   0.475   3.697   2.165 -0.1825 -0.0647 -0.2495
 9768TIP3    H150719   0.435   3.741   2.091 -1.1090 -0.2820  0.1197
 9768TIP3    H250720   0.520   3.766   2.214 -1.5278  0.4555  0.2653
 9769TIP3   OH250721   3.316   5.878   1.961  0.2132 -0.9302  0.4363
 9769TIP3    H150722   3.255   5.835   1.902  1.4181 -1.2175 -0.6324
 9769TIP3    H250723   3.273   5.960   1.985 -0.6812 -1.2338 -0.1211
 9770TIP3   OH250724   1.979   4.009   3.570  0.1024  0.2126  0.1249
 9770TIP3    H150725   1.920   4.084   3.578  0.6939  0.6980 -0.0143
 9770TIP3    H250726   1.953   3.966   3.488  0.5450  0.9596 -0.4123
 9771TIP3   OH250727   6.667   1.254   5.690 -0.4951 -0.3965 -0.0301
 9771TIP3    H150728   6.651   1.340   5.727  0.1741  0.0875 -0.8521
 9771TIP3    H250729   6.597   1.199   5.726  0.2909 -0.0108  2.1627
 9772TIP3   OH250730   3.856   1.105  15.504 -0.1010  0.1695  0.0967
 9772TIP3    H150731   3.926   1.100  15.438 -1.3190  2.7683 -1.4548
 9772TIP3    H250732   3.897   1.149  15.578  0.2698  0.5098 -0.3046
 9773TIP3   OH250733   0.520   3.223  12.587  0.3382 -0.1328 -0.2452
 9773TIP3    H150734   0.459   3.224  12.514  0.0265 -0.9811  0.0001
 9773TIP3    H250735   0.574   3.146  12.573  0.1522 -0.4120  0.5107
 9774TIP3   OH250736   2.358   0.176  12.944 -0.2014 -0.1065  0.3222
 9774TIP3    H150737   2.278   0.204  12.900  0.2983 -0.0436 -0.5835
 9774TIP3    H250738   2.403   0.257  12.968  0.1163 -0.1251 -0.1822
 9775TIP3   OH250739   2.029   6.503  12.845 -0.1947 -0.9553 -0.2521
 9775TIP3    H150740   2.068   6.433  12.792 -0.9472 -0.6905 -1.1820
 9775TIP3    H250741   1.975   6.458  12.909 -2.0510 -1.2072 -1.9385
 9776TIP3   OH250742   5.863   0.522   4.177 -0.8029 -0.2819  0.2015
 9776TIP3    H150743   5.839   0.444   4.127  1.1515 -0.6227 -0.2488
 9776TIP3    H250744   5.871   0.592   4.112  2.6839 -0.9392 -0.1725
 9777TIP3   OH250745   5.091   1.737   4.851 -0.0224  0.0364  0.3287
 9777TIP3    H150746   5.164   1.675   4.839  0.2235  0.6211 -1.2094
 9777TIP3    H250747   5.013   1.688   4.825 -0.0737 -0.2831  1.0705
 9778TIP3   OH250748   6.668   0.768   6.139  0.5912 -0.1172 -0.0168
 9778TIP3    H150749   6.759   0.800   6.141  0.3739  0.5931 -0.8807
 9778TIP3    H250750   6.616   0.846   6.121  0.0610 -0.9663 -2.3356
 9779TIP3   OH250751   2.185   1.201   1.496 -0.2314  0.1116  0.0247
 9779TIP3    H150752   2.240   1.123   1.502  0.3829  0.5044 -0.3901
 9779TIP3    H250753   2.128   1.196   1.573  0.5246 -0.2069  0.5726
 9780TIP3   OH250754   1.482   2.535  11.497  0.1393 -0.1771 -0.0893
 9780TIP3    H150755   1.574   2.512  11.491  0.6018  1.5670  0.0553
 9780TIP3    H250756   1.441   2.495  11.420  1.2301  0.0561 -0.7880
 9781TIP3   OH250757   2.083   0.431  14.937  0.0970  0.3461  0.3640
 9781TIP3    H150758   2.084   0.459  14.845 -0.8319 -1.1028 -0.0882
 9781TIP3    H250759   2.154   0.481  14.977  3.0726 -1.8294 -1.9857
 9782TIP3   OH250760   1.619   4.744  16.267 -0.1107  0.1798  0.0338
 9782TIP3    H150761   1.659   4.766  16.350 -0.5018  0.4133  0.1632
 9782TIP3    H250762   1.681   4.684  16.225  1.0285  1.6354 -0.3865
 9783TIP3   OH250763   1.589   6.372   0.203 -0.0907  0.0308 -0.1307
 9783TIP3    H150764   1.511   6.333   0.163 -1.4976  3.4443 -0.9267
 9783TIP3    H250765   1.560   6.399   0.290  0.7619 -0.4333  0.2992
 9784TIP3   OH250766   3.805   4.625   0.399  0.5444 -0.2262 -0.4856
 9784TIP3    H150767   3.848   4.559   0.344  0.6498  0.3786 -1.1283
 9784TIP3    H250768   3.739   4.576   0.448  2.3914 -1.3221  1.0303
 9785TIP3   OH250769   2.719   5.661  12.870 -0.4248  0.4061 -0.1689
 9785TIP3    H150770   2.748   5.752  12.862 -3.7707  1.4902 -0.7226
 9785TIP3    H250771   2.767   5.615  12.802  2.1062  1.5307  0.8005
 9786TIP3   OH250772   3.471   0.059  15.234  0.0663 -0.7096 -0.4567
 9786TIP3    H150773   3.554   0.053  15.282 -0.1016 -0.0308 -0.0771
 9786TIP3    H250774   3.418   0.120  15.286  0.1277  0.5546 -1.8509
 9787TIP3   OH250775   0.106   1.016   2.422 -0.6201  0.4560 -0.2240
 9787TIP3    H150776   0.159   0.994   2.499 -2.0604 -0.3802  0.5600
 9787TIP3    H250777   0.162   1.073   2.369  1.0407 -0.3904  0.5874
 9788TIP3   OH250778   3.270   6.716  15.643 -0.4059  0.1700 -0.1676
 9788TIP3    H150779   3.181   6.738  15.617 -0.9005 -2.1553 -0.5682
 9788TIP3    H250780   3.266   6.709  15.738 -0.2973  1.4476 -0.0555
 9789TIP3   OH250781   1.914   5.786   0.173  0.8808 -0.5794 -0.0043
 9789TIP3    H150782   1.872   5.718   0.119  0.0539  1.1046 -1.5537
 9789TIP3    H250783   1.854   5.799   0.246  1.6437 -2.3719  0.9481
 9790TIP3   OH250784   4.934   1.640  14.666 -0.2651  0.2192  0.4436
 9790TIP3    H150785   4.984   1.567  14.702 -2.2245 -1.1702  0.4445
 9790TIP3    H250786   4.989   1.717  14.680  1.7874 -1.2402  0.5443
 9791TIP3   OH250787   3.125   3.746   2.621 -0.1696  0.9247 -0.4068
 9791TIP3    H150788   3.081   3.812   2.676 -2.1447 -1.2694  0.7533
 9791TIP3    H250789   3.062   3.728   2.551 -0.3491 -0.8704  0.1966
 9792TIP3   OH250790   4.040   2.451  14.395  0.8068  0.5543 -0.2442
 9792TIP3    H150791   4.093   2.531  14.394  0.7229  0.6075 -0.4193
 9792TIP3    H250792   4.019   2.435  14.303 -2.0365  2.2655  0.0269
 9793TIP3   OH250793   0.678   0.614   3.749  0.8480 -0.0158 -0.4093
 9793TIP3    H150794   0.655   0.536   3.698  1.4720 -0.8784  0.6237
 9793TIP3    H250795   0.601   0.670   3.742  0.9306 -0.1075 -2.3286
 9794TIP3   OH250796   6.108   4.530  13.382 -0.0052  0.5132 -0.1522
 9794TIP3    H150797   6.143   4.493  13.463 -1.5992 -1.8067 -0.4731
 9794TIP3    H250798   6.106   4.624  13.397  2.1490  0.3089  1.5221
 9795TIP3   OH250799   2.667   5.383  13.295  0.2295 -0.1773 -0.1574
 9795TIP3    H150800   2.674   5.362  13.202  0.2248  0.9883 -0.4257
 9795TIP3    H250801   2.577   5.412  13.307 -0.6379 -3.0457  0.7956
 9796TIP3   OH250802   4.796   6.349   3.613  0.7547  0.3908 -0.2175
 9796TIP3    H150803   4.709   6.316   3.592  0.5605  0.3484  0.6354
 9796TIP3    H250804   4.792   6.370   3.707  2.3504 -1.7790  0.3708
 9797TIP3   OH250805   4.177   0.224   1.610 -0.5699  0.2246 -0.3712
 9797TIP3    H150806   4.179   0.285   1.536  0.2192 -0.5812 -1.0108
 9797TIP3    H250807   4.115   0.264   1.671 -0.2319  1.5677 -0.8807
 9798TIP3   OH250808   2.274   6.686   5.135  0.3548  0.2644  0.2431
 9798TIP3    H150809   2.338   6.615   5.143  2.2342  2.0018  1.2103
 9798TIP3    H250810   2.250   6.687   5.043 -0.3796 -2.1802  0.3762
 9799TIP3   OH250811   0.983   0.475   1.715 -0.0569  1.3043 -0.6510
 9799TIP3    H150812   1.037   0.396   1.721  0.2294  1.6002  0.7879
 9799TIP3    H250813   0.894   0.445   1.732 -0.0241  1.1994 -0.6639
 9800TIP3   OH250814   1.992   0.750   4.113  0.6905  0.3374  0.4231
 9800TIP3    H150815   1.939   0.732   4.035  1.4970 -2.2037  0.4119
 9800TIP3    H250816   1.981   0.844   4.128 -3.1055  0.0537 -0.0854
 9801TIP3   OH250817   6.383   5.560  14.706 -0.3274  0.2914  0.1823
 9801TIP3    H150818   6.420   5.625  14.767  2.0440 -0.9103  0.0780
 9801TIP3    H250819   6.312   5.520  14.755  1.3164 -0.4050  2.0824
 9802TIP3   OH250820   3.320   0.021  11.351  0.0351 -0.4092  0.0392
 9802TIP3    H150821   3.333  -0.000  11.444 -0.0700 -0.5939  0.0107
 9802TIP3    H250822   3.395  -0.018  11.307 -1.3602 -2.7749 -0.3189
 9803TIP3   OH250823   3.911   4.183  15.126  0.1027 -0.3741  0.2677
 9803TIP3    H150824   3.871   4.221  15.048 -2.0565 -2.5110  0.2702
 9803TIP3    H250825   3.859   4.217  15.198 -0.4198 -1.4939  0.4360
 9804TIP3   OH250826   4.911   3.400   0.535  0.4964 -0.5938 -0.3564
 9804TIP3    H150827   4.972   3.398   0.608  0.0120 -1.9664  0.0344
 9804TIP3    H250828   4.936   3.325   0.481  0.7893  0.3582 -1.5487
 9805TIP3   OH250829   4.629   3.907   2.086 -0.6447 -0.6657 -0.5835
 9805TIP3    H150830   4.675   3.968   2.028 -1.0867 -0.5675 -0.8379
 9805TIP3    H250831   4.686   3.897   2.162 -0.4169 -0.1947 -0.6921
 9806TIP3   OH250832   5.549   6.014   2.579 -0.1572 -0.2204  0.2761
 9806TIP3    H150833   5.508   6.038   2.496 -0.4450 -0.5133  0.3332
 9806TIP3    H250834   5.598   6.092   2.605  0.8922 -0.5240 -0.7556
 9807TIP3   OH250835   5.241   0.086  12.588  0.6863  0.4169 -0.2275
 9807TIP3    H150836   5.204   0.036  12.661  0.2467  0.9159 -0.1106
 9807TIP3    H250837   5.329   0.049  12.577 -0.2680 -1.6203 -1.3094
 9808TIP3   OH250838   4.812   5.542   4.770  0.4920  0.3321  0.0664
 9808TIP3    H150839   4.813   5.637   4.757 -3.4564  0.4561  0.0982
 9808TIP3    H250840   4.813   5.531   4.865 -1.1416  0.4226  0.0984
 9809TIP3   OH250841   1.644   3.702  11.916  0.3110  0.0752 -0.1927
 9809TIP3    H150842   1.702   3.627  11.928 -1.4368 -1.6521 -2.1553
 9809TIP3    H250843   1.561   3.676  11.955  0.3378  1.8882  1.1335
 9810TIP3   OH250844   6.588   0.838   5.898  0.3636  0.6985  0.0789
 9810TIP3    H150845   6.625   0.788   5.970  1.1445 -0.9387 -1.4154
 9810TIP3    H250846   6.499   0.859   5.925  0.4394 -0.4560  1.2222
 9811TIP3   OH250847   2.561   3.158   4.022  0.5388 -0.3807  0.3038
 9811TIP3    H150848   2.594   3.209   3.948  0.6043  1.9209  1.8730
 9811TIP3    H250849   2.626   3.089   4.033  1.4445  0.2903 -0.6890
 9812TIP3   OH250850   3.615   2.918  13.524 -0.6523  0.5593  0.3862
 9812TIP3    H150851   3.673   2.850  13.556 -0.0129  1.9839  2.3648
 9812TIP3    H250852   3.655   3.000  13.553 -2.0892  1.7179 -0.7884
 9813TIP3   OH250853   2.362   0.322   3.622 -0.3983  0.8829 -0.4350
 9813TIP3    H150854   2.391   0.410   3.597 -0.2016  0.8004 -0.5012
 9813TIP3    H250855   2.394   0.266   3.551  2.4949  0.2500  1.2791
 9814TIP3   OH250856   2.100   4.032   5.473 -0.2022  0.7411  0.0370
 9814TIP3    H150857   2.098   4.109   5.417  5.0508  0.5226 -0.7401
 9814TIP3    H250858   2.100   4.066   5.562  0.4350  1.5657 -0.2795
 9815TIP3   OH250859   0.350   3.567  11.931 -0.3979 -0.1972  0.3753
 9815TIP3    H150860   0.293   3.512  11.878 -1.3224 -0.5574  1.7212
 9815TIP3    H250861   0.381   3.635  11.870 -1.7103 -0.3899 -0.5286
 9816TIP3   OH250862   3.441   4.456   1.642 -0.1810  0.6213 -0.1688
 9816TIP3    H150863   3.364   4.407   1.673 -0.5461  2.1564  1.4135
 9816TIP3    H250864   3.501   4.456   1.717 -0.0871  2.3638 -0.2230
 9817TIP3   OH250865   2.619   3.058   1.512  0.2969  0.6461 -0.1110
 9817TIP3    H150866   2.699   3.070   1.461 -0.3469  2.2455 -0.8043
 9817TIP3    H250867   2.548   3.068   1.448 -0.4618 -1.4273  0.3665
 9818TIP3   OH250868   0.979   6.334  10.816 -0.4949 -0.1932  0.0524
 9818TIP3    H150869   0.955   6.427  10.820 -0.0288 -0.0831  0.3270
 9818TIP3    H250870   0.913   6.295  10.759 -1.1133  0.1744  0.5055
 9819TIP3   OH250871   6.425   1.216   2.521 -0.0540  0.0034  0.4969
 9819TIP3    H150872   6.368   1.177   2.454  0.6536 -3.3731  1.7315
 9819TIP3    H250873   6.505   1.163   2.518  1.4123  2.1069  1.5386
 9820TIP3   OH250874   5.425   5.680  16.071  0.4941  0.1965 -0.5197
 9820TIP3    H150875   5.472   5.692  16.153 -2.0754  2.8904  0.6251
 9820TIP3    H250876   5.335   5.661  16.097 -0.9570  3.7268 -2.6612
 9821TIP3   OH250877   5.567   2.148  11.707  0.0824 -0.1485  0.5288
 9821TIP3    H150878   5.495   2.174  11.650  0.6727  1.1544  0.3587
 9821TIP3    H250879   5.622   2.093  11.652  1.5935  2.5419 -0.7671
 9822TIP3   OH250880   3.662   6.357  15.057 -0.2271 -0.0935  0.0632
 9822TIP3    H150881   3.749   6.370  15.096  0.4817  0.1002 -1.5236
 9822TIP3    H250882   3.650   6.432  14.999 -1.2926 -0.3227 -0.0250
 9823TIP3   OH250883   0.529   4.222  10.924  0.3517  0.6511 -0.1287
 9823TIP3    H150884   0.464   4.280  10.963 -0.1817  2.3009 -3.3049
 9823TIP3    H250885   0.493   4.198  10.838  1.4076 -2.9428  0.3285
 9824TIP3   OH250886   0.011   3.191  15.401  0.2918 -0.1944  0.4663
 9824TIP3    H150887   0.053   3.275  15.386 -1.9512  0.7730 -0.6995
 9824TIP3    H250888  -0.043   3.205  15.479  0.4503 -0.7737  0.6833
 9825TIP3   OH250889   3.984   3.935  14.817 -0.4805 -0.1084 -0.5462
 9825TIP3    H150890   3.899   3.968  14.845 -0.5952 -0.7415 -0.1536
 9825TIP3    H250891   3.964   3.862  14.759 -0.2041 -0.1473 -0.5939
 9826TIP3   OH250892   0.079   3.545   3.011 -0.2479 -0.0956  0.2699
 9826TIP3    H150893   0.065   3.603   2.936 -2.5119 -1.1739 -0.1692
 9826TIP3    H250894   0.039   3.591   3.085 -1.7385 -0.9049 -0.0129
 9827TIP3   OH250895   4.357   4.261  11.302 -0.5889  0.2094 -0.7693
 9827TIP3    H150896   4.291   4.323  11.271 -1.2995 -0.2381 -0.1929
 9827TIP3    H250897   4.338   4.180  11.255 -0.6683 -0.0150 -0.3555
 9828TIP3   OH250898   2.138   0.374   3.345 -0.0716  0.9579  0.4802
 9828TIP3    H150899   2.204   0.332   3.290  0.9868 -0.0616  2.4377
 9828TIP3    H250900   2.187   0.434   3.401 -0.9518  1.1016  1.1218
 9829TIP3   OH250901   6.267   5.022   6.150  0.1465 -0.3770  0.6589
 9829TIP3    H150902   6.317   5.090   6.195 -1.2829  0.1959  1.3843
 9829TIP3    H250903   6.221   4.975   6.219  1.9714 -2.8561  0.3073
 9830TIP3   OH250904   2.776   1.212   6.499  0.4354  0.5796  0.2533
 9830TIP3    H150905   2.793   1.232   6.407  0.0516  0.4353  0.1505
 9830TIP3    H250906   2.807   1.289   6.547 -0.3213  1.0919 -0.0799
 9831TIP3   OH250907   0.824   3.583   4.812 -0.2070 -0.3735  0.0781
 9831TIP3    H150908   0.898   3.600   4.870  0.0941  0.5628 -0.5650
 9831TIP3    H250909   0.859   3.527   4.744  0.3263  1.2998 -1.0682
 9832TIP3   OH250910   2.134   2.633   1.691  0.1613  0.2565 -0.3520
 9832TIP3    H150911   2.193   2.697   1.650 -1.5434  1.5391 -0.8545
 9832TIP3    H250912   2.051   2.644   1.645 -1.0291 -0.1560  1.6557
 9833TIP3   OH250913   1.243   3.735   4.888 -0.2006  0.2805  0.3698
 9833TIP3    H150914   1.262   3.821   4.925  1.2684 -1.3169  3.5289
 9833TIP3    H250915   1.181   3.695   4.950 -2.5199 -0.2090 -2.1399
 9834TIP3   OH250916   1.462   6.724   5.225 -0.2644  0.1300 -0.6633
 9834TIP3    H150917   1.473   6.817   5.209  0.6692  0.4402  1.5911
 9834TIP3    H250918   1.402   6.694   5.157 -1.3417  2.5560 -0.8060
 9835TIP3   OH250919   2.822   4.389  13.523 -0.2096  0.0007  0.0754
 9835TIP3    H150920   2.776   4.422  13.446 -1.3982 -0.5854  0.5221
 9835TIP3    H250921   2.753   4.380  13.590  0.2504 -2.5312  0.2345
 9836TIP3   OH250922   1.392   1.389   2.404 -0.1690  0.1296 -0.3623
 9836TIP3    H150923   1.466   1.449   2.413 -0.1175  0.1590 -0.9596
 9836TIP3    H250924   1.415   1.333   2.330 -1.2147  0.8049 -1.2028
 9837TIP3   OH250925   2.036   4.592   5.548  0.1432  0.6970 -0.1192
 9837TIP3    H150926   1.968   4.525   5.557 -0.5293  1.4042  0.1745
 9837TIP3    H250927   1.989   4.671   5.522  1.1756  0.5781 -2.4420
 9838TIP3   OH250928   1.509   2.140   5.863 -0.2920  0.5829 -0.2497
 9838TIP3    H150929   1.440   2.076   5.879  0.2743 -0.6030 -2.4267
 9838TIP3    H250930   1.571   2.126   5.935 -0.6478 -0.6397 -0.1697
 9839TIP3   OH250931   2.993   4.313  12.288  0.2882  0.4593 -0.0594
 9839TIP3    H150932   2.964   4.224  12.309  1.9755  0.5393  2.8651
 9839TIP3    H250933   3.063   4.301  12.225 -0.0752 -0.2457 -0.3319
 9840TIP3   OH250934   2.258   3.035  10.711 -0.8823  0.2881  0.4434
 9840TIP3    H150935   2.325   3.017  10.777  0.2232 -0.4324 -0.8429
 9840TIP3    H250936   2.253   2.954  10.660 -4.1005 -0.3634  1.6465
 9841TIP3   OH250937   4.828   1.922  14.472 -0.2002  0.4431 -0.0665
 9841TIP3    H150938   4.752   1.980  14.464 -0.9929 -0.1606  2.6394
 9841TIP3    H250939   4.850   1.924  14.565  2.3522 -0.3601 -0.6229
 9842TIP3   OH250940   6.474   1.510   2.091  0.2207  0.2064 -0.1897
 9842TIP3    H150941   6.478   1.535   2.183  1.9340 -2.1702  0.4328
 9842TIP3    H250942   6.532   1.572   2.046 -0.7786  1.4917  0.2779
 9843TIP3   OH250943   6.327   5.709   0.331  0.4016 -0.1863  0.0023
 9843TIP3    H150944   6.351   5.628   0.285  0.2325 -1.2101  1.6627
 9843TIP3    H250945   6.402   5.766   0.319  1.1491 -1.1430  0.0794
 9844TIP3   OH250946   3.194   2.772   0.643  0.8283 -0.2432  0.3949
 9844TIP3    H150947   3.118   2.744   0.695  1.2615 -0.7885  0.7465
 9844TIP3    H250948   3.198   2.867   0.656 -0.2923 -0.0897 -0.3084
 9845TIP3   OH250949   1.173   3.788  13.896  0.5516  0.2018  0.1317
 9845TIP3    H150950   1.153   3.754  13.984 -1.2200 -1.5210 -0.8838
 9845TIP3    H250951   1.096   3.840  13.872  0.9746  0.5699 -0.4472
 9846TIP3   OH250952   1.098   4.586  17.154 -0.0713  0.1422  0.3801
 9846TIP3    H150953   1.091   4.490  17.157 -2.3031  0.3184  1.4091
 9846TIP3    H250954   1.127   4.611  17.242 -0.1389  0.4625  0.3133
 9847TIP3   OH250955   1.487   3.274  12.986 -0.0634  0.1129  0.3627
 9847TIP3    H150956   1.540   3.229  12.920 -0.4611  1.5419 -0.9762
 9847TIP3    H250957   1.503   3.226  13.067  1.1616 -1.1210 -0.5854
 9848TIP3   OH250958   3.512   5.884  13.775  0.3259  0.7085  0.5501
 9848TIP3    H150959   3.568   5.884  13.698  1.1079 -0.1180  1.1111
 9848TIP3    H250960   3.573   5.884  13.849 -0.3864  3.3315  1.1958
 9849TIP3   OH250961   5.567   0.099  15.456 -0.5685  0.3018  0.0305
 9849TIP3    H150962   5.617   0.059  15.528  0.3083  0.5039 -0.4658
 9849TIP3    H250963   5.509   0.029  15.426 -0.1053 -0.1408  0.1596
 9850TIP3   OH250964   0.604   1.014  11.305  0.4533 -0.2845 -0.5447
 9850TIP3    H150965   0.653   1.083  11.261 -0.8828 -0.7616 -2.9152
 9850TIP3    H250966   0.654   0.934  11.288  1.6184 -0.0358  1.5809
 9851TIP3   OH250967   6.660   6.677  12.835 -0.2741 -0.1861  0.0783
 9851TIP3    H150968   6.577   6.677  12.884 -0.5082  0.3818 -0.3169
 9851TIP3    H250969   6.669   6.766  12.803  0.0623 -0.4677 -0.6186
 9852TIP3   OH250970   3.757   3.453   0.352  0.6338 -0.0071 -0.0780
 9852TIP3    H150971   3.832   3.459   0.293  0.8921  1.3048  0.3615
 9852TIP3    H250972   3.795   3.426   0.436  0.4154 -0.7840 -0.2285
 9853TIP3   OH250973   1.135   6.129   4.080  0.3027  0.1541 -0.1569
 9853TIP3    H150974   1.213   6.079   4.057  1.3469  1.0949  1.2993
 9853TIP3    H250975   1.168   6.207   4.125 -1.4920  0.3424  0.8798
 9854TIP3   OH250976   1.595   1.174  10.690 -0.4534 -0.1129  0.1449
 9854TIP3    H150977   1.666   1.123  10.728 -0.3862 -0.1921 -0.0827
 9854TIP3    H250978   1.521   1.114  10.687 -1.3592  0.7835  2.9643
 9855TIP3   OH250979   4.004   4.455  16.099  0.2245 -0.0749  0.5452
 9855TIP3    H150980   4.057   4.427  16.173  0.3062  0.5241  0.7186
 9855TIP3    H250981   3.940   4.385  16.087  0.7993 -0.6156  0.5904
 9856TIP3   OH250982   2.636   6.519   0.378 -0.5093  0.6839 -0.2155
 9856TIP3    H150983   2.542   6.521   0.398 -1.0859 -1.1776 -2.4427
 9856TIP3    H250984   2.645   6.571   0.299 -0.1116 -1.2891 -1.5003
 9857TIP3   OH250985   4.486   1.826   3.455  0.6681  0.0955  0.2521
 9857TIP3    H150986   4.412   1.817   3.515  0.3883 -0.1916 -0.1304
 9857TIP3    H250987   4.541   1.893   3.495  1.4612 -1.4362  1.8097
 9858TIP3   OH250988   2.785   6.117   1.884  0.3348 -0.7589  0.4184
 9858TIP3    H150989   2.851   6.050   1.903  0.7806 -0.0772  1.2687
 9858TIP3    H250990   2.787   6.175   1.959 -2.5112 -1.7199  1.2901
 9859TIP3   OH250991   5.515   4.471   4.632 -0.2812 -0.4123  0.4764
 9859TIP3    H150992   5.575   4.429   4.570 -1.9353 -0.5682 -1.0651
 9859TIP3    H250993   5.507   4.561   4.599  0.9269  0.3028  2.0545
 9860TIP3   OH250994   0.676   4.549  15.223 -0.2967  0.2503  0.1693
 9860TIP3    H150995   0.769   4.553  15.245  0.2425  0.8638 -2.0261
 9860TIP3    H250996   0.657   4.456  15.213  0.0460  0.1132  0.7938
 9861TIP3   OH250997   3.405   1.524  16.401  0.0867 -0.1476 -0.1403
 9861TIP3    H150998   3.455   1.469  16.342  0.9864 -0.0278  0.5010
 9861TIP3    H250999   3.423   1.613  16.372 -0.5405 -0.1460 -0.5273
 9862TIP3   OH251000   4.012   4.246  14.723 -0.0403  0.5898 -0.3406
 9862TIP3    H151001   4.020   4.245  14.628  1.6548 -1.2293 -0.2209
 9862TIP3    H251002   3.968   4.163  14.744 -0.3991  0.9781  0.4631
 9863TIP3   OH251003   5.806   3.298  14.737  0.3575  0.2675  0.6689
 9863TIP3    H151004   5.738   3.239  14.705  0.4938 -0.6699  2.0310
 9863TIP3    H251005   5.772   3.386  14.723 -1.0935 -0.1957  1.2402
 9864TIP3   OH251006   2.567   4.096   0.790 -0.1822  0.4639  0.0068
 9864TIP3    H151007   2.552   4.015   0.839  1.6687  0.0283 -0.1026
 9864TIP3    H251008   2.663   4.104   0.787 -0.3046  1.2874 -2.2286
 9865TIP3   OH251009   0.941   5.200  12.525  0.5868 -0.0789  0.3955
 9865TIP3    H151010   0.899   5.128  12.477  0.7329 -0.3446  0.6595
 9865TIP3    H251011   0.956   5.268  12.459 -0.9531  0.3316  0.4575
 9866TIP3   OH251012   3.262   0.441   5.542  0.0089 -0.6103  0.0171
 9866TIP3    H151013   3.272   0.377   5.471  1.6449  0.0219 -0.3498
 9866TIP3    H251014   3.324   0.511   5.520 -0.1456  0.0435  1.5824
 9867TIP3   OH251015   4.864   0.101  14.478  0.1999  0.8459 -0.0899
 9867TIP3    H151016   4.868   0.029  14.542 -0.7333  1.1219  0.2850
 9867TIP3    H251017   4.851   0.179  14.532 -1.3830  0.9893 -0.6662
 9868TIP3   OH251018   6.238   3.262   5.344 -0.0748 -0.5646  0.3281
 9868TIP3    H151019   6.309   3.236   5.286  0.8462  0.5885  0.9299
 9868TIP3    H251020   6.191   3.330   5.296  0.3767  0.0220  0.7089
 9869TIP3   OH251021   5.775   1.533  11.679  0.2955  0.3380 -0.6120
 9869TIP3    H151022   5.781   1.522  11.774 -2.1966 -1.3682 -0.6265
 9869TIP3    H251023   5.853   1.488  11.645 -0.4545 -1.7949  0.4425
 9870TIP3   OH251024   5.026   1.614  16.948 -0.6398  0.3772 -0.2381
 9870TIP3    H151025   4.980   1.696  16.964 -1.2120  0.2172 -1.0177
 9870TIP3    H251026   5.017   1.565  17.029 -2.1951  0.1904 -0.5110
 9871TIP3   OH251027   1.287   2.786  13.452 -0.0379 -0.1126 -0.1131
 9871TIP3    H151028   1.319   2.696  13.446  0.3702  0.1127 -1.4367
 9871TIP3    H251029   1.312   2.826  13.369 -0.9449  0.9895  0.1329
 9872TIP3   OH251030   1.560   2.683  16.862 -0.2574  0.3222 -0.4789
 9872TIP3    H151031   1.516   2.767  16.855 -1.4693 -0.3149 -0.7247
 9872TIP3    H251032   1.574   2.655  16.772 -0.1496  0.1231 -0.4027
 9873TIP3   OH251033   0.974   2.748  12.679 -0.3074  0.1693  0.4052
 9873TIP3    H151034   0.998   2.658  12.701 -2.2007 -0.8647 -1.5293
 9873TIP3    H251035   0.969   2.793  12.763 -0.3096 -1.7899  1.4890
 9874TIP3   OH251036   2.669   6.442  15.862  0.0626  0.0357 -0.6843
 9874TIP3    H151037   2.755   6.479  15.839 -0.0272  0.9494  0.4285
 9874TIP3    H251038   2.611   6.518  15.868 -0.9771 -0.6142 -1.9646
 9875TIP3   OH251039   5.873   1.964  11.778  0.5067 -0.1185 -0.3716
 9875TIP3    H151040   5.916   1.890  11.736  0.0534  0.2445 -1.4970
 9875TIP3    H251041   5.853   1.933  11.866 -0.6232 -1.7090 -1.1572
 9876TIP3   OH251042   5.524   4.971  13.218  0.4898  0.2894 -1.0654
 9876TIP3    H151043   5.435   4.939  13.230 -0.0268  2.0799  0.0122
 9876TIP3    H251044   5.514   5.064  13.200  2.2716  1.0568  1.6173
 9877TIP3   OH251045   6.599   2.056  16.951 -0.1612  0.8654 -0.2837
 9877TIP3    H151046   6.545   1.978  16.940 -0.5792  1.3438 -1.7281
 9877TIP3    H251047   6.607   2.092  16.862  0.3803  2.2259  0.3109
 9878TIP3   OH251048   4.869   4.497  13.053 -0.1569 -0.0053  0.5017
 9878TIP3    H151049   4.841   4.417  13.008  1.6859  0.6401 -1.8577
 9878TIP3    H251050   4.818   4.567  13.011  1.8666  0.6523 -0.9323
 9879TIP3   OH251051   2.840   4.817   2.897  0.3934  0.0163  1.0561
 9879TIP3    H151052   2.807   4.809   2.807 -2.4444  4.4821  1.5423
 9879TIP3    H251053   2.917   4.873   2.889  1.1436 -0.9710  1.2527
 9880TIP3   OH251054   2.026   3.532  14.674 -0.0636  0.0118  0.2806
 9880TIP3    H151055   1.951   3.473  14.682  0.9480 -1.1480  1.3090
 9880TIP3    H251056   1.997   3.599  14.611 -2.1124 -0.1586  1.0045
 9881TIP3   OH251057   0.237   5.175   5.279 -0.5118  0.2272 -0.6411
 9881TIP3    H151058   0.178   5.197   5.207 -2.9454 -1.5741  0.7230
 9881TIP3    H251059   0.183   5.124   5.339  1.7465  0.8154  1.9677
 9882TIP3   OH251060   5.699   1.811  12.695 -0.0787  0.0109 -0.0003
 9882TIP3    H151061   5.639   1.793  12.767  0.5647  0.2529  0.5999
 9882TIP3    H251062   5.738   1.896  12.717  0.8611 -0.3827 -0.1388
 9883TIP3   OH251063   6.580   4.747  14.981  0.2765 -0.2336  0.3269
 9883TIP3    H151064   6.649   4.813  14.978  2.4622 -2.4866 -0.3638
 9883TIP3    H251065   6.563   4.725  14.890 -1.7370  0.6424  0.4646
 9884TIP3   OH251066   4.412   2.970   4.159  0.5878 -0.1227 -0.1187
 9884TIP3    H151067   4.489   3.017   4.128  1.1396 -0.1890  1.1128
 9884TIP3    H251068   4.442   2.924   4.238 -1.2896  1.7538  1.7428
 9885TIP3   OH251069   5.159   3.850   2.966  0.0974  0.1514 -0.1523
 9885TIP3    H151070   5.166   3.765   2.922  0.0317 -0.2097  0.5350
 9885TIP3    H251071   5.085   3.893   2.923 -1.0191 -0.8701  0.7334
 9886TIP3   OH251072   6.389   1.107   5.075  0.2069 -0.7290  0.2286
 9886TIP3    H151073   6.350   1.119   5.162  2.4445 -0.6364  1.2528
 9886TIP3    H251074   6.385   1.012   5.061  1.7733 -0.9764  1.3771
 9887TIP3   OH251075   2.537   6.409  11.870 -0.3551 -0.2695  0.3485
 9887TIP3    H151076   2.485   6.424  11.790 -2.3680  1.4333  1.9159
 9887TIP3    H251077   2.612   6.467  11.861 -0.3652 -0.3793 -0.4994
 9888TIP3   OH251078   2.877   2.578   4.478  0.3925  0.1594 -0.2603
 9888TIP3    H151079   2.802   2.518   4.480 -0.1228  0.7334 -1.7352
 9888TIP3    H251080   2.951   2.522   4.456 -0.0510 -0.0008 -1.4126
 9889TIP3   OH251081   3.910   0.638  13.883 -0.5413 -0.4054  0.0881
 9889TIP3    H151082   3.911   0.721  13.929 -0.4012 -0.6332  0.5010
 9889TIP3    H251083   3.904   0.661  13.790 -2.4178  0.0355  0.2901
 9890TIP3   OH251084   2.748   0.119   5.609  0.7713 -0.1181 -0.1068
 9890TIP3    H151085   2.705   0.034   5.616  1.7943 -0.4718  2.4620
 9890TIP3    H251086   2.678   0.183   5.615  0.0575 -0.7394 -1.4994
 9891TIP3   OH251087   6.713   6.629   2.635  0.1094  0.4469 -0.4536
 9891TIP3    H151088   6.719   6.650   2.541 -0.6671  0.5413 -0.4836
 9891TIP3    H251089   6.643   6.564   2.640 -0.4022  1.0451  0.1618
 9892TIP3   OH251090   2.545   5.814   4.519  0.4113 -0.6012  0.5328
 9892TIP3    H151091   2.535   5.789   4.427  0.0026 -0.6660  0.5904
 9892TIP3    H251092   2.501   5.743   4.567 -0.2759 -0.0537  0.7250
 9893TIP3   OH251093   1.912   5.351   2.918 -0.6422  0.0066  0.0589
 9893TIP3    H151094   1.909   5.282   2.852  2.1569 -0.0643 -0.0511
 9893TIP3    H251095   1.987   5.405   2.893  0.0137  0.4227  2.7491
 9894TIP3   OH251096   1.702   1.410  10.610  0.5707  0.5639 -0.1744
 9894TIP3    H151097   1.784   1.396  10.657  0.0095  2.3578  1.4112
 9894TIP3    H251098   1.646   1.338  10.637  0.7213  0.8345  0.8967
 9895TIP3   OH251099   1.755   0.601  12.519  0.3883 -0.5843 -0.3630
 9895TIP3    H151100   1.668   0.617  12.554  0.3015 -1.2169 -0.2892
 9895TIP3    H251101   1.800   0.550  12.587  0.6131 -0.7786 -0.6531
 9896TIP3   OH251102   1.421   3.072  17.198 -0.2674  0.3282  0.2105
 9896TIP3    H151103   1.347   3.049  17.254 -0.6871  0.1738 -0.4010
 9896TIP3    H251104   1.498   3.041  17.245 -0.7207 -1.0946  0.0288
 9897TIP3   OH251105   5.592   0.754  12.371  0.2402  0.0663 -0.1292
 9897TIP3    H151106   5.597   0.659  12.379 -3.3399 -0.2465 -0.8860
 9897TIP3    H251107   5.554   0.769  12.285  0.0358  2.1576  0.3078
 9898TIP3   OH251108   1.260   5.937  15.984 -0.3759  0.5933 -0.1369
 9898TIP3    H151109   1.175   5.979  15.999 -0.1030  1.5459 -1.1479
 9898TIP3    H251110   1.252   5.896  15.898 -0.8376 -2.0006  1.1025
 9899TIP3   OH251111   5.217   6.611   2.873 -0.0997  0.8904 -0.2588
 9899TIP3    H151112   5.200   6.564   2.791  1.4942  0.7881 -0.5616
 9899TIP3    H251113   5.197   6.547   2.941  1.5991 -0.1119 -0.6603
 9900TIP3   OH251114   4.747   0.786  13.338 -0.2335  0.3112  0.3065
 9900TIP3    H151115   4.685   0.819  13.273  0.2303  1.9464  0.6613
 9900TIP3    H251116   4.833   0.801  13.299  0.0032  0.0527  0.7247
 9901TIP3   OH251117   4.010   3.513   2.172  0.4568  0.5833 -0.2921
 9901TIP3    H151118   3.994   3.432   2.220  1.5260  0.2988 -0.4018
 9901TIP3    H251119   3.979   3.582   2.230  0.3818  0.1517  0.1854
 9902TIP3   OH251120   5.244   5.158  14.560 -0.2304  0.5905  0.3575
 9902TIP3    H151121   5.241   5.182  14.467  1.2800 -1.4274 -0.2610
 9902TIP3    H251122   5.162   5.109  14.574 -0.1160  0.2532 -0.1193
 9903TIP3   OH251123   0.863   2.914   5.238  0.5881  1.3421  0.2378
 9903TIP3    H151124   0.935   2.860   5.206 -0.0704  1.6929 -1.9173
 9903TIP3    H251125   0.880   2.924   5.332  2.6932  0.4530 -0.0248
 9904TIP3   OH251126   0.610   6.123   2.641  0.1427 -0.1130  0.0379
 9904TIP3    H151127   0.558   6.061   2.692  1.4972 -0.7518  0.6613
 9904TIP3    H251128   0.554   6.146   2.567 -0.5761 -1.6750  0.0836
 9905TIP3   OH251129   5.474   6.312   0.197 -0.4466 -0.6435 -0.2677
 9905TIP3    H151130   5.566   6.334   0.210 -0.3148 -0.6541 -1.1409
 9905TIP3    H251131   5.471   6.216   0.203  0.0350 -0.8531 -2.7578
 9906TIP3   OH251132   5.961   4.130   3.469 -0.3450 -0.4395 -0.5109
 9906TIP3    H151133   5.963   4.091   3.556  2.4400  0.0886 -0.3050
 9906TIP3    H251134   5.946   4.224   3.485  2.5466  0.0394 -0.4242
 9907TIP3   OH251135   5.030   6.423  12.271 -0.5802  0.3417  0.4530
 9907TIP3    H151136   4.967   6.378  12.327 -2.4281  2.7678  0.4201
 9907TIP3    H251137   4.998   6.409  12.182  0.3098 -0.4771  0.2595
 9908TIP3   OH251138   5.630   1.616   6.084 -0.4205 -0.4034 -0.1357
 9908TIP3    H151139   5.563   1.641   6.020 -1.8493  0.3523  1.6008
 9908TIP3    H251140   5.619   1.679   6.155 -0.2380 -2.4629  1.7575
 9909TIP3   OH251141   1.495   3.194  10.990 -0.2441  0.0679  0.3266
 9909TIP3    H151142   1.402   3.213  11.002  0.0057  2.0435 -0.5934
 9909TIP3    H251143   1.500   3.099  10.979 -2.3267  0.1086 -1.1931
 9910TIP3   OH251144   6.770   5.158   1.983  0.0531 -0.2200  0.3121
 9910TIP3    H151145   6.687   5.158   1.936  0.1473 -1.3496  0.1255
 9910TIP3    H251146   6.795   5.250   1.989  0.0510 -0.0531 -1.8951
 9911TIP3   OH251147   4.457   1.521   1.569  0.0410 -0.2960  0.3545
 9911TIP3    H151148   4.472   1.569   1.487 -0.9342 -0.1121  0.2692
 9911TIP3    H251149   4.366   1.542   1.592 -0.2569 -1.7711  0.5488
 9912TIP3   OH251150   4.889   4.190  14.237 -0.6773 -0.5702 -0.2658
 9912TIP3    H151151   4.822   4.220  14.175  0.1924 -0.6636 -1.2716
 9912TIP3    H251152   4.901   4.264  14.296 -0.3368  0.1582 -1.2249
 9913TIP3   OH251153   3.531   5.272   3.445  0.7021  0.0910  0.0877
 9913TIP3    H151154   3.538   5.203   3.379  0.3249  1.1974 -1.1432
 9913TIP3    H251155   3.590   5.341   3.414 -2.8710  2.5843 -1.6145
 9914TIP3   OH251156   2.100   2.411   0.054 -0.2299  0.4916  0.5319
 9914TIP3    H151157   2.056   2.466  -0.011 -0.6564 -1.3460 -0.7817
 9914TIP3    H251158   2.030   2.381   0.111 -0.2646 -0.1194  0.1704
 9915TIP3   OH251159   2.628   5.894  13.162 -0.6970  0.5461  0.5930
 9915TIP3    H151160   2.584   5.867  13.081  0.1659 -0.7150  0.5287
 9915TIP3    H251161   2.701   5.949  13.132 -0.3249  0.0063  0.5033
 9916TIP3   OH251162   5.496   1.730  12.496 -0.6643  0.2417  0.1359
 9916TIP3    H151163   5.561   1.761  12.559 -0.1307 -1.7246  0.5798
 9916TIP3    H251164   5.460   1.810  12.457  1.5181  1.3648  0.3842
 9917TIP3   OH251165   2.815   4.561   1.189  0.7733 -0.4870 -0.1027
 9917TIP3    H151166   2.762   4.640   1.181  0.8459 -0.5429 -1.1906
 9917TIP3    H251167   2.904   4.593   1.204  0.9029 -0.3508 -1.1496
 9918TIP3   OH251168   3.381   5.227   1.226 -0.0957 -0.2237 -0.1793
 9918TIP3    H151169   3.471   5.241   1.254  0.0781  1.5258 -1.5785
 9918TIP3    H251170   3.379   5.135   1.198  0.5343 -1.0665  2.3742
 9919TIP3   OH251171   4.975   0.119   3.881 -0.1755  0.3134  0.2872
 9919TIP3    H151172   4.917   0.043   3.872 -1.5192  1.1021  2.0346
 9919TIP3    H251173   4.916   0.193   3.892  1.1632  1.3578  0.5196
 9920TIP3   OH251174   1.339   4.332   2.633  0.3758  0.0856  0.1238
 9920TIP3    H151175   1.351   4.333   2.728  1.6872 -0.7380 -0.0219
 9920TIP3    H251176   1.425   4.356   2.598  0.0681 -0.2222 -0.8587
 9921TIP3   OH251177   4.959   3.175  11.327  0.1409  0.4168 -0.2632
 9921TIP3    H151178   4.907   3.205  11.254 -0.7812  1.5528  0.8387
 9921TIP3    H251179   5.048   3.204  11.308  0.4619 -1.7441 -2.2686
 9922TIP3   OH251180   1.723   4.065  11.945 -0.2937  0.4625  0.3769
 9922TIP3    H151181   1.641   4.041  11.903  0.2603  0.6393 -0.8182
 9922TIP3    H251182   1.708   4.050  12.038 -1.6238  0.3437  0.1422
 9923TIP3   OH251183   4.683   5.775  16.194 -0.2290  0.0397  1.0082
 9923TIP3    H151184   4.666   5.696  16.246  3.4037 -0.1356  2.0758
 9923TIP3    H251185   4.685   5.744  16.104 -0.7329 -0.7570  1.2640
 9924TIP3   OH251186   6.295   4.306  15.839 -0.5028  0.9174 -0.0229
 9924TIP3    H151187   6.339   4.369  15.781  0.8214  0.2327  0.2059
 9924TIP3    H251188   6.356   4.296  15.912 -1.6694  0.9505  0.9590
 9925TIP3   OH251189   1.589   5.372  14.107 -0.1188  0.9375  0.2994
 9925TIP3    H151190   1.658   5.312  14.136 -1.6090 -0.4369  1.0964
 9925TIP3    H251191   1.624   5.459  14.126  0.6425  0.2016  2.4612
 9926TIP3   OH251192   0.098   2.367   2.178  0.8040 -0.4013  0.4915
 9926TIP3    H151193   0.075   2.459   2.163  4.0258  0.2779 -0.8016
 9926TIP3    H251194   0.014   2.321   2.178 -0.7709  2.3493 -0.2860
 9927TIP3   OH251195   5.860   6.229  16.061 -0.3098  0.0121 -0.4027
 9927TIP3    H151196   5.782   6.175  16.065 -0.4585  0.0982 -1.9246
 9927TIP3    H251197   5.832   6.310  16.018  0.4994  0.2481 -0.5040
 9928TIP3   OH251198   0.238   4.821  11.409 -0.0346 -0.0845  0.1584
 9928TIP3    H151199   0.222   4.911  11.378 -1.3322 -0.2197  0.4142
 9928TIP3    H251200   0.333   4.814  11.412  0.1214  1.8691  1.7538
 9929TIP3   OH251201   3.436   6.669  16.528 -0.0101 -0.1181 -0.0451
 9929TIP3    H151202   3.505   6.605  16.549 -0.5516 -1.3547 -1.9629
 9929TIP3    H251203   3.364   6.616  16.495 -0.3656  1.5010 -1.9119
 9930TIP3   OH251204   3.527   4.010   3.452  0.1547  0.6378  0.9077
 9930TIP3    H151205   3.581   4.079   3.414 -1.3828  1.3704  0.0517
 9930TIP3    H251206   3.459   3.994   3.387 -1.1490  0.2807  2.3436
 9931TIP3   OH251207   5.704   0.747  14.662  0.0695 -0.7109 -0.3035
 9931TIP3    H151208   5.741   0.778  14.579 -1.3885 -0.3983 -0.8431
 9931TIP3    H251209   5.691   0.826  14.714 -0.3298 -0.7648 -0.3186
 9932TIP3   OH251210   4.909   2.013  14.742  0.1889 -0.8805 -0.3633
 9932TIP3    H151211   5.001   2.027  14.718 -0.0122 -0.8291 -1.1015
 9932TIP3    H251212   4.909   2.014  14.838  0.6886  0.9254 -0.3665
 9933TIP3   OH251213   1.128   2.329  10.508 -0.0004 -0.0524 -0.3802
 9933TIP3    H151214   1.139   2.258  10.570  2.0910  0.5549 -0.0360
 9933TIP3    H251215   1.183   2.306  10.434  0.7943  1.2516 -0.2123
 9934TIP3   OH251216   5.152   1.032  10.587 -0.2260 -0.3215 -0.3459
 9934TIP3    H151217   5.092   1.106  10.582 -1.6159 -1.5507 -2.3244
 9934TIP3    H251218   5.098   0.959  10.614  0.8394 -0.9792  0.0495
 9935TIP3   OH251219   5.636   5.494  14.828  0.0634  0.6634 -0.0902
 9935TIP3    H151220   5.642   5.584  14.795 -1.0199  0.8777  0.2648
 9935TIP3    H251221   5.638   5.503  14.923 -2.4198  0.5248  0.0017
 9936TIP3   OH251222   3.477   6.226   2.348  0.2981  0.1778 -0.3692
 9936TIP3    H151223   3.386   6.196   2.345  0.9631 -1.9560  0.3188
 9936TIP3    H251224   3.494   6.261   2.261 -0.2019 -2.3913 -1.5392
 9937TIP3   OH251225   4.609   4.217   1.528  0.5064 -0.0212  0.8977
 9937TIP3    H151226   4.573   4.156   1.594  1.4607  0.3442  1.7716
 9937TIP3    H251227   4.534   4.271   1.503 -0.1287 -0.9070  0.8418
 9938TIP3   OH251228   1.198   1.147  13.592 -0.6145  0.0968  0.2733
 9938TIP3    H151229   1.118   1.176  13.549 -1.0661  0.8034  1.5447
 9938TIP3    H251230   1.238   1.228  13.625  1.0643 -0.1499 -1.0669
 9939TIP3   OH251231   2.326   0.169   5.171  0.2098  0.1004  0.9572
 9939TIP3    H151232   2.288   0.082   5.154 -0.3719  0.3962  0.7024
 9939TIP3    H251233   2.407   0.151   5.217  2.0745 -0.8009 -2.4681
 9940TIP3   OH251234   1.182   1.272   1.620  0.9101 -0.2113  0.1477
 9940TIP3    H151235   1.276   1.287   1.624  1.2865 -2.2882 -0.0164
 9940TIP3    H251236   1.152   1.281   1.711  1.3426 -0.0232  0.2735
 9941TIP3   OH251237   3.423   3.042   1.911  0.4861  0.1418 -0.0435
 9941TIP3    H151238   3.491   2.974   1.909 -2.9086 -3.3977 -2.2218
 9941TIP3    H251239   3.406   3.056   2.004  1.1672 -2.0957  0.4474
 9942TIP3   OH251240   3.332   5.560  16.040 -0.0073  0.4907  0.1904
 9942TIP3    H151241   3.371   5.472  16.042 -0.6604  0.2097  1.3790
 9942TIP3    H251242   3.381   5.608  16.107  1.0176  1.3411 -1.1427
 9943TIP3   OH251243   6.709   5.679  14.680 -0.3469 -0.2542 -0.2343
 9943TIP3    H151244   6.708   5.596  14.632  0.9698 -0.5003  0.1533
 9943TIP3    H251245   6.797   5.714  14.665 -0.1961  0.0459  1.3439
 9944TIP3   OH251246   0.915   1.583  16.512 -0.0432  0.1666 -0.1548
 9944TIP3    H151247   0.851   1.554  16.447 -0.0805 -0.4028  0.1422
 9944TIP3    H251248   0.889   1.540  16.593 -1.0823  2.2915  0.6961
 9945TIP3   OH251249   0.868   2.627  16.031 -0.0957  0.5764  0.2712
 9945TIP3    H151250   0.954   2.637  15.991  0.4724  1.1098  1.5869
 9945TIP3    H251251   0.887   2.605  16.123 -1.3553 -0.8192  0.2190
 9946TIP3   OH251252   1.596   5.258   0.812 -0.5046  0.3077  0.0807
 9946TIP3    H151253   1.524   5.299   0.859 -0.2547  0.3496  0.4270
 9946TIP3    H251254   1.674   5.307   0.839 -0.0700 -0.9585  1.1990
 9947TIP3   OH251255   5.186   3.196  16.375 -0.0011  0.4019  0.4687
 9947TIP3    H151256   5.113   3.252  16.401  0.5530  1.6990 -0.6756
 9947TIP3    H251257   5.259   3.224  16.431  0.9628  2.6211 -1.7775
 9948TIP3   OH251258   6.608   0.106   3.516  0.2962  0.1786  0.6938
 9948TIP3    H151259   6.575   0.196   3.516 -1.5674 -0.4750  1.7467
 9948TIP3    H251260   6.620   0.085   3.424  0.7937  1.5201  0.4385
 9949TIP3   OH251261   4.151   6.263   4.966 -0.4211  0.1897  0.4107
 9949TIP3    H151262   4.103   6.285   5.046 -0.4016 -0.7329  0.6929
 9949TIP3    H251263   4.126   6.172   4.948 -3.0933  1.3859 -2.5363
 9950TIP3   OH251264   0.016   0.856  11.285  0.2233 -0.2176  0.4484
 9950TIP3    H151265   0.018   0.914  11.208 -0.1074 -0.7643  0.0216
 9950TIP3    H251266   0.050   0.910  11.356  1.1631  0.0837 -0.2232
 9951TIP3   OH251267   0.778   6.475   2.384  0.4961 -0.1591 -0.3575
 9951TIP3    H151268   0.827   6.500   2.306  1.1157 -0.7052 -0.1533
 9951TIP3    H251269   0.830   6.404   2.423 -0.4740 -0.7702 -0.1523
 9952TIP3   OH251270   3.140   1.376   0.825 -0.5973 -0.0235  0.6889
 9952TIP3    H151271   3.135   1.442   0.756 -0.5955 -0.6635  0.0629
 9952TIP3    H251272   3.054   1.379   0.868 -1.2231 -0.7898 -0.4563
 9953TIP3   OH251273   0.314   5.621  14.906 -0.5560 -0.1487 -0.3155
 9953TIP3    H151274   0.254   5.572  14.962 -1.4524  0.5851 -0.6205
 9953TIP3    H251275   0.323   5.706  14.949  0.7280 -0.4621  0.0360
 9954TIP3   OH251276   5.548   2.225   0.460 -0.2546  0.6424  0.1166
 9954TIP3    H151277   5.528   2.216   0.366 -1.2134 -0.4287  0.4170
 9954TIP3    H251278   5.578   2.139   0.487  0.0773  0.9640  0.7908
 9955TIP3   OH251279   1.874   0.330  13.034  0.0742 -0.1701 -0.2251
 9955TIP3    H151280   1.826   0.252  13.004  2.1402 -1.7399  0.4228
 9955TIP3    H251281   1.854   0.336  13.127 -1.1507  0.8992 -0.5349
 9956TIP3   OH251282   3.726   5.089  13.948 -0.5446 -0.1350  0.0471
 9956TIP3    H151283   3.777   5.049  13.877  0.2293  0.8654  0.0257
 9956TIP3    H251284   3.645   5.118  13.906  0.4471  1.6145 -0.7390
 9957TIP3   OH251285   4.707   1.825  11.508 -0.0286 -0.0225 -0.0876
 9957TIP3    H151286   4.709   1.755  11.442  0.0833 -0.2826  0.1900
 9957TIP3    H251287   4.794   1.824  11.547  0.3978  1.1558 -0.9911
 9958TIP3   OH251288   6.564   2.482   4.551 -0.0586 -0.5154 -0.0355
 9958TIP3    H151289   6.581   2.547   4.483  0.5972 -1.3436 -0.6739
 9958TIP3    H251290   6.527   2.407   4.504  1.2987 -1.4589  0.3696
 9959TIP3   OH251291   6.345   3.313  15.087 -0.9214  0.3998  0.3540
 9959TIP3    H151292   6.319   3.326  14.996 -2.0536  0.4610  0.6814
 9959TIP3    H251293   6.441   3.315  15.085 -0.9734  2.9704 -0.4532
 9960TIP3   OH251294   0.240   2.061  12.520 -0.0873 -0.0942 -0.0004
 9960TIP3    H151295   0.256   1.995  12.587 -1.2431 -0.6853 -0.2753
 9960TIP3    H251296   0.172   2.118  12.558  1.1370  1.1540  0.3715
 9961TIP3   OH251297   0.835   5.922   0.455  1.0125  0.0351 -0.1963
 9961TIP3    H151298   0.880   5.984   0.512  1.0129 -0.6793  0.5702
 9961TIP3    H251299   0.763   5.887   0.508  1.1693 -0.8197 -0.5369
 9962TIP3   OH251300   5.038   1.279   4.194 -0.0246  0.1913  0.4606
 9962TIP3    H151301   5.058   1.210   4.258  1.4667  1.5892  1.5417
 9962TIP3    H251302   4.948   1.303   4.213  0.0081 -0.2665  1.2200
 9963TIP3   OH251303   5.348   6.050  10.479  0.3108  0.4120  0.0002
 9963TIP3    H151304   5.276   6.113  10.476  0.5686  0.7822  1.2330
 9963TIP3    H251305   5.307   5.966  10.462 -0.3888  0.6428  0.5196
 9964TIP3   OH251306   2.129   0.123  14.573 -0.2043 -0.0545  0.0213
 9964TIP3    H151307   2.095   0.033  14.572 -1.8641  0.5448  0.7874
 9964TIP3    H251308   2.123   0.150  14.664  1.6470  0.3567  0.0446
 9965TIP3   OH251309   2.735   4.758   0.508 -0.4620 -0.3508  0.8421
 9965TIP3    H151310   2.674   4.714   0.568 -1.1915 -1.5158 -0.7101
 9965TIP3    H251311   2.721   4.715   0.424  1.5824  0.2752  0.1487
 9966TIP3   OH251312   5.432   0.071   0.712 -0.1711  0.4442 -0.0577
 9966TIP3    H151313   5.456   0.119   0.632 -0.7210  0.3649 -0.2723
 9966TIP3    H251314   5.458   0.130   0.783 -0.4988  0.9043 -0.3129
 9967TIP3   OH251315   4.391   5.402  16.612  0.0510  0.3943  0.0483
 9967TIP3    H151316   4.300   5.402  16.642 -0.3709  1.5614 -1.1642
 9967TIP3    H251317   4.390   5.457  16.534  2.0792  1.5824  0.8317
 9968TIP3   OH251318   0.082   6.113  12.837 -0.0728 -0.0465  0.3991
 9968TIP3    H151319   0.101   6.202  12.865 -0.7332  0.1930  0.1120
 9968TIP3    H251320   0.166   6.077  12.810  0.1858  0.5022  0.4730
 9969TIP3   OH251321   5.574   4.865   3.088 -0.3559 -0.6042 -0.0712
 9969TIP3    H151322   5.511   4.862   3.016 -0.1711 -0.2519 -0.2506
 9969TIP3    H251323   5.549   4.942   3.139 -0.5238 -0.8857  0.2802
 9970TIP3   OH251324   5.867   5.970   2.732  0.2842  0.4580  0.1687
 9970TIP3    H151325   5.950   5.941   2.770 -0.2365  0.3480  1.2520
 9970TIP3    H251326   5.831   6.030   2.797  0.0568  1.4150 -0.8231
 9971TIP3   OH251327   4.224   2.655  16.913 -0.3412  0.2119  0.1401
 9971TIP3    H151328   4.241   2.631  16.822  0.4135 -0.7670  0.5314
 9971TIP3    H251329   4.171   2.735  16.908  0.0572  0.3941 -1.1505
 9972TIP3   OH251330   6.746   3.215   4.905  0.0005  0.0706 -0.5404
 9972TIP3    H151331   6.815   3.271   4.871 -0.6213  0.1616 -1.6942
 9972TIP3    H251332   6.666   3.266   4.893 -0.3529 -0.3218  0.1131
 9973TIP3   OH251333   5.110   0.157  16.910  0.1316 -0.5535  0.1192
 9973TIP3    H151334   5.171   0.083  16.920  0.1489 -0.5073  0.3540
 9973TIP3    H251335   5.074   0.146  16.822  1.0871 -0.1161 -0.3311
 9974TIP3   OH251336   6.279   0.537   3.172 -0.4049  0.5382  0.3409
 9974TIP3    H151337   6.306   0.481   3.244 -0.3076 -1.1452 -0.9583
 9974TIP3    H251338   6.318   0.622   3.191 -1.2963  0.4435  2.8168
 9975TIP3   OH251339   5.524   1.570  14.884  0.3827  0.0897 -0.1163
 9975TIP3    H151340   5.477   1.488  14.902  1.7813 -1.1525 -1.9305
 9975TIP3    H251341   5.533   1.572  14.789  1.7159  1.5926  0.0226
 9976TIP3   OH251342   5.040   6.195   2.542  0.3692 -0.4899 -0.4448
 9976TIP3    H151343   4.988   6.264   2.501 -0.2565 -0.6626  0.0291
 9976TIP3    H251344   5.077   6.145   2.470 -0.4401 -0.5884 -0.7958
 9977TIP3   OH251345   6.379   3.400  13.705  0.5627  0.0128 -0.4188
 9977TIP3    H151346   6.472   3.423  13.698  1.0956 -1.6191  1.0305
 9977TIP3    H251347   6.374   3.341  13.779 -1.7877  0.7255  0.0449
 9978TIP3   OH251348   0.454   6.406   5.746  0.1402 -0.1013  0.8115
 9978TIP3    H151349   0.402   6.441   5.674 -0.6556 -0.5326  1.1646
 9978TIP3    H251350   0.530   6.464   5.751 -0.1115  0.3045  0.0325
 9979TIP3   OH251351   5.330   6.499  15.584 -0.0961 -0.8621 -0.0154
 9979TIP3    H151352   5.294   6.413  15.606  1.1351 -1.4146 -0.1272
 9979TIP3    H251353   5.326   6.547  15.667 -0.4502 -1.1453  0.1369
 9980TIP3   OH251354   0.628   3.406  15.839 -0.0731 -0.3050  0.1503
 9980TIP3    H151355   0.647   3.369  15.925 -0.1564 -3.0368 -0.9671
 9980TIP3    H251356   0.691   3.477  15.829  1.2346 -1.2117  1.6646
 9981TIP3   OH251357   4.186   1.723   1.174 -0.2747 -0.0294  0.0049
 9981TIP3    H151358   4.217   1.800   1.220 -0.7342  0.3750 -0.3585
 9981TIP3    H251359   4.218   1.649   1.226  0.9228  0.3839 -0.1347
 9982TIP3   OH251360   6.113   4.606  12.601  0.3356 -0.7834 -0.3080
 9982TIP3    H151361   6.208   4.620  12.594  0.4828 -2.0445 -0.8932
 9982TIP3    H251362   6.103   4.511  12.603 -0.9820 -0.6647 -1.0010
 9983TIP3   OH251363   3.596   6.023   3.205 -0.3825 -0.0011  0.4596
 9983TIP3    H151364   3.565   6.113   3.209  1.1591  0.5594  0.0039
 9983TIP3    H251365   3.586   5.997   3.114 -2.1374 -0.7854  0.8496
 9984TIP3   OH251366   0.624   0.016   0.873  0.2156  0.5790 -0.1690
 9984TIP3    H151367   0.553   0.079   0.872  0.4676  0.9134  1.3897
 9984TIP3    H251368   0.592  -0.058   0.822 -0.5787  1.4357 -0.9164
 9985TIP3   OH251369   2.905   6.509  12.323  0.2110 -0.1413 -0.0680
 9985TIP3    H151370   2.818   6.532  12.290  0.9664  2.1033 -0.6236
 9985TIP3    H251371   2.892   6.492  12.417 -0.6593  1.3174  0.0910
 9986TIP3   OH251372   4.669   2.140  15.439 -0.1355 -0.1249  0.0911
 9986TIP3    H151373   4.701   2.159  15.350 -1.1013 -1.2505 -0.5200
 9986TIP3    H251374   4.611   2.213  15.460 -0.3445 -0.1374 -0.4325
 9987TIP3   OH251375   4.838   1.046  13.509  0.4376  0.2027  0.0895
 9987TIP3    H151376   4.781   0.989  13.562 -1.0340 -0.1617 -1.8391
 9987TIP3    H251377   4.926   1.022  13.536 -0.2839  0.3260  2.6789
 9988TIP3   OH251378   5.197   0.862   3.295 -0.3801 -0.0853 -0.4009
 9988TIP3    H151379   5.243   0.818   3.223 -0.3765 -1.1760  0.2620
 9988TIP3    H251380   5.240   0.829   3.374 -0.1852  1.3362  0.0927
 9989TIP3   OH251381   5.532   3.526  14.963 -0.1329  0.0036 -0.3506
 9989TIP3    H151382   5.496   3.594  15.019 -0.1373 -0.1389 -0.1781
 9989TIP3    H251383   5.455   3.483  14.925 -0.1262  0.1752 -0.5511
 9990TIP3   OH251384   1.512   2.316   4.034 -0.0052 -0.4805 -0.1847
 9990TIP3    H151385   1.492   2.243   4.093  2.1854  0.8656  2.3762
 9990TIP3    H251386   1.459   2.389   4.066  1.4326  0.3485  0.4092
 9991TIP3   OH251387   3.645   1.569   2.312 -0.2913 -0.0091 -0.2974
 9991TIP3    H151388   3.723   1.588   2.364 -0.1298  0.7533 -0.8006
 9991TIP3    H251389   3.642   1.639   2.247 -1.9828  0.5567  0.3717
 9992TIP3   OH251390   3.383   6.462  12.719 -0.1777  0.4374 -0.0924
 9992TIP3    H151391   3.312   6.513  12.681  1.2892  2.4367 -0.2657
 9992TIP3    H251392   3.412   6.514  12.795  2.6452  0.9306 -1.4256
 9993TIP3   OH251393   1.758   0.564   4.679 -0.4556  0.0228  0.2732
 9993TIP3    H151394   1.764   0.546   4.586 -1.4908 -0.5151  0.3040
 9993TIP3    H251395   1.828   0.512   4.719 -0.9537 -0.8847 -0.0459
 9994TIP3   OH251396   3.297   5.365  12.931 -0.3282 -0.2444  0.3281
 9994TIP3    H151397   3.282   5.349  13.024  0.8562  0.8686  0.7227
 9994TIP3    H251398   3.213   5.398  12.899 -0.8624 -1.0267  0.9015
 9995TIP3   OH251399   3.573   1.654  13.679  0.1843 -0.0925 -0.4140
 9995TIP3    H151400   3.654   1.611  13.706 -1.2760 -1.2746  2.3053
 9995TIP3    H251401   3.515   1.582  13.652 -0.0675  0.7242 -2.1403
 9996TIP3   OH251402   6.729   5.369  16.488 -0.0577 -0.9670  0.2298
 9996TIP3    H151403   6.728   5.412  16.403  0.1291 -2.0993 -0.3486
 9996TIP3    H251404   6.785   5.425  16.542 -1.1203  0.3910 -0.0379
 9997TIP3   OH251405   4.817   2.295  12.285  0.0962  0.2665 -0.4402
 9997TIP3    H151406   4.737   2.303  12.235  0.6642  1.2100 -1.2060
 9997TIP3    H251407   4.851   2.384  12.292 -0.1688  0.2289  1.9630
 9998TIP3   OH251408   5.048   4.785  13.847 -0.0530  1.0118  0.1401
 9998TIP3    H151409   4.989   4.804  13.774 -1.4216 -0.1324  0.9255
 9998TIP3    H251410   5.000   4.813  13.925  0.8424  0.9628  0.7194
 9999TIP3   OH251411   2.342   1.068   1.896 -0.4208 -0.2346 -0.5746
 9999TIP3    H151412   2.249   1.092   1.896 -0.8330 -1.7951 -0.6141
 9999TIP3    H251413   2.344   0.981   1.935  1.1916  0.3417  0.6791
10000TIP3   OH251414   2.802   5.910   6.141  0.1138 -0.6493  0.1375
10000TIP3    H151415   2.840   5.938   6.224 -1.4524  1.0897  0.2719
10000TIP3    H251416   2.725   5.859   6.165 -0.9548  0.7641 -0.2674
10001TIP3   OH251417   0.762   2.808   3.232 -0.3578  0.0591  0.0111
10001TIP3    H151418   0.726   2.873   3.171 -2.3085  0.8252  1.9355
10001TIP3    H251419   0.825   2.857   3.284 -0.2893 -0.0835  0.0602
10002TIP3   OH251420   3.883   1.280   5.777 -0.3768 -0.5619 -0.1227
10002TIP3    H151421   3.963   1.332   5.774 -0.3337 -0.6295 -0.1747
10002TIP3    H251422   3.905   1.205   5.833 -0.5613 -0.3210  0.2702
10003TIP3   OH251423   1.467   0.303  14.524  0.3823 -0.0807 -0.1819
10003TIP3    H151424   1.531   0.364  14.560 -0.3527 -0.2168  1.3683
10003TIP3    H251425   1.472   0.226  14.580  0.5199 -1.0403 -1.4667
10004TIP3   OH251426   0.948   1.728   3.567 -0.0294  0.0759  0.4470
10004TIP3    H151427   0.888   1.735   3.493  0.9423 -0.5056 -0.4145
10004TIP3    H251428   0.946   1.635   3.591 -0.4058  0.2767  1.2187
10005TIP3   OH251429   6.089   1.080  12.388 -0.4246  0.3255 -0.3360
10005TIP3    H151430   6.006   1.120  12.363 -0.1287  0.9097 -0.4062
10005TIP3    H251431   6.151   1.153  12.388  0.4911 -0.4268 -2.0774
10006TIP3   OH251432   1.077   5.847  14.504  0.1374 -0.0989 -0.3555
10006TIP3    H151433   0.997   5.867  14.552  0.3919  0.6563 -0.2385
10006TIP3    H251434   1.071   5.900  14.424  0.1912 -0.5766 -0.6780
10007TIP3   OH251435   1.920   2.519   4.778  0.1447  0.8635  1.0468
10007TIP3    H151436   2.006   2.554   4.799  0.5085  0.3154  0.5007
10007TIP3    H251437   1.915   2.437   4.827 -0.1404  0.9834  1.2188
10008TIP3   OH251438   2.148   0.329   2.247 -0.2886 -0.8531  0.2063
10008TIP3    H151439   2.202   0.255   2.218  0.0413 -1.1661  1.5519
10008TIP3    H251440   2.109   0.298   2.329 -1.6291 -0.2090 -0.1717
10009TIP3   OH251441   2.585   3.814   5.734 -0.5775  0.2197 -0.2569
10009TIP3    H151442   2.572   3.735   5.682  0.3310 -1.1193  1.5139
10009TIP3    H251443   2.679   3.831   5.728 -0.4149 -0.1282  1.2054
10010TIP3   OH251444   1.760   5.303  15.093 -0.3976 -0.5602 -0.1791
10010TIP3    H151445   1.816   5.331  15.021 -0.5350 -2.6754 -1.1506
10010TIP3    H251446   1.782   5.362  15.165  2.3229 -0.6719 -0.8708
10011TIP3   OH251447   5.841   3.000  11.296  0.0004  0.4327 -0.1565
10011TIP3    H151448   5.855   2.959  11.211  0.7092  1.2798 -0.4541
10011TIP3    H251449   5.863   2.931  11.360 -0.9777 -0.3468 -0.6426
10012TIP3   OH251450   5.431   5.572   3.714 -0.4687  0.4434 -0.2445
10012TIP3    H151451   5.390   5.620   3.786 -0.3242 -2.2219  1.6708
10012TIP3    H251452   5.517   5.546   3.748 -0.2398 -0.5273 -1.5319
10013TIP3   OH251453   3.467   5.996   1.570  0.4074 -1.1240  0.2800
10013TIP3    H151454   3.407   5.927   1.542 -0.6114 -0.4966  0.8363
10013TIP3    H251455   3.466   6.059   1.497  0.5802 -1.2404  0.1791
10014TIP3   OH251456   3.166   3.946   2.897  0.7227 -0.3173 -0.3688
10014TIP3    H151457   3.231   3.978   2.834  0.0027 -0.0987 -0.9943
10014TIP3    H251458   3.089   3.925   2.845 -0.5816  1.7488  0.6633
10015TIP3   OH251459   3.344   2.562  11.186 -0.0785  0.0049  0.7770
10015TIP3    H151460   3.331   2.618  11.110 -1.1966 -1.8368 -0.4214
10015TIP3    H251461   3.255   2.545  11.219  0.2053 -1.5264  0.7730
10016TIP3   OH251462   4.889   0.023  16.055  0.5193  0.0768  0.4308
10016TIP3    H151463   4.893   0.119  16.053 -0.3882  0.1360  0.9736
10016TIP3    H251464   4.818   0.001  15.994  1.0752 -0.2842 -0.0925
10017TIP3   OH251465   2.694   4.368   4.795 -0.2941 -0.3841 -0.2460
10017TIP3    H151466   2.634   4.442   4.804 -2.3198 -2.1230  1.0399
10017TIP3    H251467   2.717   4.345   4.885 -0.3540 -1.8415 -0.6006
10018TIP3   OH251468   4.143   6.027   3.153 -0.3048  0.1010  0.1226
10018TIP3    H151469   4.141   6.025   3.058  1.3714  1.3946  0.0233
10018TIP3    H251470   4.074   6.088   3.178 -0.4847  0.0566 -0.2746
10019TIP3   OH251471   5.979   2.095   5.260 -0.1181 -0.0459  0.0250
10019TIP3    H151472   5.917   2.023   5.265  2.1960 -2.0989  0.0654
10019TIP3    H251473   6.048   2.064   5.201  2.2756  1.0153  2.1196
10020TIP3   OH251474   4.417   4.517   5.430 -0.0454 -0.4247  0.3188
10020TIP3    H151475   4.333   4.522   5.384 -0.4275 -0.7257  0.9712
10020TIP3    H251476   4.405   4.446   5.493  0.3690  0.1716  1.0744
10021TIP3   OH251477   6.345   4.135   1.394  0.2908  0.7760  0.0605
10021TIP3    H151478   6.429   4.165   1.429  0.1357 -0.9583  2.0178
10021TIP3    H251479   6.368   4.090   1.313  1.0911  1.6857 -0.2166
10022TIP3   OH251480   4.969   2.256   5.950  0.7712  0.7704 -0.0604
10022TIP3    H151481   4.935   2.312   5.880 -0.7381 -2.0318 -1.6324
10022TIP3    H251482   5.063   2.247   5.930  0.3228 -0.1516 -1.8599
10023TIP3   OH251483   5.674   4.365   3.625  0.5009  0.2381 -0.1562
10023TIP3    H151484   5.751   4.406   3.584  1.5281 -2.2675 -0.8466
10023TIP3    H251485   5.635   4.312   3.555  0.8643 -2.1674  1.4021
10024TIP3   OH251486   5.098   1.073   0.851  0.1466 -0.2340 -0.2688
10024TIP3    H151487   5.082   1.120   0.933  2.3324  0.5661 -0.2639
10024TIP3    H251488   5.173   1.119   0.811  1.8779 -3.2395 -0.6370
10025TIP3   OH251489   1.757   2.303   2.547 -0.4341 -0.7501 -0.1364
10025TIP3    H151490   1.841   2.287   2.506 -0.3316 -0.0408 -0.2145
10025TIP3    H251491   1.695   2.250   2.497 -0.0892 -0.9921 -0.3073
10026TIP3   OH251492   3.733   2.016   3.408  0.1943  0.4043 -0.3830
10026TIP3    H151493   3.811   2.064   3.433  0.2915  0.4502 -0.7736
10026TIP3    H251494   3.760   1.924   3.406 -0.4781  0.1030  2.2935
10027TIP3   OH251495   4.512   3.959   0.830  0.5022  0.5376  0.0048
10027TIP3    H151496   4.425   3.923   0.812  0.2460  0.4528  1.3387
10027TIP3    H251497   4.571   3.912   0.771  0.0626 -1.5061  1.1788
10028TIP3   OH251498   0.803   2.844   3.615 -0.2366  0.4791  0.2905
10028TIP3    H151499   0.821   2.898   3.539  0.5111  0.8854  0.7586
10028TIP3    H251500   0.709   2.823   3.608 -0.0629  0.1046 -0.9921
10029TIP3   OH251501   0.871   3.645  16.637  0.0688 -0.2236  0.8898
10029TIP3    H151502   0.812   3.716  16.661 -0.1879  0.0037 -0.3603
10029TIP3    H251503   0.832   3.566  16.674 -1.6895 -0.2537 -0.9294
10030TIP3   OH251504   4.816   0.994  16.193 -0.1437 -0.2678 -0.2588
10030TIP3    H151505   4.726   0.982  16.163 -0.5286  1.7217  0.0122
10030TIP3    H251506   4.845   0.907  16.219 -1.7059 -1.0689 -1.1336
10031TIP3   OH251507   6.232   3.154   0.268  0.8536  0.4657  0.3025
10031TIP3    H151508   6.209   3.233   0.318 -1.2371 -0.0502  0.2206
10031TIP3    H251509   6.282   3.100   0.329  0.4339  0.9167  1.0490
10032TIP3   OH251510   0.600   6.542  12.837  0.0552  0.0883  0.3730
10032TIP3    H151511   0.589   6.516  12.928 -1.5849  0.0667  0.1855
10032TIP3    H251512   0.541   6.484  12.788 -0.7029  1.5411 -0.4579
10033TIP3   OH251513   0.970   5.312  11.519  0.4645 -0.6258 -0.3537
10033TIP3    H151514   0.878   5.337  11.509  0.1319 -1.8149 -0.3849
10033TIP3    H251515   1.019   5.390  11.491 -0.5094  0.9049  2.0541
10034TIP3   OH251516   3.103   6.305   6.180  0.0609  0.4675 -0.4434
10034TIP3    H151517   3.128   6.220   6.142 -0.5083  0.2117 -0.2540
10034TIP3    H251518   3.010   6.295   6.200 -0.2102  1.4278 -1.2101
10035TIP3   OH251519   3.491   3.038   4.262  0.5107  0.2221 -0.5089
10035TIP3    H151520   3.565   3.044   4.321  0.5406 -1.1735 -0.3850
10035TIP3    H251521   3.416   3.020   4.319 -0.2690  3.3605 -0.4361
10036TIP3   OH251522   6.448   5.784   6.365 -0.0849 -0.3428 -0.2680
10036TIP3    H151523   6.464   5.868   6.408  0.2588 -0.3365 -0.4093
10036TIP3    H251524   6.352   5.777   6.361 -0.1233 -0.2964  0.4021
10037TIP3   OH251525   5.246   0.249  14.786  0.1694  0.1353  0.3806
10037TIP3    H151526   5.295   0.269  14.865  0.9601 -1.2631  0.2520
10037TIP3    H251527   5.276   0.314  14.722  1.1100 -0.0841  0.5980
10038TIP3   OH251528   3.328   2.785   0.327  0.3036 -0.4155  0.5345
10038TIP3    H151529   3.354   2.729   0.400 -0.6246  2.0567  2.8411
10038TIP3    H251530   3.399   2.848   0.318  0.7694 -1.1587 -1.2361
10039TIP3   OH251531   0.981   0.673  10.869  0.1844 -0.0912  0.1829
10039TIP3    H151532   0.997   0.632  10.784  0.9567 -0.4605  0.4905
10039TIP3    H251533   0.902   0.631  10.902  0.1155 -0.2434 -0.1768
10040TIP3   OH251534   2.945   1.303  11.223 -0.5970  0.4728 -0.0834
10040TIP3    H151535   2.981   1.216  11.207  2.1386  1.5209  0.1646
10040TIP3    H251536   2.932   1.340  11.135 -1.1980  0.0542 -0.1743
10041TIP3   OH251537   0.341   3.909   5.743  0.1330 -0.1719  0.2215
10041TIP3    H151538   0.347   3.885   5.836 -0.0765  0.3937  0.3825
10041TIP3    H251539   0.297   3.834   5.702 -0.5231 -0.0715  0.7230
10042TIP3   OH251540   5.873   0.013   4.846 -0.0428 -0.7043 -0.3468
10042TIP3    H151541   5.881   0.109   4.848  0.4029 -0.7202 -1.5478
10042TIP3    H251542   5.824  -0.006   4.766 -0.3185 -1.4755 -0.0003
10043TIP3   OH251543   2.754   2.571  13.772  0.0169  0.5071 -0.3445
10043TIP3    H151544   2.714   2.575  13.686  0.5030  0.4521 -0.5741
10043TIP3    H251545   2.827   2.633  13.768  0.1492  0.3754 -0.0314
10044TIP3   OH251546   3.057   0.067  11.950  0.0866  0.0958 -0.2130
10044TIP3    H151547   3.048  -0.018  11.993 -1.9400  0.2665 -0.2387
10044TIP3    H251548   2.997   0.124  11.998  0.4444  1.1784 -1.0363
10045TIP3   OH251549   2.311   3.554  16.247  0.1511 -0.4533  0.2643
10045TIP3    H151550   2.283   3.463  16.235  1.1656 -0.8009  0.4768
10045TIP3    H251551   2.347   3.557  16.335  1.9814 -0.3321 -0.4771
10046TIP3   OH251552   4.454   0.451  16.250 -0.1926 -0.0800  0.4554
10046TIP3    H151553   4.407   0.534  16.240 -0.2219 -0.1966 -0.4697
10046TIP3    H251554   4.523   0.455  16.183  0.5043 -0.3272  1.1590
10047TIP3   OH251555   4.416   2.747   5.677 -0.2497  0.4839 -0.2826
10047TIP3    H151556   4.448   2.764   5.766 -1.3350 -0.7855  0.3552
10047TIP3    H251557   4.346   2.811   5.664  0.4037  1.1656 -0.5177
10048TIP3   OH251558   6.230   2.474   5.586 -0.1156 -0.2376 -0.2483
10048TIP3    H151559   6.229   2.506   5.676 -1.8727  1.6238 -0.9003
10048TIP3    H251560   6.149   2.424   5.577 -0.5187  0.5480 -1.1241
10049TIP3   OH251561   3.022   3.335  14.714 -0.0644  0.9474  0.0923
10049TIP3    H151562   3.031   3.427  14.741  1.4109  0.5328  1.0872
10049TIP3    H251563   3.092   3.289  14.762 -0.1274 -0.5209 -1.1904
10050TIP3   OH251564   2.659   2.593  13.517  0.7159 -0.0985  0.0509
10050TIP3    H151565   2.571   2.586  13.479 -0.0994 -1.7862  2.1113
10050TIP3    H251566   2.694   2.674  13.481 -3.0210  2.4526  1.7529
10051TIP3   OH251567   5.121   4.447  14.731  0.2669 -0.4767 -0.6497
10051TIP3    H151568   5.035   4.482  14.706  0.2136 -1.6344 -2.1418
10051TIP3    H251569   5.116   4.437  14.826 -1.5328 -1.2785 -0.8142
10052TIP3   OH251570   6.160   0.046   5.559 -0.0801  0.2135 -0.6900
10052TIP3    H151571   6.246   0.011   5.537 -0.2270  0.6974 -2.0913
10052TIP3    H251572   6.148   0.025   5.652 -0.3418 -3.8202 -1.5480
10053TIP3   OH251573   6.732   4.604  15.389  0.0179 -0.1892  0.3286
10053TIP3    H151574   6.679   4.600  15.310  1.0248 -0.6652 -0.3294
10053TIP3    H251575   6.782   4.685  15.380  0.6028 -0.5645  0.1677
10054TIP3   OH251576   0.183   1.803  13.965  0.2261  0.2294  0.1851
10054TIP3    H151577   0.182   1.898  13.952  0.1509  0.3646  1.1275
10054TIP3    H251578   0.185   1.767  13.877  1.6973  1.1367 -0.1757
10055TIP3   OH251579   6.496   0.022   0.061 -0.1755 -0.4802  0.5145
10055TIP3    H151580   6.470  -0.051   0.117 -0.5253 -0.0813  0.8860
10055TIP3    H251581   6.493  -0.013  -0.028 -3.3343 -0.0917  0.4236
10056TIP3   OH251582   2.911   3.973  14.705 -0.0461 -0.1113  0.1985
10056TIP3    H151583   2.983   3.975  14.642 -0.1083 -0.0433  0.1301
10056TIP3    H251584   2.893   3.880  14.718  0.0030 -0.1264  0.1579
10057TIP3   OH251585   4.396   3.923   2.390 -0.2311 -0.0102  0.2963
10057TIP3    H151586   4.470   3.866   2.411 -0.1872 -0.2164 -0.4091
10057TIP3    H251587   4.400   3.993   2.456  0.6304  0.0150  0.2283
10058TIP3   OH251588   3.441   2.076  13.601  0.2850  0.7560  0.0953
10058TIP3    H151589   3.406   2.079  13.690  0.1912  0.5472  0.0662
10058TIP3    H251590   3.499   2.152  13.595  2.7337 -0.9483  1.3667
10059TIP3   OH251591   1.011   3.610   1.297 -0.0489 -0.0511  0.3858
10059TIP3    H151592   1.041   3.699   1.276 -1.0628  0.5908  1.5709
10059TIP3    H251593   0.964   3.582   1.219 -0.6359  0.8798  0.3865
10060TIP3   OH251594   1.185   5.333   2.118 -1.0305 -0.0110 -0.4303
10060TIP3    H151595   1.175   5.240   2.100  1.5537  0.1052 -2.8016
10060TIP3    H251596   1.140   5.377   2.046 -1.9351  0.5964  0.4857
10061TIP3   OH251597   6.175   3.369  10.737  0.3287 -0.4917  0.1309
10061TIP3    H151598   6.270   3.367  10.746  0.3181  0.7438  0.5327
10061TIP3    H251599   6.145   3.432  10.802 -0.8886 -1.8879  0.9410
10062TIP3   OH251600   5.218   6.201   6.041 -0.2164 -0.1553 -0.1177
10062TIP3    H151601   5.294   6.161   6.082 -1.2219 -1.3371  0.6099
10062TIP3    H251602   5.148   6.138   6.053 -1.2776  0.8431 -0.9416
10063TIP3   OH251603   4.586   2.888  13.756  0.6273 -0.4938  0.2440
10063TIP3    H151604   4.666   2.837  13.765 -0.5409 -2.3726  0.2958
10063TIP3    H251605   4.533   2.864  13.833  0.2320  1.1104  0.4831
10064TIP3   OH251606   0.791   6.011   2.081 -0.5853 -0.5243 -0.5788
10064TIP3    H151607   0.875   6.047   2.054 -0.7834  1.0527  0.8658
10064TIP3    H251608   0.729   6.043   2.015 -0.2692 -0.6064 -0.9133
10065TIP3   OH251609   4.901   5.554  12.922  0.0618 -0.0338 -0.3099
10065TIP3    H151610   4.862   5.622  12.978 -0.9678 -0.9011  0.0453
10065TIP3    H251611   4.990   5.543  12.956 -0.6830 -0.8590  1.4754
10066TIP3   OH251612   6.679   0.787   5.074 -0.0361  0.9172 -0.0588
10066TIP3    H151613   6.708   0.709   5.122  0.7550  0.3317 -1.4654
10066TIP3    H251614   6.620   0.832   5.135  1.1035  0.2977  1.5502
10067TIP3   OH251615   3.280   4.538  16.754  0.4928  0.0952  0.3284
10067TIP3    H151616   3.367   4.500  16.739  0.1215 -0.3558 -0.6646
10067TIP3    H251617   3.233   4.471  16.804  0.0308 -0.5133 -0.9209
10068TIP3   OH251618   4.240   1.808  12.923 -0.4059 -0.4228  0.2328
10068TIP3    H151619   4.288   1.876  12.970 -1.0753  1.2351 -1.4143
10068TIP3    H251620   4.148   1.830  12.936 -0.6061 -0.0949 -1.5881
10069TIP3   OH251621   2.327   1.001  13.565  0.4274 -0.0580 -0.7163
10069TIP3    H151622   2.415   1.010  13.527  1.0993 -1.4684  0.4522
10069TIP3    H251623   2.282   1.082  13.542  2.1004  0.7489 -1.1904
10070TIP3   OH251624   4.975   0.498  15.854 -0.1038 -0.8641 -0.3794
10070TIP3    H151625   5.053   0.520  15.803 -1.8489  1.8135 -2.0663
10070TIP3    H251626   4.952   0.579  15.900 -2.2840 -1.3520 -0.5234
10071TIP3   OH251627   1.776   4.269  13.633  0.2339  0.8421 -0.6674
10071TIP3    H151628   1.771   4.321  13.714 -0.1017 -0.1923 -0.0137
10071TIP3    H251629   1.720   4.317  13.571 -1.2445  0.5009  0.3662
10072TIP3   OH251630   1.774   3.820   0.417  0.7170  0.2650 -0.1166
10072TIP3    H151631   1.695   3.871   0.401 -0.3410 -1.3026 -0.0410
10072TIP3    H251632   1.834   3.845   0.346 -1.1814 -1.1295 -2.2795
10073TIP3   OH251633   2.016   4.818   3.341  0.0986  0.0453 -0.3320
10073TIP3    H151634   2.066   4.849   3.416  0.5267 -0.1506 -0.5376
10073TIP3    H251635   1.940   4.877   3.337  0.5586  0.6428 -0.3140
10074TIP3   OH251636   1.055   1.212   3.753  0.1702 -0.3660  0.1789
10074TIP3    H151637   1.050   1.124   3.716 -1.3924  0.1326 -0.8948
10074TIP3    H251638   0.981   1.216   3.814  2.3927 -0.9861  2.9637
10075TIP3   OH251639   6.771   1.744  17.024  0.1002  0.1369  0.3633
10075TIP3    H151640   6.867   1.740  17.019  0.0352  0.1681 -1.0520
10075TIP3    H251641   6.742   1.743  16.933 -1.3686 -2.2478  0.8281
10076TIP3   OH251642   4.648   3.915   3.080 -0.8637 -0.2460  0.3032
10076TIP3    H151643   4.726   3.970   3.088 -0.6126 -0.3600 -1.3251
10076TIP3    H251644   4.584   3.957   3.139 -0.3601  1.2233 -0.1561
10077TIP3   OH251645   6.367   1.777  11.472  0.0149 -0.1058  0.1476
10077TIP3    H151646   6.274   1.753  11.469 -0.2065  0.5926  1.2210
10077TIP3    H251647   6.386   1.787  11.565  0.8990  0.8031 -0.1273
10078TIP3   OH251648   3.952   6.627  10.936 -0.1890  0.1628 -0.3123
10078TIP3    H151649   3.986   6.543  10.904  1.4710  1.2991 -1.5960
10078TIP3    H251650   3.927   6.675  10.856 -2.2127  0.4623  0.4689
10079TIP3   OH251651   0.184   1.205   3.459  0.1935  0.0500  0.3221
10079TIP3    H151652   0.158   1.179   3.547 -1.5789 -0.9885 -0.4821
10079TIP3    H251653   0.127   1.154   3.401  0.4542  1.6519 -1.3963
10080TIP3   OH251654   5.550   4.956   1.626  0.1372 -0.2644  0.0222
10080TIP3    H151655   5.583   4.869   1.606  0.2572 -0.4214  0.8691
10080TIP3    H251656   5.502   4.945   1.709 -0.0846  0.4155 -0.0114
10081TIP3   OH251657   3.087   3.563   1.423  0.1668  0.1057  0.2062
10081TIP3    H151658   3.023   3.492   1.431 -0.7943  0.9207 -0.2120
10081TIP3    H251659   3.166   3.521   1.389 -0.6426 -0.6259 -0.7757
10082TIP3   OH251660   4.475   1.058  15.120 -0.3331 -0.2267  0.4570
10082TIP3    H151661   4.559   1.069  15.075 -0.2167 -1.2141  0.4178
10082TIP3    H251662   4.448   0.969  15.098 -0.5748 -0.5028  1.8353
10083TIP3   OH251663   2.433   3.867   0.927 -0.5761 -0.3733 -0.0222
10083TIP3    H151664   2.525   3.841   0.929 -1.0617 -2.2591 -0.7211
10083TIP3    H251665   2.411   3.871   0.834 -1.4616 -0.9875  0.1430
10084TIP3   OH251666   0.513   1.698  16.509 -0.2056  0.4055 -0.3770
10084TIP3    H151667   0.439   1.751  16.537 -0.1508  0.0800  0.4017
10084TIP3    H251668   0.571   1.696  16.585 -0.8343 -1.8680  0.0787
10085TIP3   OH251669   4.290   6.183  12.817 -0.3789 -0.2697  0.3044
10085TIP3    H151670   4.287   6.191  12.722  0.5428 -0.9316  0.2238
10085TIP3    H251671   4.375   6.220  12.842 -0.1853 -1.0368  0.7832
10086TIP3   OH251672   6.275   1.373   6.016  0.2158  0.1307  0.0581
10086TIP3    H151673   6.370   1.361   6.026  0.4662 -0.0270 -2.3207
10086TIP3    H251674   6.252   1.437   6.084  1.8963 -0.3384  1.1057
10087TIP3   OH251675   1.928   0.255   4.306 -0.2056  0.2868 -0.1806
10087TIP3    H151676   1.884   0.295   4.382 -1.3031  0.6618 -0.9942
10087TIP3    H251677   1.963   0.329   4.257 -0.7636  0.1551 -0.7934
10088TIP3   OH251678   6.311   3.473   3.092  0.0131  0.3307  0.2225
10088TIP3    H151679   6.251   3.455   3.019  1.1976  0.4992 -0.8103
10088TIP3    H251680   6.265   3.441   3.169 -1.7946  1.2916 -0.4321
10089TIP3   OH251681   6.335   2.168   0.096 -0.0307 -0.5518 -0.2947
10089TIP3    H151682   6.396   2.161   0.169 -0.3852  0.1848  0.0765
10089TIP3    H251683   6.261   2.216   0.131  0.0429  0.3227 -1.3040
10090TIP3   OH251684   4.910   2.705   3.484 -0.5573  0.2403  0.3111
10090TIP3    H151685   4.904   2.773   3.418 -1.3943  0.1995  0.3381
10090TIP3    H251686   4.905   2.752   3.568 -0.8720  0.1719  0.3316
10091TIP3   OH251687   4.418   2.482   3.294  0.7809 -0.0511 -0.8454
10091TIP3    H151688   4.511   2.499   3.308  0.8729 -0.9327 -0.3689
10091TIP3    H251689   4.413   2.389   3.276 -0.4519 -0.8409  3.1373
10092TIP3   OH251690   1.708   1.393   1.587 -0.3581 -0.1961 -0.1102
10092TIP3    H151691   1.774   1.454   1.620  0.3896 -1.2236  0.3226
10092TIP3    H251692   1.712   1.401   1.492 -0.5787  0.7562 -0.0379
10093TIP3   OH251693   6.210   2.526   6.108 -0.0725  0.2604 -0.2313
10093TIP3    H151694   6.189   2.567   6.192  0.0515  0.1033 -0.1235
10093TIP3    H251695   6.305   2.517   6.109 -0.1662 -0.7362  0.0680
10094TIP3   OH251696   1.912   6.405  12.445  0.1559  0.6805 -0.1536
10094TIP3    H151697   1.956   6.446  12.370 -2.0434 -0.6751 -2.2552
10094TIP3    H251698   1.947   6.316  12.448  0.6565  0.9067  0.7919
10095TIP3   OH251699   1.021   6.579   2.248 -0.3111 -0.3816  0.0632
10095TIP3    H151700   0.997   6.515   2.180 -2.4545  1.2902 -0.8127
10095TIP3    H251701   1.071   6.646   2.202 -2.7689  1.3653 -0.1896
10096TIP3   OH251702   0.769   4.985  13.134  0.3284  0.1471  0.2720
10096TIP3    H151703   0.756   5.076  13.160  0.9018  0.1832  0.4359
10096TIP3    H251704   0.714   4.975  13.056  2.1007  1.3321 -1.1945
10097TIP3   OH251705   3.690   5.477  14.790  0.5152 -0.1397 -0.2918
10097TIP3    H151706   3.645   5.428  14.860  0.6577  0.6010  0.3232
10097TIP3    H251707   3.721   5.557  14.833 -1.4798  1.4577 -1.7613
10098TIP3   OH251708   0.903   4.765  16.900  0.2915 -0.2377  0.7124
10098TIP3    H151709   0.913   4.694  16.963  2.4967 -2.1132 -1.6565
10098TIP3    H251710   0.808   4.774  16.890 -0.0552 -1.5961  2.3889
10099TIP3   OH251711   6.680   2.283   3.526 -0.0376  0.6687 -0.2352
10099TIP3    H151712   6.684   2.217   3.595  1.3526  0.0078 -0.9341
10099TIP3    H251713   6.625   2.244   3.458 -0.6458  0.9456  0.0924
10100TIP3   OH251714   1.572   4.749   6.438 -0.0938  0.2667  0.2762
10100TIP3    H151715   1.497   4.809   6.448  1.2369  1.8613  0.9348
10100TIP3    H251716   1.644   4.805   6.408  0.8495 -1.2566 -0.3954
10101TIP3   OH251717   4.398   0.067   5.480  0.0975 -0.2065 -0.0487
10101TIP3    H151718   4.374   0.008   5.408  0.5283 -0.6053  0.1309
10101TIP3    H251719   4.474   0.115   5.447 -1.0569  1.2061 -0.6968
10102TIP3   OH251720   5.201   3.579   1.744 -0.5096 -0.0635  0.2331
10102TIP3    H151721   5.241   3.510   1.797 -1.1658 -0.4632  0.2149
10102TIP3    H251722   5.275   3.628   1.708 -0.0144 -1.6482 -0.9449
10103TIP3   OH251723   1.520   6.221  15.370 -0.0863  0.4467  0.3349
10103TIP3    H151724   1.428   6.229  15.394  0.1499 -2.0263  2.1831
10103TIP3    H251725   1.518   6.180  15.283 -0.7213 -0.6461  0.8514
10104TIP3   OH251726   2.014   5.376   0.514 -0.4703  0.2996 -0.5236
10104TIP3    H151727   1.987   5.452   0.565 -1.7285  0.4063 -1.3144
10104TIP3    H251728   2.033   5.411   0.427  1.3692  0.0752 -0.2287
10105TIP3   OH251729   5.505   1.734   4.310  0.5000 -0.2527 -0.3338
10105TIP3    H151730   5.500   1.712   4.403  1.7840 -0.6959 -0.3653
10105TIP3    H251731   5.591   1.702   4.282  0.2679  0.1988 -1.5888
10106TIP3   OH251732   1.176   2.353  13.693  0.3032 -0.0361  0.3328
10106TIP3    H151733   1.258   2.358  13.743 -0.2707 -3.3668  1.7081
10106TIP3    H251734   1.201   2.311  13.611  0.4789  1.7652 -0.5803
10107TIP3   OH251735   0.921   6.614   0.783 -0.2992  0.1690  0.1822
10107TIP3    H151736   0.945   6.523   0.798 -1.6639 -0.1512  0.5048
10107TIP3    H251737   0.925   6.655   0.869 -0.9371  0.1042  0.2441
10108TIP3   OH251738   5.490   1.368  16.988  0.2568 -0.3355 -0.3265
10108TIP3    H151739   5.427   1.371  16.916  0.3567 -0.6540 -0.4271
10108TIP3    H251740   5.556   1.433  16.966  0.6474 -0.9126 -0.8535
10109TIP3   OH251741   4.050   5.303  14.793 -0.5430  0.1522 -0.4703
10109TIP3    H151742   4.042   5.224  14.846  0.3160 -0.2009 -0.8567
10109TIP3    H251743   3.969   5.305  14.742 -1.4229  0.5653  0.9419
10110TIP3   OH251744   2.486   5.607   2.694  0.0048  0.3989  0.3787
10110TIP3    H151745   2.434   5.684   2.716 -0.8704 -0.5654  1.7664
10110TIP3    H251746   2.424   5.549   2.648  0.1868 -0.2115  0.8971
10111TIP3   OH251747   1.918   0.173   1.451  0.6408  0.5155  0.2534
10111TIP3    H151748   1.890   0.264   1.446 -0.7656  0.0976  0.1360
10111TIP3    H251749   1.885   0.142   1.536 -1.6064 -0.7286 -1.0350
10112TIP3   OH251750   2.563   4.950  15.965  0.0192  0.3776  0.1424
10112TIP3    H151751   2.639   4.954  16.023 -0.3347  0.4290  0.6053
10112TIP3    H251752   2.599   4.966  15.878  0.8744 -1.7328  0.0718
10113TIP3   OH251753   2.569   2.042  17.221 -0.1704 -0.5484  0.3669
10113TIP3    H151754   2.573   1.948  17.203  0.1762 -0.1591 -1.7533
10113TIP3    H251755   2.639   2.080  17.167 -0.4611  0.9559  1.0055
10114TIP3   OH251756   4.309   4.838  14.951 -0.5480 -0.2766 -0.1674
10114TIP3    H151757   4.363   4.863  14.876  1.6368 -1.1853  1.0841
10114TIP3    H251758   4.304   4.917  15.005 -0.7456 -0.1037 -0.4371
10115TIP3   OH251759   2.981   2.795   0.831  0.1286  0.4151 -0.4351
10115TIP3    H151760   2.948   2.727   0.773  0.8875 -0.2797 -0.0699
10115TIP3    H251761   2.936   2.780   0.914 -1.1581  1.5744 -0.8992
10116TIP3   OH251762   6.309   1.014   2.905  0.1472  0.0859 -0.6087
10116TIP3    H151763   6.261   0.947   2.856  1.9195 -0.3977 -1.6877
10116TIP3    H251764   6.249   1.037   2.977 -0.0542 -3.4601  0.4530
10117TIP3   OH251765   5.328   4.943  13.651 -0.2748 -0.3745 -0.3386
10117TIP3    H151766   5.406   4.961  13.599 -0.4908  0.5137 -0.3654
10117TIP3    H251767   5.259   4.927  13.586  0.0067 -1.7586 -0.3159
10118TIP3   OH251768   2.404   0.429  14.301  0.1140 -0.6896 -0.4923
10118TIP3    H151769   2.392   0.378  14.381  1.5451  0.0107  0.1925
10118TIP3    H251770   2.471   0.493  14.324  0.2252 -0.2062 -2.1332
10119TIP3   OH251771   4.467   0.130   0.527  0.4199 -0.0371  0.3916
10119TIP3    H151772   4.382   0.102   0.495  0.9245 -0.5395 -0.5276
10119TIP3    H251773   4.451   0.156   0.618 -0.4423 -1.4150  0.6420
10120TIP3   OH251774   4.316   2.168  13.902  0.5526  0.5926  0.1969
10120TIP3    H151775   4.348   2.078  13.897 -1.2232 -0.0003 -1.7824
10120TIP3    H251776   4.357   2.212  13.827 -1.7704  0.2673 -1.3417
10121TIP3   OH251777   3.719   5.467   3.413  0.5657 -0.1593 -0.0188
10121TIP3    H151778   3.683   5.490   3.499 -1.2771 -0.1366 -0.7794
10121TIP3    H251779   3.732   5.552   3.370 -2.5807 -0.2976 -1.3610
10122TIP3   OH251780   0.548   2.236  12.031 -0.3541 -0.5025  0.0759
10122TIP3    H151781   0.595   2.195  12.103 -3.3600 -0.8891  1.9024
10122TIP3    H251782   0.507   2.314  12.070 -1.8260 -0.5725 -1.2596
10123TIP3   OH251783   6.033   3.058   2.280 -1.1338  0.5881  0.4264
10123TIP3    H151784   5.980   2.980   2.298 -2.0517  1.1545  0.2118
10123TIP3    H251785   6.040   3.102   2.365  1.0401 -0.7061  0.9848
10124TIP3   OH251786   2.197   2.299   6.277  0.5627  0.7112 -0.9013
10124TIP3    H151787   2.236   2.368   6.331 -0.9090  0.2780  0.7712
10124TIP3    H251788   2.271   2.255   6.237  1.5981  2.2644 -0.7375
10125TIP3   OH251789   0.649   0.739  12.790 -0.0728 -0.1207  0.2527
10125TIP3    H151790   0.616   0.756  12.702 -1.1395 -1.9298  0.2773
10125TIP3    H251791   0.740   0.712  12.776  0.5985  2.2065 -0.0453
10126TIP3   OH251792   5.538   5.697   5.669 -0.4425 -0.0325  0.0261
10126TIP3    H151793   5.616   5.672   5.619 -0.4362 -1.3355  0.6471
10126TIP3    H251794   5.559   5.673   5.759 -1.6724 -0.7115  0.1490
10127TIP3   OH251795   4.936   0.930   3.620  0.2693 -0.8296  0.1218
10127TIP3    H151796   5.005   0.939   3.686 -0.9809 -0.1200  1.3520
10127TIP3    H251797   4.863   0.890   3.667  0.2440 -2.7240 -1.4706
10128TIP3   OH251798   3.022   2.690   2.135 -0.9048 -0.0528 -0.1420
10128TIP3    H151799   3.094   2.741   2.098 -0.8497  1.4742  1.9631
10128TIP3    H251800   2.973   2.658   2.059 -1.2006  3.5111 -1.5534
10129TIP3   OH251801   5.438   6.495  12.576 -0.2848 -0.0475 -0.0117
10129TIP3    H151802   5.434   6.413  12.625 -1.1787 -1.0902 -1.8070
10129TIP3    H251803   5.361   6.494  12.520 -0.0033  1.7649 -0.4807
10130TIP3   OH251804   2.444   3.331  13.288  0.2346 -0.3890 -0.2739
10130TIP3    H151805   2.473   3.341  13.379  1.1722 -1.1466 -0.4863
10130TIP3    H251806   2.364   3.384  13.283 -0.6297 -1.4812  1.3881
10131TIP3   OH251807   2.373   2.525   3.147 -0.2526 -0.0928 -0.3128
10131TIP3    H151808   2.324   2.556   3.072 -0.5535 -1.3475 -0.6522
10131TIP3    H251809   2.460   2.565   3.137 -0.7829  1.0327 -0.4455
10132TIP3   OH251810   0.111   5.175  11.176 -0.0627 -0.0366 -0.7141
10132TIP3    H151811   0.168   5.246  11.148  0.5368 -0.2803 -0.1103
10132TIP3    H251812   0.045   5.216  11.231 -0.2819  0.1951 -1.1480
10133TIP3   OH251813   0.782   2.274   1.538 -0.3064 -0.1931 -0.2974
10133TIP3    H151814   0.855   2.216   1.558  3.8071  3.6713 -3.1408
10133TIP3    H251815   0.772   2.269   1.443 -2.2814  1.0217 -0.1926
10134TIP3   OH251816   4.675   5.087   2.597  0.7837  0.1622 -0.4698
10134TIP3    H151817   4.674   5.173   2.638  1.1991 -0.6067  1.1852
10134TIP3    H251818   4.768   5.063   2.594  0.6034 -0.5905 -0.1404
10135TIP3   OH251819   1.687   4.261   0.295 -0.1250  0.0307  0.2494
10135TIP3    H151820   1.614   4.309   0.255 -0.7594 -0.7917  0.4170
10135TIP3    H251821   1.711   4.195   0.231 -1.9495 -2.0940  1.6971
10136TIP3   OH251822   6.118   1.358   5.780 -0.4695  0.1659 -0.2115
10136TIP3    H151823   6.151   1.390   5.864 -0.1757 -0.4633 -0.0872
10136TIP3    H251824   6.185   1.297   5.749 -0.0558  1.2366 -1.4426
10137TIP3   OH251825   5.932   3.068  15.759 -0.6869  0.0684 -0.3489
10137TIP3    H151826   5.943   3.003  15.828 -0.7321  1.1266  0.6514
10137TIP3    H251827   5.923   3.016  15.679  3.1646 -1.1206 -0.1401
10138TIP3   OH251828   5.370   2.184   4.841 -0.1405 -0.0325  0.3969
10138TIP3    H151829   5.355   2.193   4.935 -0.1957  1.5586  0.2363
10138TIP3    H251830   5.336   2.265   4.803 -0.2219 -0.7126 -1.0121
10139TIP3   OH251831   0.017   5.375  14.240  0.1428 -0.0233 -0.1872
10139TIP3    H151832   0.000   5.383  14.146  3.9512  1.6795 -0.8083
10139TIP3    H251833  -0.032   5.447  14.280 -0.5427 -0.0413 -0.9861
10140TIP3   OH251834   6.025   2.234   3.443 -0.3287  0.0017  0.1174
10140TIP3    H151835   5.991   2.148   3.417 -0.1076 -0.2054  0.4970
10140TIP3    H251836   6.020   2.234   3.539 -0.4410  0.4623  0.1139
10141TIP3   OH251837   2.426   5.117  11.063 -0.5729  0.4508  0.3788
10141TIP3    H151838   2.458   5.138  10.975 -2.0439  0.7274 -0.1165
10141TIP3    H251839   2.348   5.172  11.073 -1.2181 -0.6233  1.3024
10142TIP3   OH251840   5.975   0.369  11.298  0.4110 -0.2355 -0.3685
10142TIP3    H151841   6.044   0.433  11.315 -0.1938  0.1372  0.7495
10142TIP3    H251842   5.894   0.421  11.299 -0.0901 -1.0256  0.5831
10143TIP3   OH251843   3.005   1.876   0.721  0.0477 -0.6397 -0.3350
10143TIP3    H151844   2.993   1.967   0.693  0.8179 -0.3639  0.1912
10143TIP3    H251845   2.932   1.860   0.781  0.3830 -0.0750  0.2414
10144TIP3   OH251846   6.478   1.412  16.141 -0.0813 -0.4198  0.1049
10144TIP3    H151847   6.494   1.483  16.203  2.0607 -1.1100  0.3513
10144TIP3    H251848   6.454   1.457  16.059  2.0074  0.6128  0.0433
10145TIP3   OH251849   0.251   6.433   4.279  0.5650 -0.4877  0.7014
10145TIP3    H151850   0.311   6.415   4.352  0.7168  0.0095  0.6966
10145TIP3    H251851   0.204   6.512   4.304  0.5680 -0.3520  0.2929
10146TIP3   OH251852   6.164   4.579  15.301  0.2032  0.2577 -0.1236
10146TIP3    H151853   6.107   4.641  15.347  0.3091  0.3758 -0.1497
10146TIP3    H251854   6.252   4.600  15.333  0.2102 -0.0425  0.0497
10147TIP3   OH251855   2.060   2.320   5.342 -0.1667  0.2092 -0.6339
10147TIP3    H151856   1.969   2.336   5.318  0.1620  1.9493 -0.8131
10147TIP3    H251857   2.111   2.362   5.273  0.7704 -0.4847 -0.3798
10148TIP3   OH251858   1.005   2.359   1.169 -0.4548  0.2303  0.6060
10148TIP3    H151859   1.093   2.324   1.189 -0.3229 -0.2760 -0.8010
10148TIP3    H251860   0.951   2.281   1.161 -1.1380  0.5603  1.8464
10149TIP3   OH251861   5.745   4.427   4.140  0.5365 -0.0734  0.2022
10149TIP3    H151862   5.781   4.422   4.229  1.9641  0.7198 -0.3077
10149TIP3    H251863   5.653   4.403   4.150  1.1162 -1.8497  1.6051
10150TIP3   OH251864   2.823   1.019   2.119 -0.8726  0.6238 -1.4417
10150TIP3    H151865   2.729   1.031   2.128 -0.4654  3.8435 -1.1411
10150TIP3    H251866   2.858   1.037   2.207 -0.0215 -1.6269 -1.2607
10151TIP3   OH251867   5.509   3.834   0.507 -0.0450  0.7881  0.5570
10151TIP3    H151868   5.552   3.918   0.491 -0.0895  0.6775 -0.1566
10151TIP3    H251869   5.417   3.857   0.521 -0.4080  0.6961 -1.5147
10152TIP3   OH251870   0.766   4.711  14.702 -0.1742 -0.1052  0.0892
10152TIP3    H151871   0.733   4.767  14.772  0.2470 -2.1421  1.9801
10152TIP3    H251872   0.702   4.721  14.631 -2.5237 -0.6404  2.0562
10153TIP3   OH251873   4.473   5.300   2.456  0.0236 -0.1813 -0.1493
10153TIP3    H151874   4.560   5.318   2.491 -0.4715  1.1965  0.4129
10153TIP3    H251875   4.483   5.218   2.408  1.2989 -0.7819  1.1109
10154TIP3   OH251876   3.827   0.288  14.516  0.2016  0.4668  0.2506
10154TIP3    H151877   3.920   0.270  14.521  0.4362  1.6211  0.2616
10154TIP3    H251878   3.797   0.237  14.440  1.1293  1.2267 -0.6491
10155TIP3   OH251879   5.870   0.878  15.573 -0.1983 -0.2702 -0.0908
10155TIP3    H151880   5.896   0.859  15.663 -1.0090 -0.9573  0.0022
10155TIP3    H251881   5.796   0.938  15.581 -0.9186 -1.1179 -0.2639
10156TIP3   OH251882   2.566   2.254  12.831 -0.2113  0.4502 -0.2376
10156TIP3    H151883   2.625   2.264  12.756 -1.0061 -0.1596 -0.9544
10156TIP3    H251884   2.555   2.160  12.840 -1.3799  0.5726 -0.3494
10157TIP3   OH251885   4.657   2.331   4.908 -0.2843 -0.2953 -0.2254
10157TIP3    H151886   4.667   2.339   4.814  0.2334  0.0604 -0.1390
10157TIP3    H251887   4.621   2.415   4.936  0.8317  0.0868  0.0720
10158TIP3   OH251888   0.252   6.063   3.712 -0.1280 -0.2472 -0.1603
10158TIP3    H151889   0.166   6.083   3.751  0.2296 -1.0626  1.0676
10158TIP3    H251890   0.313   6.066   3.785  0.1195 -4.7649 -0.0537
10159TIP3   OH251891   2.475   4.018  11.021  0.5528  0.0867  0.6950
10159TIP3    H151892   2.441   3.968  11.096  0.4285  0.3947  0.8408
10159TIP3    H251893   2.467   3.957  10.947  1.4310 -0.5160  1.0734
10160TIP3   OH251894   4.663   6.760  16.302 -0.1031 -0.7767  0.5051
10160TIP3    H151895   4.646   6.676  16.345 -0.7469 -1.0886 -0.3214
10160TIP3    H251896   4.607   6.758  16.224  0.4437  0.1058  0.0811
10161TIP3   OH251897   0.194   0.294  11.788  0.1471 -0.1017  0.3288
10161TIP3    H151898   0.115   0.344  11.805  0.7851  0.6919  0.9982
10161TIP3    H251899   0.221   0.261  11.873 -0.5058 -1.9697 -0.1680
10162TIP3   OH251900   4.254   0.408   5.543 -0.4827 -0.1813 -0.3737
10162TIP3    H151901   4.311   0.390   5.618 -0.5365 -1.3566 -0.5908
10162TIP3    H251902   4.300   0.475   5.493  0.3552 -0.5830 -0.1534
10163TIP3   OH251903   3.419   2.510  14.393 -0.1330 -0.0482  0.2897
10163TIP3    H151904   3.470   2.569  14.339  0.2050 -0.4147  0.2074
10163TIP3    H251905   3.330   2.543  14.387 -0.1889 -0.3916 -0.9078
10164TIP3   OH251906   6.240   2.460  13.544 -0.0594 -0.0836  0.0017
10164TIP3    H151907   6.163   2.459  13.602  0.2924 -0.3001  0.4674
10164TIP3    H251908   6.313   2.484  13.602 -0.0299  1.7273 -0.7591
10165TIP3   OH251909   6.654   5.986   2.040  0.2794  0.7475 -0.0505
10165TIP3    H151910   6.577   5.960   2.091  0.3904  1.2452  0.3791
10165TIP3    H251911   6.707   5.907   2.035  2.1155  1.5903  3.9116
10166TIP3   OH251912   0.854   1.350   4.723 -0.3163 -0.2488 -0.0807
10166TIP3    H151913   0.842   1.390   4.809 -1.7884 -0.5051 -0.1575
10166TIP3    H251914   0.803   1.404   4.663  2.1861  1.0101 -1.1309
10167TIP3   OH251915   4.551   5.150  14.429  0.4469  0.4020  0.0730
10167TIP3    H151916   4.623   5.187  14.480  0.6942 -0.5158  0.4157
10167TIP3    H251917   4.475   5.155  14.487  0.8282 -1.0593  0.7261
10168TIP3   OH251918   0.934   4.653   9.987 -0.0445 -0.0886  0.8738
10168TIP3    H151919   0.874   4.602   9.933 -0.9136 -0.7268  2.4162
10168TIP3    H251920   1.004   4.592  10.010  0.5332  0.2943  0.1529
10169TIP3   OH251921   3.360   2.413  13.350 -0.4483 -0.3034  1.2391
10169TIP3    H151922   3.328   2.393  13.261  0.7953 -1.1198  0.9578
10169TIP3    H251923   3.336   2.504  13.364 -1.1928 -0.3374  0.2918
10170TIP3   OH251924   0.364   3.767  14.931  0.9497  0.2607  0.2522
10170TIP3    H151925   0.382   3.681  14.970 -0.7932 -0.1138  0.2585
10170TIP3    H251926   0.325   3.818  15.003  0.4390  0.5139 -0.2024
10171TIP3   OH251927   3.962   3.331   1.708 -0.0797 -0.4013 -0.1315
10171TIP3    H151928   4.020   3.316   1.634  0.7431 -0.8510  0.5895
10171TIP3    H251929   4.011   3.297   1.783 -1.0438 -0.2602  0.5612
10172TIP3   OH251930   4.447   3.354   2.676  0.0630  0.7263 -0.4931
10172TIP3    H151931   4.472   3.284   2.616  1.4190  1.9524 -1.4030
10172TIP3    H251932   4.381   3.405   2.629 -1.1335 -0.0920  0.2799
10173TIP3   OH251933   5.746   4.479  11.822  0.3034  0.1001  0.1900
10173TIP3    H151934   5.825   4.519  11.787  1.6340 -0.0318  2.8778
10173TIP3    H251935   5.695   4.553  11.855 -0.4426  0.1343 -1.0165
10174TIP3   OH251936   0.179   5.463   5.096  0.8389  0.2994  0.0463
10174TIP3    H151937   0.143   5.540   5.141  1.4867  0.4398  0.3243
10174TIP3    H251938   0.265   5.490   5.067  1.3354 -0.5337  0.7164
10175TIP3   OH251939   3.762   6.409  15.916  0.6268  0.1845  0.1798
10175TIP3    H151940   3.730   6.461  15.989 -0.5154 -0.2277 -0.0159
10175TIP3    H251941   3.683   6.387  15.865  1.1791 -1.0325 -0.1832
10176TIP3   OH251942   4.997   0.262  13.490  0.3109  0.0387 -0.0289
10176TIP3    H151943   5.068   0.314  13.452  0.8679 -0.2036  0.6814
10176TIP3    H251944   4.924   0.273  13.428  0.6699  1.0321 -0.2845
10177TIP3   OH251945   0.685   4.715   2.685 -0.0409 -0.0015 -0.2062
10177TIP3    H151946   0.603   4.764   2.686 -0.5065 -0.7546 -0.6833
10177TIP3    H251947   0.727   4.736   2.769 -1.9634 -1.6761  1.2315
10178TIP3   OH251948   4.813   2.343   5.707 -0.0033  0.6006 -0.2038
10178TIP3    H151949   4.850   2.392   5.634 -0.1925  0.5502 -0.3351
10178TIP3    H251950   4.754   2.405   5.751  1.1208  1.0420  0.7032
10179TIP3   OH251951   2.944   3.439  15.593 -0.1130  0.3532 -0.3080
10179TIP3    H151952   2.921   3.381  15.521 -0.4910  1.4492 -1.0841
10179TIP3    H251953   2.931   3.527  15.558  3.1600  0.9869 -0.0756
10180TIP3   OH251954   0.628   5.916  15.118  0.0258  0.1078  0.1217
10180TIP3    H151955   0.715   5.891  15.087  0.6186 -0.4097  2.1473
10180TIP3    H251956   0.568   5.877  15.055  1.1835 -1.0114 -0.3047
10181TIP3   OH251957   6.666   5.723   3.203 -0.4499  0.8298 -0.5225
10181TIP3    H151958   6.742   5.679   3.165 -1.6349 -2.0043  0.2134
10181TIP3    H251959   6.698   5.809   3.230  1.9364  0.5027 -2.1694
10182TIP3   OH251960   0.426   6.477  17.210 -0.0438  0.2188 -0.9233
10182TIP3    H151961   0.385   6.391  17.200  0.9267 -0.2326 -1.0663
10182TIP3    H251962   0.361   6.528  17.258  0.6224 -1.5428  2.0007
10183TIP3   OH251963   6.210   5.161   4.535 -0.3101  0.7271 -0.0947
10183TIP3    H151964   6.239   5.152   4.626  1.2065 -0.9264 -0.7247
10183TIP3    H251965   6.230   5.077   4.495 -1.9125  1.0873 -1.7192
10184TIP3   OH251966   5.977   2.868   0.284  0.2871 -0.6493  0.1476
10184TIP3    H151967   5.894   2.821   0.288  0.5991 -1.1575  0.6753
10184TIP3    H251968   6.013   2.861   0.372  0.6861 -0.0599  0.0339
10185TIP3   OH251969   2.469   1.708   3.048  0.3354 -0.3744 -0.1561
10185TIP3    H151970   2.493   1.645   2.980 -0.5308  0.7095 -1.4844
10185TIP3    H251971   2.551   1.724   3.096  1.1532 -0.4957 -1.4880
10186TIP3   OH251972   2.722   3.809  11.736 -0.1594 -0.3377  0.8187
10186TIP3    H151973   2.687   3.883  11.685  0.3555 -0.5196  0.1870
10186TIP3    H251974   2.813   3.801  11.706 -0.4392 -1.7264  0.3116
10187TIP3   OH251975   3.003   1.274   5.414  0.2773 -0.1279 -0.2222
10187TIP3    H151976   3.008   1.178   5.416  0.7159 -0.1225 -0.8664
10187TIP3    H251977   2.968   1.298   5.500  0.0120 -0.8749 -0.1159
10188TIP3   OH251978   6.485   5.272  14.138  0.0376 -0.1111 -0.3233
10188TIP3    H151979   6.434   5.347  14.108  0.9555  0.1004 -1.3980
10188TIP3    H251980   6.560   5.270  14.079  0.7151 -1.0574  0.5699
10189TIP3   OH251981   6.730   4.315   3.362 -0.4043  0.6201  0.5912
10189TIP3    H151982   6.667   4.246   3.382  0.4755 -0.6578 -0.9125
10189TIP3    H251983   6.699   4.390   3.412 -4.3025  0.6479 -1.5934
10190TIP3   OH251984   5.212   1.968   4.271  0.0961 -0.3919 -0.1485
10190TIP3    H151985   5.222   1.893   4.213  0.1389 -1.5322  1.2916
10190TIP3    H251986   5.281   1.957   4.336 -2.4417 -1.4238  2.5124
10191TIP3   OH251987   5.239   2.701   5.260 -0.2023  0.0798  0.1350
10191TIP3    H151988   5.184   2.623   5.251 -0.5163  0.3308 -0.1277
10191TIP3    H251989   5.221   2.752   5.181  0.0031  0.4186  0.3067
10192TIP3   OH251990   4.128   3.352   0.373 -0.0208  0.2021 -0.1458
10192TIP3    H151991   4.105   3.444   0.387  0.6128  0.3327  0.0825
10192TIP3    H251992   4.220   3.347   0.399 -0.2525 -0.6518  0.5150
10193TIP3   OH251993   0.947   6.507  12.236  0.2214 -0.0492  0.2169
10193TIP3    H151994   0.876   6.570  12.223  0.3766  0.5110  2.0325
10193TIP3    H251995   0.914   6.445  12.301 -0.1758 -2.2797 -1.9943
10194TIP3   OH251996   2.264   1.040   5.172  0.0236  0.2106 -0.4459
10194TIP3    H151997   2.182   1.061   5.127 -0.2961  0.9374  0.4603
10194TIP3    H251998   2.323   1.112   5.149 -1.0029  2.0650  2.4857
10195TIP3   OH251999   4.303   0.353   2.630 -0.0383  0.1679  0.1452
10195TIP3    H152000   4.315   0.263   2.601 -0.7525  0.5930 -1.5417
10195TIP3    H252001   4.225   0.351   2.685 -0.3759 -0.1376 -0.3487
10196TIP3   OH252002   4.959   0.239   0.107  0.1769 -0.2618 -0.0056
10196TIP3    H152003   4.887   0.190   0.146 -1.0758  2.5712  1.4031
10196TIP3    H252004   5.017   0.260   0.180  1.9299 -1.6224 -0.9661
10197TIP3   OH252005   3.267   3.603  12.749  0.1880 -0.1376 -0.0002
10197TIP3    H152006   3.215   3.586  12.827 -1.1929 -0.1166 -0.8873
10197TIP3    H252007   3.211   3.658  12.694  0.9615 -0.4965 -1.1839
10198TIP3   OH252008   5.898   6.737   1.659  0.5505 -0.3056 -0.0580
10198TIP3    H152009   5.821   6.766   1.610  0.5630  0.7160  0.5136
10198TIP3    H252010   5.917   6.809   1.720  0.3365 -1.6924  1.6956
10199TIP3   OH252011   1.194   0.087  15.664  0.1355  0.3710 -0.6398
10199TIP3    H152012   1.117   0.132  15.699  0.5501  0.1020  0.6523
10199TIP3    H252013   1.172   0.069  15.573 -1.5446 -0.1382 -0.1600
10200TIP3   OH252014   2.382   0.893  17.232  0.2302 -0.3061  0.3889
10200TIP3    H152015   2.448   0.900  17.163  1.9751 -1.5558  1.8757
10200TIP3    H252016   2.335   0.813  17.212 -0.0612 -0.0275 -0.0318
10201TIP3   OH252017   3.036   2.026   6.045 -0.1081  0.0749  0.3064
10201TIP3    H152018   3.095   2.098   6.067  1.4010 -1.0547  0.0338
10201TIP3    H252019   2.981   2.015   6.122  0.7745  0.4270  0.9898
10202TIP3   OH252020   4.283   0.276  12.550 -0.5799 -0.3967 -0.3565
10202TIP3    H152021   4.360   0.221  12.540  0.5017  0.9939  0.1745
10202TIP3    H252022   4.273   0.318  12.465  0.5040  1.0124  0.1942
10203TIP3   OH252023   1.083   1.752  17.046  0.1865 -0.0501  0.6707
10203TIP3    H152024   1.076   1.808  17.123 -1.1697  0.1236  0.4376
10203TIP3    H252025   1.153   1.792  16.994 -1.0058  1.6804  0.3353
10204TIP3   OH252026   6.553   3.488  12.198  0.0072 -0.4086  0.5667
10204TIP3    H152027   6.604   3.563  12.228  1.1412 -1.0220  0.1793
10204TIP3    H252028   6.521   3.447  12.278 -1.5484  1.1191  0.7554
10205TIP3   OH252029   1.548   0.246   1.287  0.3196 -0.5834  0.3147
10205TIP3    H152030   1.487   0.280   1.221 -1.4064 -1.9095  1.1772
10205TIP3    H252031   1.591   0.324   1.322 -0.4544  0.3434 -0.7401
10206TIP3   OH252032   2.538   0.536   0.174 -0.3141 -0.4605 -0.6917
10206TIP3    H152033   2.494   0.535   0.089 -1.0397 -2.8753 -0.3150
10206TIP3    H252034   2.471   0.508   0.236  0.0613  1.7580  0.7849
10207TIP3   OH252035   1.084   5.695  16.827 -0.2125  0.1524  0.9573
10207TIP3    H152036   1.115   5.632  16.892 -2.2012 -1.2227  0.6282
10207TIP3    H252037   1.025   5.753  16.876 -1.4682 -0.6938  0.4834
10208TIP3   OH252038   0.609   1.266   1.168 -0.0812  0.4034 -0.9837
10208TIP3    H152039   0.677   1.236   1.108  0.8289 -0.4062  0.4298
10208TIP3    H252040   0.617   1.362   1.167  1.4981  0.2875 -0.3534
10209TIP3   OH252041   2.998   6.742   3.412  0.1414  0.0059  0.4108
10209TIP3    H152042   3.067   6.804   3.388  0.1252  0.3713  1.2577
10209TIP3    H252043   2.927   6.761   3.351  0.4435  0.2651  0.1325
10210TIP3   OH252044   0.705   4.850  12.650  0.3035 -0.3434 -0.2129
10210TIP3    H152045   0.719   4.797  12.571  0.4720  0.0736 -0.4625
10210TIP3    H252046   0.773   4.917  12.646  1.0051 -0.9837  0.8530
10211TIP3   OH252047   1.922   4.379  16.625  0.1278  0.4406  0.1341
10211TIP3    H152048   1.854   4.330  16.579  1.0321  0.9391 -1.7857
10211TIP3    H252049   1.994   4.317  16.635  0.2065  0.5487  0.2311
10212TIP3   OH252050   5.386   3.630   3.135  0.3245 -0.0263 -0.0487
10212TIP3    H152051   5.395   3.725   3.138 -2.6335  0.3010  0.2087
10212TIP3    H252052   5.430   3.599   3.214  0.7276  1.1718  0.2105
10213TIP3   OH252053   3.276   4.619   2.133 -0.4176 -0.7427  0.4743
10213TIP3    H152054   3.202   4.589   2.185  0.3635  1.4717  2.9446
10213TIP3    H252055   3.349   4.625   2.195  1.2769 -0.7539 -1.4534
10214TIP3   OH252056   1.478   3.289   0.793 -0.5256  0.7079  0.9988
10214TIP3    H152057   1.444   3.365   0.747  0.2160 -0.1141 -0.9551
10214TIP3    H252058   1.573   3.299   0.790 -0.4716  0.7233  2.5015
10215TIP3   OH252059   3.654   0.985   5.680  0.1830 -0.8168 -0.0265
10215TIP3    H152060   3.656   1.071   5.721 -0.3512 -1.0068  0.4084
10215TIP3    H252061   3.561   0.963   5.674  0.2532 -0.7186 -1.5002
10216TIP3   OH252062   4.830   4.852  13.678  0.3405  0.3444 -0.2483
10216TIP3    H152063   4.794   4.777  13.632  0.8366 -0.1931  0.2427
10216TIP3    H252064   4.863   4.909  13.608 -1.8730  1.0799 -0.7375
10217TIP3   OH252065   6.241   4.043   4.485 -0.2544 -0.0233 -0.1230
10217TIP3    H152066   6.216   4.123   4.438 -0.1401 -0.5578 -1.0891
10217TIP3    H252067   6.272   4.075   4.570 -1.5693  0.8576  0.0440
10218TIP3   OH252068   2.020   6.724   2.866 -0.5377  0.1576 -0.4052
10218TIP3    H152069   2.044   6.783   2.795  2.9149  0.0437  0.5906
10218TIP3    H252070   2.101   6.677   2.887 -2.1080 -1.6459  1.8744
10219TIP3   OH252071   3.981   0.151  12.011 -0.2924  0.2724 -0.2255
10219TIP3    H152072   3.924   0.079  12.038  0.2595  0.2390  0.8949
10219TIP3    H252073   4.069   0.112  12.010 -0.3193  0.2299 -2.2796
10220TIP3   OH252074   3.303   5.162  11.414  0.4350 -0.1419 -0.2979
10220TIP3    H152075   3.311   5.144  11.320  2.8297 -0.4857 -0.0462
10220TIP3    H252076   3.365   5.102  11.456 -1.0361 -0.4088  1.5634
10221TIP3   OH252077   1.017   6.480  15.849 -0.6200 -0.4822  0.0673
10221TIP3    H152078   0.942   6.427  15.875 -1.7877  1.2218  0.2274
10221TIP3    H252079   1.000   6.567  15.886  0.7778  0.2880 -1.0201
10222TIP3   OH252080   5.210   6.710   4.706  0.6409  0.1253  0.3951
10222TIP3    H152081   5.218   6.729   4.800  1.9990  0.3464  0.2524
10222TIP3    H252082   5.282   6.759   4.666 -2.0129  2.9588 -1.1973
10223TIP3   OH252083   1.578   6.496  11.447  0.0447  0.1802 -0.0915
10223TIP3    H152084   1.645   6.434  11.476 -1.2386 -0.8100  0.8469
10223TIP3    H252085   1.585   6.497  11.352 -0.1317 -1.6901 -0.1419
10224TIP3   OH252086   1.923   4.780   5.868  0.0171  0.7403  0.1135
10224TIP3    H152087   1.946   4.831   5.790 -1.6049  0.4910 -0.5496
10224TIP3    H252088   1.828   4.765   5.860  0.5469 -2.9952 -0.1071
10225TIP3   OH252089   3.762   1.031   5.421  0.4341  0.0130  0.0491
10225TIP3    H152090   3.744   0.944   5.385 -0.2569  0.5144 -0.8444
10225TIP3    H252091   3.743   1.022   5.515 -0.1647 -0.6628 -0.1289
10226TIP3   OH252092   4.608   2.909  11.200  0.8977 -0.1639  0.0647
10226TIP3    H152093   4.567   2.875  11.279  0.3744 -0.8614 -0.4945
10226TIP3    H252094   4.679   2.847  11.181  0.8587 -0.1413 -0.1558
10227TIP3   OH252095   1.082   3.961   2.639  0.8242  0.8872 -0.1582
10227TIP3    H152096   1.081   3.929   2.729  0.2961 -0.8727 -0.7707
10227TIP3    H252097   0.994   3.994   2.624  0.2121 -0.9588 -0.7546
10228TIP3   OH252098   4.730   4.335   1.251  0.6404  0.0268  0.5525
10228TIP3    H152099   4.662   4.267   1.261  0.8105 -0.4507 -1.4383
10228TIP3    H252100   4.704   4.403   1.313 -0.6010 -1.0128  1.2093
10229TIP3   OH252101   0.053   6.736   3.510  0.0297  0.1770  0.0882
10229TIP3    H152102   0.120   6.800   3.486  0.3709  1.0006  3.0949
10229TIP3    H252103  -0.025   6.788   3.527 -0.4725 -0.4824 -0.1555
10230TIP3   OH252104   2.984   5.847  13.737  0.0758 -0.7001  0.1804
10230TIP3    H152105   3.070   5.884  13.717  0.1943 -1.0066  0.1172
10230TIP3    H252106   2.941   5.914  13.790  0.5199 -0.7292  0.5840
10231TIP3   OH252107   0.297   3.212  11.499  0.1489 -0.9150  0.1381
10231TIP3    H152108   0.327   3.173  11.581 -0.6735  1.4246  1.5920
10231TIP3    H252109   0.207   3.182  11.489 -0.5230  0.6847  1.3163
10232TIP3   OH252110   2.044   0.942   0.108 -0.4288 -0.6754 -0.0826
10232TIP3    H152111   1.993   0.865   0.134 -1.3653 -0.1265 -0.3011
10232TIP3    H252112   2.120   0.906   0.062 -1.3291 -1.4230 -0.9844
10233TIP3   OH252113   5.681   5.898   3.057  0.2955  0.2804  0.4239
10233TIP3    H152114   5.645   5.814   3.085  1.8358 -0.4715  0.2247
10233TIP3    H252115   5.675   5.896   2.962  1.6183 -0.2339  0.3308
10234TIP3   OH252116   2.720   2.481  12.238  0.1452  0.0256 -0.4435
10234TIP3    H152117   2.803   2.529  12.232  0.6516 -0.9619 -1.5058
10234TIP3    H252118   2.743   2.391  12.214 -1.4362 -0.0443 -1.7305
10235TIP3   OH252119   6.550   1.757   1.180 -0.0257  0.4360 -0.2515
10235TIP3    H152120   6.467   1.796   1.207 -0.5174  0.3796 -1.6575
10235TIP3    H252121   6.527   1.701   1.106  1.2771  0.4601 -0.6841
10236TIP3   OH252122   6.119   1.525  16.071 -0.3427  0.0116 -0.1348
10236TIP3    H152123   6.209   1.550  16.052  0.0209 -0.1331  1.3357
10236TIP3    H252124   6.124   1.433  16.096 -1.3004 -0.8137 -2.7995
10237TIP3   OH252125   4.108   5.426  15.855  0.4340  0.4837  0.3561
10237TIP3    H152126   4.092   5.496  15.919 -0.2471  0.0373  0.6764
10237TIP3    H252127   4.086   5.345  15.901  1.1263  0.0650 -0.0486
10238TIP3   OH252128   1.636   3.024  14.050  0.2412  0.3149  0.3718
10238TIP3    H152129   1.588   2.949  14.015  0.0824  0.3298  0.5529
10238TIP3    H252130   1.728   2.999  14.046  0.1358 -0.2189  1.2127
10239TIP3   OH252131   6.622   4.378  14.361 -0.2975 -0.0236  0.2509
10239TIP3    H152132   6.691   4.430  14.403 -1.1179  0.5243  0.9311
10239TIP3    H252133   6.543   4.431  14.370 -1.0379 -1.1472  0.4670
10240TIP3   OH252134   2.996   3.495  11.513  0.2608 -0.4048 -0.7703
10240TIP3    H152135   2.965   3.578  11.551  0.1873 -1.2929  1.1853
10240TIP3    H252136   2.923   3.465  11.459  0.6810  1.3030 -2.3144
10241TIP3   OH252137   2.864   0.661   3.919  0.0134  0.4990 -0.2007
10241TIP3    H152138   2.873   0.608   3.840 -0.5399 -0.2417  0.2262
10241TIP3    H252139   2.770   0.679   3.925  0.3101  2.3042 -0.8443
10242TIP3   OH252140   4.634   3.281  13.058 -0.0311  0.2233 -0.1583
10242TIP3    H152141   4.569   3.231  13.108  0.0448  0.7010  0.4247
10242TIP3    H252142   4.697   3.311  13.124  2.0948 -2.1866 -0.9912
10243TIP3   OH252143   5.269   5.463  14.775 -0.5929 -0.4953  0.1012
10243TIP3    H152144   5.176   5.458  14.796 -0.3920  1.5303  1.6746
10243TIP3    H252145   5.271   5.489  14.683 -1.7074  3.3471  1.0562
10244TIP3   OH252146   3.813   0.109  11.789  0.5107 -0.3069 -0.8926
10244TIP3    H152147   3.861   0.130  11.869 -0.4282  0.1608 -0.4503
10244TIP3    H252148   3.867   0.043  11.745  0.3290 -1.6431  0.8361
10245TIP3   OH252149   0.564   3.592  13.780  0.0312  0.1222  0.3949
10245TIP3    H152150   0.655   3.618  13.773  0.1995 -0.8763 -1.4463
10245TIP3    H252151   0.562   3.527  13.851  0.8464 -0.2685  0.0596
10246TIP3   OH252152   5.550   0.698  17.014 -0.7003  0.1415 -0.3549
10246TIP3    H152153   5.600   0.776  17.040 -0.4605 -0.2212  0.2932
10246TIP3    H252154   5.475   0.732  16.965 -0.6848  0.7896  0.0677
10247TIP3   OH252155   1.455   2.077   5.295  0.7354 -0.1206  0.6660
10247TIP3    H152156   1.450   2.168   5.264  1.8352 -0.2103  0.2177
10247TIP3    H252157   1.415   2.026   5.224  2.0374 -0.1938 -0.0184
10248TIP3   OH252158   5.903   2.176   4.932  0.2322  0.7282  0.0386
10248TIP3    H152159   5.913   2.270   4.947  0.4358  0.6905  0.1442
10248TIP3    H252160   5.828   2.150   4.986 -0.0904  0.9120 -0.3263
10249TIP3   OH252161   4.857   4.276  15.514 -0.7957  0.2082  0.4774
10249TIP3    H152162   4.851   4.289  15.609  0.2442  0.2085  0.5404
10249TIP3    H252163   4.950   4.266  15.497 -1.0751 -1.0723 -0.3812
10250TIP3   OH252164   5.851   6.043   4.498 -0.6794 -0.7543 -0.7602
10250TIP3    H152165   5.790   6.097   4.549  0.7592 -0.1789  0.3974
10250TIP3    H252166   5.875   5.972   4.557  1.7412  0.4414 -0.2119
10251TIP3   OH252167   1.969   2.077   0.913 -0.0715  1.0886  0.1282
10251TIP3    H152168   1.874   2.087   0.924 -0.1477 -1.8041  2.8697
10251TIP3    H252169   1.979   2.003   0.853  0.4591  1.7614 -0.6178
10252TIP3   OH252170   0.782   1.461  16.735  0.1360  0.0795 -0.2846
10252TIP3    H152171   0.811   1.374  16.764  1.5295  0.8575  0.7356
10252TIP3    H252172   0.691   1.448  16.709  0.9560 -2.1704 -2.2760
10253TIP3   OH252173   4.611   3.979  13.616 -1.1144 -0.2625  0.2461
10253TIP3    H152174   4.657   3.984  13.532 -0.7061  0.4513  0.5076
10253TIP3    H252175   4.544   3.911  13.603 -0.0435 -1.2475 -0.1546
10254TIP3   OH252176   1.560   5.734  15.825 -0.1546  0.0066  0.0304
10254TIP3    H152177   1.634   5.673  15.813 -0.8128 -0.9011  0.5173
10254TIP3    H252178   1.485   5.677  15.839 -1.1761  0.9149 -1.6194
10255TIP3   OH252179   1.206   5.715   4.292  0.3801 -0.6069 -0.2052
10255TIP3    H152180   1.173   5.625   4.295  0.8509 -0.7230  2.1995
10255TIP3    H252181   1.277   5.717   4.356  0.3872  1.4777 -0.2349
10256TIP3   OH252182   3.693   3.665   2.892 -0.1234 -0.0552 -0.0265
10256TIP3    H152183   3.781   3.699   2.875  0.3811 -1.5279 -0.4990
10256TIP3    H252184   3.651   3.664   2.806  0.0282 -1.0232 -0.0992
10257TIP3   OH252185   2.581   3.014  11.756 -0.3148 -0.0058  0.6547
10257TIP3    H152186   2.583   2.958  11.678 -0.9206 -0.0609  0.6811
10257TIP3    H252187   2.669   3.053  11.759 -0.8103  1.3030 -1.0124
10258TIP3   OH252188   0.879   5.268   2.159  0.4555  0.1758 -0.4583
10258TIP3    H152189   0.833   5.200   2.209  1.5532 -0.8506 -0.8280
10258TIP3    H252190   0.911   5.223   2.081 -0.3719  1.5488 -1.5950
10259TIP3   OH252191   5.302   0.359   2.321 -0.5530 -0.1491 -0.5240
10259TIP3    H152192   5.276   0.448   2.297 -0.6015 -0.2944 -1.0324
10259TIP3    H252193   5.398   0.361   2.324 -0.5279 -0.2026 -1.0657
10260TIP3   OH252194   6.784   3.568  16.530  0.3370  0.1292 -0.3379
10260TIP3    H152195   6.827   3.627  16.468  1.3456  0.7438  0.9173
10260TIP3    H252196   6.848   3.557  16.600 -0.5086 -1.1319  0.2452
10261TIP3   OH252197   3.336   4.908   6.706 -0.4214  0.3167  0.4232
10261TIP3    H152198   3.340   4.826   6.754  1.1637  1.3308  2.0893
10261TIP3    H252199   3.258   4.952   6.739  0.0645  0.5332  1.2788
10262TIP3   OH252200   4.320   1.967   2.858 -0.2748  0.0585  0.8128
10262TIP3    H152201   4.254   2.036   2.853 -1.0492 -0.5558  2.2146
10262TIP3    H252202   4.331   1.939   2.767 -0.8145  1.2188  0.3743
10263TIP3   OH252203   3.655   3.931   3.904 -0.3779 -0.3730  0.4631
10263TIP3    H152204   3.590   3.988   3.944 -0.3968  1.5668 -2.2122
10263TIP3    H252205   3.604   3.872   3.848 -0.2314 -2.1987  2.1790
10264TIP3   OH252206   0.277   3.690  11.361  0.0818 -0.0232  0.0527
10264TIP3    H152207   0.338   3.763  11.348  1.0209 -0.9454 -0.7618
10264TIP3    H252208   0.324   3.629  11.417 -1.0174  0.3539  1.4169
10265TIP3   OH252209   1.636   4.085  13.961  0.1896 -0.0760  0.3053
10265TIP3    H152210   1.617   4.170  13.921  1.5169 -0.9335 -2.2096
10265TIP3    H252211   1.627   4.101  14.055 -1.6248  2.3237 -0.2236
10266TIP3   OH252212   2.656   6.544  16.768 -0.1005 -0.1073  0.1230
10266TIP3    H152213   2.663   6.449  16.755 -0.2424 -0.0665 -0.2547
10266TIP3    H252214   2.619   6.553  16.856 -2.3648 -0.4727 -0.7496
10267TIP3   OH252215   5.140   1.853  16.505  0.1542  0.7923 -0.2397
10267TIP3    H152216   5.147   1.807  16.421 -2.1997 -1.9118  0.9743
10267TIP3    H252217   5.080   1.926  16.487  0.4865  0.8523 -1.1425
10268TIP3   OH252218   0.694   1.801   0.505  0.0322 -0.3538  0.2605
10268TIP3    H152219   0.619   1.769   0.555  0.8900 -0.9019  1.1991
10268TIP3    H252220   0.729   1.723   0.461 -1.1194  0.2236 -1.7800
10269TIP3   OH252221   2.811   5.622   4.448 -0.0209 -0.4430 -0.3007
10269TIP3    H152222   2.854   5.699   4.412  1.0485 -0.4711  0.9102
10269TIP3    H252223   2.731   5.613   4.396 -0.0231  1.3144 -0.6173
10270TIP3   OH252224   3.024   6.255   4.578 -0.2917  0.3793 -0.1195
10270TIP3    H152225   3.064   6.252   4.665 -0.2910 -1.2191 -0.1698
10270TIP3    H252226   2.933   6.280   4.594  0.4169  3.0600  0.0746
10271TIP3   OH252227   3.056   2.875  13.513  0.8727  0.3962  0.2737
10271TIP3    H152228   3.150   2.886  13.498  0.7948  2.0020  0.7616
10271TIP3    H252229   3.033   2.949  13.570 -0.7588  0.2277 -0.1485
10272TIP3   OH252230   3.615   0.358  13.193 -0.6101  0.0431 -0.1150
10272TIP3    H152231   3.634   0.320  13.278 -0.3341  0.8679  0.1920
10272TIP3    H252232   3.637   0.450  13.202 -0.7238  0.1642 -1.0332
10273TIP3   OH252233   1.000   4.736  13.795  0.1817  0.2948  0.1133
10273TIP3    H152234   1.020   4.801  13.728  0.1427  1.4140  1.1541
10273TIP3    H252235   1.079   4.682  13.801 -0.2832 -0.6038 -1.6935
10274TIP3   OH252236   5.176   1.453  15.671  0.4926 -0.1458  0.0827
10274TIP3    H152237   5.240   1.463  15.742  1.2620 -0.4720 -0.5647
10274TIP3    H252238   5.217   1.494  15.595  1.2939 -3.1423 -1.1557
10275TIP3   OH252239   3.733   5.070  15.030  0.4400 -0.2924  0.5185
10275TIP3    H152240   3.734   5.155  15.073 -1.0364  1.0296 -1.9746
10275TIP3    H252241   3.824   5.050  15.013  0.7549  1.0540  0.5855
10276TIP3   OH252242   4.462   2.681   4.211  0.1653 -0.2373  0.6756
10276TIP3    H152243   4.389   2.728   4.172 -0.7848 -1.0189  1.4745
10276TIP3    H252244   4.428   2.592   4.226  0.6966 -0.1319  2.6261
10277TIP3   OH252245   4.530   5.121   0.669  0.1996 -0.3583  0.2721
10277TIP3    H152246   4.445   5.082   0.688 -0.2333  0.5193  0.1693
10277TIP3    H252247   4.544   5.102   0.576 -0.5267  0.6762 -0.0622
10278TIP3   OH252248   2.876   3.734  13.392  0.4305 -0.1608  0.0526
10278TIP3    H152249   2.842   3.649  13.366 -0.6733  0.4262 -0.4640
10278TIP3    H252250   2.968   3.733  13.367  0.2199 -0.8989 -0.6951
10279TIP3   OH252251   0.482   6.295  16.027  0.3645 -0.3995  0.2254
10279TIP3    H152252   0.400   6.314  16.072  0.9498  1.2140  0.6622
10279TIP3    H252253   0.550   6.333  16.083  1.3827 -1.3204 -0.3437
10280TIP3   OH252254   1.567   1.102  12.916  0.6981  0.0586 -0.3530
10280TIP3    H152255   1.568   1.148  12.832  2.4722 -1.3089 -1.1160
10280TIP3    H252256   1.475   1.079  12.930 -0.2011  3.7072  0.0122
10281TIP3   OH252257   2.603   0.022   2.027  0.0539 -0.7315  0.1317
10281TIP3    H152258   2.628   0.114   2.016 -0.2347 -0.7617 -0.7776
10281TIP3    H252259   2.540   0.023   2.099 -0.3032 -0.1607 -0.1837
10282TIP3   OH252260   6.212   4.422  13.126 -0.2466  0.5889  0.5659
10282TIP3    H152261   6.174   4.470  13.200 -0.3401 -0.5022  1.2473
10282TIP3    H252262   6.137   4.400  13.071 -0.1718  1.4415  0.1158
10283TIP3   OH252263   1.091   5.362  14.365  0.2444  0.0277  0.7964
10283TIP3    H152264   1.006   5.386  14.403  0.1530  0.6235  0.2103
10283TIP3    H252265   1.155   5.407  14.420  0.0295  2.6631 -1.0363
10284TIP3   OH252266   3.808   4.611   3.746 -0.2079  1.0000 -0.6195
10284TIP3    H152267   3.860   4.547   3.795  0.3999  2.1342  0.2262
10284TIP3    H252268   3.823   4.588   3.654 -0.3766 -0.3742 -0.3147
10285TIP3   OH252269   3.833   1.743   3.425 -0.1793  0.2451  0.0714
10285TIP3    H152270   3.754   1.725   3.477 -1.4304  0.7448 -1.6046
10285TIP3    H252271   3.904   1.741   3.488 -1.3141 -1.9735  1.3632
10286TIP3   OH252272   2.903   2.779  10.330 -0.3871 -0.2600  0.5797
10286TIP3    H152273   2.967   2.841  10.296  0.3441 -0.8500  0.8588
10286TIP3    H252274   2.875   2.817  10.414 -0.2877 -0.0751  0.5285
10287TIP3   OH252275   0.837   2.217  14.244 -0.0508  0.2170  0.5626
10287TIP3    H152276   0.808   2.273  14.315 -2.0506 -1.6990  1.3126
10287TIP3    H252277   0.789   2.248  14.167 -0.4798  0.1074  0.7860
10288TIP3   OH252278   6.342   5.823   4.083  0.3867 -0.0637 -0.1964
10288TIP3    H152279   6.359   5.836   3.990 -0.5127 -1.7193 -0.6035
10288TIP3    H252280   6.415   5.770   4.114  1.7147  2.1188  0.4904
10289TIP3   OH252281   5.535   3.012   2.854 -0.0501 -0.1974 -0.0208
10289TIP3    H152282   5.603   3.028   2.920 -1.3017  0.4625  1.1506
10289TIP3    H252283   5.465   3.073   2.877 -0.3596  0.3151 -2.2211
10290TIP3   OH252284   6.009   0.254  14.904  0.3554 -0.3683  0.2751
10290TIP3    H152285   5.974   0.197  14.835  0.3380 -1.8192  1.4741
10290TIP3    H252286   5.954   0.237  14.980  1.0610  0.4226  0.9797
10291TIP3   OH252287   6.644   3.885  17.015 -0.0084  0.2425 -0.1963
10291TIP3    H152288   6.559   3.842  17.020  0.8654 -1.4059  0.8831
10291TIP3    H252289   6.625   3.970  16.975 -2.2330  0.1271  0.5398
10292TIP3   OH252290   4.560   4.482   0.886 -0.0714  0.0271 -0.2193
10292TIP3    H152291   4.583   4.473   0.793  1.8857 -2.7191  0.4866
10292TIP3    H252292   4.549   4.392   0.917  1.8646  0.7833  2.8438
10293TIP3   OH252293   3.761   3.646   4.463 -0.1924 -0.2263 -0.0402
10293TIP3    H152294   3.756   3.559   4.424 -2.9214 -0.4140  0.6274
10293TIP3    H252295   3.851   3.676   4.445  0.7331 -3.0885 -0.4011
10294TIP3   OH252296   3.290   3.164   2.663  0.2655  0.0908  0.2881
10294TIP3    H152297   3.263   3.191   2.575 -1.0885 -0.8389  0.4025
10294TIP3    H252298   3.347   3.235   2.693  2.4796 -0.5793 -2.1555
10295TIP3   OH252299   3.466   3.509   6.288  0.4406  0.1162 -0.0392
10295TIP3    H152300   3.450   3.453   6.364 -1.6431  1.0548  0.2499
10295TIP3    H252301   3.382   3.552   6.271  1.7137  2.4161 -0.8484
10296TIP3   OH252302   1.923   6.665   2.143  0.4697  0.0801  0.5238
10296TIP3    H152303   1.979   6.606   2.193  4.2709  0.7852 -2.6051
10296TIP3    H252304   1.929   6.748   2.189  0.8536 -0.2230  1.0287
10297TIP3   OH252305   2.685   0.259  12.804 -0.3631 -0.1194 -0.2087
10297TIP3    H152306   2.676   0.176  12.851 -1.5326 -0.3016 -0.7280
10297TIP3    H252307   2.621   0.254  12.733 -0.1237  1.0359 -0.5300
10298TIP3   OH252308   2.247   2.707  14.360 -0.3315 -0.5401 -0.9169
10298TIP3    H152309   2.270   2.737  14.272 -0.2381  1.3637 -0.2553
10298TIP3    H252310   2.309   2.750  14.418  0.3972 -2.7369  0.0138
10299TIP3   OH252311   0.572   0.809  14.626  0.0039  0.0650  0.2365
10299TIP3    H152312   0.663   0.813  14.598  0.2074 -1.5557  0.6251
10299TIP3    H252313   0.553   0.897  14.659  1.9737 -0.0954  1.8676
10300TIP3   OH252314   5.142   3.416  11.123  0.2408 -0.6454  0.1302
10300TIP3    H152315   5.182   3.351  11.181  1.2183 -0.0127  0.1582
10300TIP3    H252316   5.212   3.477  11.102 -0.1524 -0.7565 -1.5779
10301TIP3   OH252317   1.771   0.742  12.109 -0.5031  0.2157  0.5552
10301TIP3    H152318   1.684   0.725  12.146  0.1221 -0.9589  1.5017
10301TIP3    H252319   1.801   0.822  12.153 -0.8075  0.2286  0.7386
10302TIP3   OH252320   2.081   6.047  15.549  0.1175 -0.3521 -0.0736
10302TIP3    H152321   2.130   6.110  15.602 -1.2446  0.4462  0.2651
10302TIP3    H252322   2.100   5.963  15.590  2.5460 -0.2825 -0.9832
10303TIP3   OH252323   2.982   2.518  14.066 -0.2760  0.4592 -0.2565
10303TIP3    H152324   3.039   2.470  14.126 -1.5869 -2.4923 -1.3275
10303TIP3    H252325   3.042   2.566  14.009  1.1332 -1.6312 -0.5744
10304TIP3   OH252326   5.483   0.209   4.062 -0.4521  0.0704 -0.1049
10304TIP3    H152327   5.449   0.222   3.974  0.3754  1.0378 -0.2859
10304TIP3    H252328   5.406   0.210   4.119 -1.0629 -1.3271 -0.8878
10305TIP3   OH252329   1.757   2.138  11.434 -0.1173 -0.1184 -0.5904
10305TIP3    H152330   1.686   2.193  11.401 -0.4349 -0.7407 -0.9556
10305TIP3    H252331   1.793   2.095  11.356  0.0370 -0.5363 -0.2958
10306TIP3   OH252332   4.306   2.121   3.883 -0.1434  0.3533 -0.1366
10306TIP3    H152333   4.231   2.180   3.892  1.3979  2.1611  1.5768
10306TIP3    H252334   4.376   2.178   3.851  0.6798 -1.1632 -1.0711
10307TIP3   OH252335   4.403   2.273  11.371 -0.0544 -0.4844 -0.3339
10307TIP3    H152336   4.478   2.225  11.405  1.8796  1.1208 -2.1896
10307TIP3    H252337   4.379   2.225  11.291  1.2263  0.9988 -1.6271
10308TIP3   OH252338   3.141   2.390  11.790 -0.3526  0.2006 -0.2036
10308TIP3    H152339   3.122   2.338  11.868  2.1245  3.0278  2.4198
10308TIP3    H252340   3.232   2.370  11.769 -0.8251 -0.1018 -2.0590
10309TIP3   OH252341   6.475   3.572  13.408 -0.4764 -0.3012 -0.2698
10309TIP3    H152342   6.519   3.523  13.338  1.8848  0.5541  0.5636
10309TIP3    H252343   6.545   3.593  13.470 -1.7806  2.4375  0.3478
10310TIP3   OH252344   1.422   4.899  16.172 -0.1249  0.2556 -0.3606
10310TIP3    H152345   1.506   4.861  16.199 -0.4727  0.2927  0.7853
10310TIP3    H252346   1.428   4.991  16.197 -0.7984  0.0937  0.4297
10311TIP3   OH252347   6.577   6.682   2.207 -0.1119  0.1609 -0.3456
10311TIP3    H152348   6.651   6.695   2.149  1.2135 -1.4114  0.9462
10311TIP3    H252349   6.546   6.593   2.187 -0.0155 -0.1647  0.8946
10312TIP3   OH252350   5.215   3.868   4.918  0.9114 -0.1972 -0.0281
10312TIP3    H152351   5.242   3.950   4.960  1.0331 -0.9750  1.4315
10312TIP3    H252352   5.280   3.804   4.945  0.5994 -0.8720 -0.8509
10313TIP3   OH252353   3.320   5.903   5.330  0.3469 -0.2058 -0.0338
10313TIP3    H152354   3.296   5.815   5.361  1.5318 -0.0073  1.4636
10313TIP3    H252355   3.402   5.923   5.375 -0.1830  1.8843  0.0235
10314TIP3   OH252356   4.009   2.668  12.903  0.3251 -0.1087 -0.0984
10314TIP3    H152357   4.093   2.634  12.873  0.5997  0.5367 -0.0709
10314TIP3    H252358   3.963   2.592  12.937  1.4433 -0.2407  1.1489
10315TIP3   OH252359   2.129   4.848  14.633 -0.1617  0.1684 -0.0719
10315TIP3    H152360   2.095   4.930  14.597  0.4621  0.1755 -0.6577
10315TIP3    H252361   2.072   4.830  14.709 -1.3654  0.2543 -0.9342
10316TIP3   OH252362   1.264   4.900   1.028 -0.4111  0.0033  0.2780
10316TIP3    H152363   1.313   4.911   0.947 -0.0462 -1.1270  0.3279
10316TIP3    H252364   1.330   4.902   1.097 -0.6446  0.2984  0.4964
10317TIP3   OH252365   3.617   1.124   0.944 -0.3588  0.2315 -0.5825
10317TIP3    H152366   3.582   1.212   0.936 -0.0759  0.4107  0.0979
10317TIP3    H252367   3.558   1.080   1.005  1.0811  0.8131  1.2985
10318TIP3   OH252368   6.582   2.779  14.761 -0.6866 -0.6245 -0.0286
10318TIP3    H152369   6.494   2.813  14.743 -1.1542 -1.3156  0.8695
10318TIP3    H252370   6.579   2.753  14.854  0.0028 -2.0340 -0.3822
10319TIP3   OH252371   2.152   3.426  11.158 -0.3169 -0.1147  0.1887
10319TIP3    H152372   2.204   3.346  11.147 -1.8659 -1.2299  0.8768
10319TIP3    H252373   2.114   3.441  11.071  1.3459  0.8670 -0.3955
10320TIP3   OH252374   4.986   2.347  14.879  0.0399 -0.1619 -0.0330
10320TIP3    H152375   4.973   2.330  14.785  0.7487  1.0258 -0.3667
10320TIP3    H252376   5.023   2.435  14.881 -0.6304  0.0957  1.4168
10321TIP3   OH252377   4.334   1.841  16.189  0.5663  0.3180 -0.1359
10321TIP3    H152378   4.317   1.786  16.112 -0.6841  0.3648  0.0891
10321TIP3    H252379   4.384   1.785  16.248 -0.5672 -0.5484  0.0248
10322TIP3   OH252380   5.991   1.254  15.715  0.1228  0.1288  0.0938
10322TIP3    H152381   6.002   1.180  15.775 -1.4158 -0.1493  0.0534
10322TIP3    H252382   5.986   1.214  15.629  1.0240  0.4277 -0.1005
10323TIP3   OH252383   3.562   6.337  13.389 -0.3883  0.0448 -0.1283
10323TIP3    H152384   3.600   6.405  13.444 -0.2870  0.0246 -0.1716
10323TIP3    H252385   3.618   6.261  13.404  0.3781  0.3798 -1.1703
10324TIP3   OH252386   1.570   6.143  15.119 -0.6140 -0.4808 -0.2590
10324TIP3    H152387   1.644   6.082  15.125 -0.5537 -0.3948 -0.1214
10324TIP3    H252388   1.508   6.100  15.061  1.4895  1.5042 -4.1370
10325TIP3   OH252389   6.514   0.342  12.258  0.1239  0.3181 -0.1368
10325TIP3    H152390   6.588   0.338  12.197  1.4280 -0.0056  1.4578
10325TIP3    H252391   6.486   0.434  12.257  0.1438  0.3201 -1.1964
10326TIP3   OH252392   1.677   3.407   3.664  0.0860 -0.0894  0.0044
10326TIP3    H152393   1.677   3.330   3.720 -0.4886  0.8927  1.3818
10326TIP3    H252394   1.606   3.392   3.602 -1.5681  0.3850  1.7594
10327TIP3   OH252395   4.291   0.547   2.040  0.1259 -0.2721 -0.2782
10327TIP3    H152396   4.308   0.509   1.954  2.1605 -1.6553  0.7004
10327TIP3    H252397   4.226   0.489   2.080 -2.1512  1.3297 -1.4704
10328TIP3   OH252398   2.853   6.253   5.371 -0.0950 -0.2817  0.9589
10328TIP3    H152399   2.913   6.204   5.428  0.0944 -0.0933  0.9248
10328TIP3    H252400   2.806   6.185   5.322 -0.5812 -0.4594  1.6582
10329TIP3   OH252401   0.938   2.599   3.531  0.4020  0.1777 -0.2371
10329TIP3    H152402   0.889   2.576   3.453  1.1833 -0.0794 -0.6519
10329TIP3    H252403   0.879   2.656   3.581 -0.8033 -1.1583 -0.1121
10330TIP3   OH252404   6.284   5.386  15.236  0.1019 -1.2750 -0.3019
10330TIP3    H152405   6.339   5.309  15.217 -0.8220 -2.2959  1.0739
10330TIP3    H252406   6.198   5.363  15.201  0.5411  0.3457 -2.4984
10331TIP3   OH252407   5.750   1.918  13.045  0.1413 -0.3115 -0.2311
10331TIP3    H152408   5.664   1.879  13.061  0.6054 -0.4903  2.0306
10331TIP3    H252409   5.812   1.846  13.054  0.6048 -0.0054 -0.9296
10332TIP3   OH252410   1.538   2.991  16.947  0.2984 -0.1387 -0.9668
10332TIP3    H152411   1.502   3.063  16.896  1.2924  0.3761 -0.9512
10332TIP3    H252412   1.509   3.007  17.036  0.1049 -0.0319 -1.0474
10333TIP3   OH252413   0.071   5.561  17.022  0.1441 -0.3198  0.5429
10333TIP3    H152414   0.103   5.578  16.934 -0.7382  1.2092  0.5132
10333TIP3    H252415   0.134   5.605  17.080 -0.8517  1.1168  0.5538
10334TIP3   OH252416   3.406   2.486   4.355 -0.1524 -0.2789  0.6522
10334TIP3    H152417   3.424   2.415   4.417 -0.5267  0.4193  1.5681
10334TIP3    H252418   3.481   2.484   4.295  0.4896 -0.6045  1.4556
10335TIP3   OH252419   0.540   3.562  13.216 -0.3463 -0.2040  0.1653
10335TIP3    H152420   0.508   3.580  13.128  0.9071 -0.7639 -0.4141
10335TIP3    H252421   0.461   3.544  13.267 -1.0245 -0.6791 -1.0318
10336TIP3   OH252422   6.173   2.678   3.554 -0.9626 -0.0577  0.1017
10336TIP3    H152423   6.158   2.664   3.461 -1.3182  0.9035  0.0011
10336TIP3    H252424   6.098   2.729   3.583 -0.6783 -0.0420  0.8393
10337TIP3   OH252425   4.767   4.472  11.864  0.8423 -0.1095 -0.0992
10337TIP3    H152426   4.711   4.396  11.877 -0.2014  0.5201 -0.8878
10337TIP3    H252427   4.812   4.454  11.781  0.3833  0.2547 -0.4308
10338TIP3   OH252428   6.231   0.208  14.050  0.0950  0.1106  0.4538
10338TIP3    H152429   6.143   0.244  14.060  0.4717  1.0534  0.4662
10338TIP3    H252430   6.277   0.234  14.129  0.2881 -0.6730  0.6039
10339TIP3   OH252431   4.918   2.548   0.683  0.1631 -0.0148  0.1050
10339TIP3    H152432   4.823   2.547   0.674  0.2163 -2.1835 -0.5616
10339TIP3    H252433   4.934   2.539   0.777 -0.2845  1.6971  0.3575
10340TIP3   OH252434   2.109   5.921   4.724 -0.3456 -0.1861  0.4629
10340TIP3    H152435   2.098   6.000   4.670 -2.1897 -0.1742  0.8234
10340TIP3    H252436   2.146   5.954   4.806 -3.1964  0.6403  1.4546
10341TIP3   OH252437   2.601   5.846  11.072  0.9058 -0.0398  0.4818
10341TIP3    H152438   2.585   5.924  11.019 -0.3120  0.2855  1.3124
10341TIP3    H252439   2.678   5.868  11.125  1.5054  0.0133 -0.4085
10342TIP3   OH252440   0.775   4.805   5.104 -0.0456 -0.3400 -0.0951
10342TIP3    H152441   0.709   4.767   5.162 -1.5341  0.6264 -1.1190
10342TIP3    H252442   0.852   4.817   5.160 -0.7103 -1.5367  1.1049
10343TIP3   OH252443   4.690   1.902  16.240  1.0527 -0.3464  0.0453
10343TIP3    H152444   4.730   1.976  16.286  0.6759  0.8011 -1.4433
10343TIP3    H252445   4.760   1.866  16.186  1.1373 -0.8712  0.4955
10344TIP3   OH252446   5.103   1.327   3.432 -0.3190 -0.2185  0.3997
10344TIP3    H152447   5.141   1.274   3.361  1.6088  2.3510 -0.5699
10344TIP3    H252448   5.021   1.360   3.396 -0.4945 -0.8123  0.2395
10345TIP3   OH252449   5.475   3.292   5.583 -0.2582  0.8403 -0.1940
10345TIP3    H152450   5.489   3.382   5.614  0.5786 -0.1274  2.3514
10345TIP3    H252451   5.525   3.238   5.644 -2.6008 -1.5410 -0.3114
10346TIP3   OH252452   3.957   2.588  15.071 -0.2240  0.0316  0.1059
10346TIP3    H152453   3.957   2.496  15.048 -1.5329 -0.0273  0.2580
10346TIP3    H252454   3.990   2.591  15.161 -0.0609 -0.2747  0.0540
10347TIP3   OH252455   2.384   5.623   6.256 -0.6428  0.1335 -0.5081
10347TIP3    H152456   2.340   5.691   6.204 -2.1494 -0.6125 -0.2536
10347TIP3    H252457   2.367   5.648   6.347 -1.0626 -0.4873 -0.4124
10348TIP3   OH252458   5.609   1.580  14.577  0.0047 -0.6418 -0.2727
10348TIP3    H152459   5.627   1.491  14.544  0.9567 -0.0414 -1.4257
10348TIP3    H252460   5.692   1.626  14.566 -0.0491 -0.0338  1.7569
10349TIP3   OH252461   0.116   3.643   2.169  0.3360  0.4550 -0.0820
10349TIP3    H152462   0.041   3.644   2.230 -2.1923  2.1790 -3.0819
10349TIP3    H252463   0.155   3.730   2.179 -0.6370  1.0703 -1.5364
10350TIP3   OH252464   5.685   0.095  13.018  0.5331 -0.8083 -0.1491
10350TIP3    H152465   5.741   0.075  12.942  1.1534  0.6215 -0.0796
10350TIP3    H252466   5.747   0.114  13.089 -0.0287  1.0427 -0.1328
10351TIP3   OH252467   3.793   5.247  14.628 -0.1637 -0.1883  0.0360
10351TIP3    H152468   3.748   5.311  14.684  0.0595 -2.1030  2.4974
10351TIP3    H252469   3.725   5.183  14.606 -0.1301  0.2876 -1.5246
10352TIP3   OH252470   5.069   1.809   1.032  0.5394 -0.3996 -0.2115
10352TIP3    H152471   5.114   1.873   1.088  1.0862 -0.9419 -0.0290
10352TIP3    H252472   4.997   1.859   0.993  0.7706  0.2505  0.1732
10353TIP3   OH252473   5.304   6.261   5.287 -0.0191 -0.2757 -0.3050
10353TIP3    H152474   5.371   6.298   5.345 -0.9544 -0.4281  0.9118
10353TIP3    H252475   5.334   6.172   5.269  0.3167 -0.2077 -0.0914
10354TIP3   OH252476   3.138   6.566   0.174 -0.2456 -0.0729 -0.1299
10354TIP3    H152477   3.076   6.595   0.241  0.3228  1.2299 -0.1522
10354TIP3    H252478   3.099   6.487   0.138 -0.6572 -0.6951  1.6143
10355TIP3   OH252479   0.358   0.097   4.824  0.2683  0.1929 -0.7991
10355TIP3    H152480   0.331   0.044   4.898  0.3502  1.6954  0.3226
10355TIP3    H252481   0.418   0.040   4.774 -0.5965 -1.1761 -0.3004
10356TIP3   OH252482   6.781   1.379   3.913  0.1560  0.1344 -0.2630
10356TIP3    H152483   6.686   1.371   3.923  0.2121  0.7972  0.9204
10356TIP3    H252484   6.798   1.472   3.924  1.2279 -0.3250  2.0802
10357TIP3   OH252485   1.743   6.492  14.381 -0.4751  0.0975  0.0824
10357TIP3    H152486   1.651   6.494  14.408 -0.1204 -1.8039  1.5251
10357TIP3    H252487   1.789   6.458  14.458  1.1402 -1.2940 -1.4816
10358TIP3   OH252488   4.901   1.226  14.108 -0.2308 -0.0933  0.7549
10358TIP3    H152489   4.919   1.137  14.139 -3.3576 -0.6600  1.0224
10358TIP3    H252490   4.818   1.250  14.149  0.9345  3.2668  1.2710
10359TIP3   OH252491   3.004   6.503   1.465 -0.7319 -0.2013 -0.0990
10359TIP3    H152492   2.952   6.553   1.527 -0.8925 -1.6219  0.9428
10359TIP3    H252493   3.028   6.423   1.513  0.9470 -0.3452 -1.1342
10360TIP3   OH252494   1.735   0.645  11.447  0.1835  0.2290  0.4803
10360TIP3    H152495   1.681   0.606  11.516 -0.8072  0.5286 -0.1121
10360TIP3    H252496   1.816   0.594  11.448 -0.1073 -0.2264  1.3833
10361TIP3   OH252497   2.110   2.416  10.979  0.1645  0.1624 -0.5277
10361TIP3    H152498   2.045   2.477  11.014 -0.8558 -0.1860 -1.7723
10361TIP3    H252499   2.189   2.469  10.969  0.1070  0.5722  1.0536
10362TIP3   OH252500   4.911   1.393  16.016  0.7311  0.2193  0.2771
10362TIP3    H152501   4.907   1.310  16.063  0.9672 -0.3892 -0.7616
10362TIP3    H252502   4.875   1.458  16.077  1.0898 -0.5477  1.3047
10363TIP3   OH252503   6.456   1.262  13.731 -0.1988  0.1031 -0.7591
10363TIP3    H152504   6.502   1.328  13.783  0.0697 -0.9199  0.3039
10363TIP3    H252505   6.507   1.182  13.742 -0.2030 -0.1586 -2.5059
10364TIP3   OH252506   3.176   1.188   1.210 -0.8229 -0.2930 -0.2438
10364TIP3    H152507   3.159   1.281   1.220 -0.8599 -0.3234 -0.0094
10364TIP3    H252508   3.111   1.145   1.266  0.6958 -0.3717  1.5198
10365TIP3   OH252509   6.397   5.447  15.556  0.1197 -0.4247  0.1055
10365TIP3    H152510   6.491   5.432  15.550 -0.2820 -2.8147 -0.8549
10365TIP3    H252511   6.359   5.359  15.566 -1.9906  0.5066  0.6106
10366TIP3   OH252512   3.016   2.415   3.824  0.0022  0.2414 -0.2865
10366TIP3    H152513   3.100   2.372   3.841  0.6563  1.2836 -0.8153
10366TIP3    H252514   2.964   2.399   3.903  0.7739 -0.2257  0.1288
10367TIP3   OH252515   3.897   6.692   0.742 -0.3019  0.2236  0.0059
10367TIP3    H152516   3.982   6.655   0.720 -0.8286 -0.8908 -0.2193
10367TIP3    H252517   3.889   6.770   0.687  0.4881  0.2173 -0.1157
10368TIP3   OH252518   4.543   5.106   3.310  0.4208  0.0453 -0.3370
10368TIP3    H152519   4.576   5.049   3.380  1.4788 -0.1828 -1.0190
10368TIP3    H252520   4.502   5.047   3.248 -1.9086  0.3793  0.8154
10369TIP3   OH252521   1.249   2.469  16.703 -0.0861  0.4033 -0.6057
10369TIP3    H152522   1.223   2.556  16.734  0.2427  0.4317 -0.4018
10369TIP3    H252523   1.198   2.409  16.758 -0.2363  0.4684 -0.6745
10370TIP3   OH252524   1.214   1.243  16.284 -0.1882 -0.1929 -0.2833
10370TIP3    H152525   1.253   1.173  16.336 -0.1670 -0.1494 -0.2416
10370TIP3    H252526   1.123   1.217  16.273 -0.0869 -0.4255 -0.6028
10371TIP3   OH252527   5.340   2.345  16.827  0.4059 -0.4563 -0.3082
10371TIP3    H152528   5.357   2.413  16.761  1.3339  0.4508  0.8348
10371TIP3    H252529   5.343   2.392  16.911 -3.0096 -1.1729  0.2761
10372TIP3   OH252530   3.210   2.033   1.911 -0.1931  0.3334 -0.1189
10372TIP3    H152531   3.241   2.006   1.998 -0.3030  0.2418 -0.1080
10372TIP3    H252532   3.117   2.010   1.911 -0.2038  0.3781 -0.2434
10373TIP3   OH252533   4.033   3.512   2.947 -0.2011 -0.0895 -0.0171
10373TIP3    H152534   3.975   3.444   2.982 -0.5565 -0.1354 -0.6910
10373TIP3    H252535   3.973   3.580   2.915  0.1433  0.3259  0.2035
10374TIP3   OH252536   5.756   0.393   0.298  0.1492 -0.0623  0.3355
10374TIP3    H152537   5.808   0.326   0.342  1.1539  1.5776  1.7140
10374TIP3    H252538   5.741   0.359   0.210  2.9717 -0.8626  0.1466
10375TIP3   OH252539   0.030   5.313  16.954 -0.5659 -0.3583 -0.1656
10375TIP3    H152540   0.023   5.406  16.975 -0.5207 -0.2045 -0.8014
10375TIP3    H252541   0.093   5.310  16.881  0.7820 -1.0640  1.0147
10376TIP3   OH252542   2.146   1.569  16.723 -0.1113  0.1366  0.5848
10376TIP3    H152543   2.095   1.505  16.673  1.7139 -0.5060 -0.5249
10376TIP3    H252544   2.210   1.516  16.770 -0.7195  0.8954  2.2922
10377TIP3   OH252545   0.689   2.467  11.671 -0.1723  0.0627 -0.0785
10377TIP3    H152546   0.733   2.513  11.600 -1.5034 -1.0603 -1.6583
10377TIP3    H252547   0.616   2.523  11.695 -0.0678  0.1589  0.0175
10378TIP3   OH252548   3.710   6.321   0.139 -0.3181  0.0606  0.3947
10378TIP3    H152549   3.721   6.253   0.205  0.9668  0.2039  0.3494
10378TIP3    H252550   3.767   6.392   0.168  1.4610 -0.4585 -1.6142
10379TIP3   OH252551   5.994   0.479   2.757  0.3085  0.4203 -0.3736
10379TIP3    H152552   6.018   0.452   2.845  1.2754 -0.2971 -0.8465
10379TIP3    H252553   5.928   0.416   2.730 -0.7303  1.2448  0.2074
10380TIP3   OH252554   1.211   4.592   0.521  0.2374 -0.5994  0.4462
10380TIP3    H152555   1.273   4.664   0.528  0.6052 -0.9531  0.8304
10380TIP3    H252556   1.125   4.633   0.525  0.4417 -0.3237  2.1083
10381TIP3   OH252557   2.555   1.981   2.651  0.7518  0.1655 -0.9533
10381TIP3    H152558   2.540   2.073   2.631 -2.2679  0.2130  1.2365
10381TIP3    H252559   2.485   1.934   2.605 -0.2468 -0.6167  1.2850
10382TIP3   OH252560   5.122   3.244  11.933  0.7112  0.1148 -0.6513
10382TIP3    H152561   5.053   3.295  11.892 -0.8612 -1.6245 -0.2070
10382TIP3    H252562   5.166   3.200  11.861 -0.8866 -1.5139 -0.6414
10383TIP3   OH252563   4.377   0.717  13.830  0.4060  0.1383  0.7028
10383TIP3    H152564   4.342   0.647  13.774 -0.1047  1.0221 -0.0814
10383TIP3    H252565   4.303   0.774  13.846  0.9564  0.7975  0.9056
10384TIP3   OH252566   0.334   6.256  14.667 -0.5548  0.0597  0.5810
10384TIP3    H152567   0.387   6.288  14.740 -0.1935  0.5635  0.1019
10384TIP3    H252568   0.300   6.335  14.625 -0.2459 -0.1987 -0.1724
10385TIP3   OH252569   1.259   4.379  12.708  0.0744 -0.1005  0.3767
10385TIP3    H152570   1.185   4.322  12.686  1.2298 -1.3310 -0.3689
10385TIP3    H252571   1.250   4.396  12.802 -0.3502 -1.4229  0.5834
10386TIP3   OH252572   5.490   3.567   3.383 -0.2513 -0.4118 -0.4104
10386TIP3    H152573   5.555   3.634   3.404 -0.7579 -0.0743  0.1116
10386TIP3    H252574   5.431   3.566   3.458 -1.4293 -0.0063 -1.3125
10387TIP3   OH252575   3.907   1.781  10.827 -0.0830  0.2788 -0.1737
10387TIP3    H152576   3.892   1.825  10.743 -1.2077  0.2145 -0.0196
10387TIP3    H252577   3.820   1.775  10.867  0.3851 -0.0274  0.8333
10388TIP3   OH252578   6.504   2.095  11.960 -0.6171  0.2890  0.1997
10388TIP3    H152579   6.534   2.117  12.048 -0.9715 -0.5463  0.5375
10388TIP3    H252580   6.410   2.113  11.962 -0.3599  1.7322 -0.4822
10389TIP3   OH252581   2.190   0.932   1.622  0.3766 -0.0271  0.3569
10389TIP3    H152582   2.285   0.942   1.615  0.3409 -1.0545 -2.1524
10389TIP3    H252583   2.178   0.844   1.659  0.4077 -0.9516 -1.7570
10390TIP3   OH252584   4.710   1.435  12.099 -0.2845  0.0039  0.2242
10390TIP3    H152585   4.621   1.445  12.064 -0.6091 -0.1662  0.9917
10390TIP3    H252586   4.700   1.375  12.173  0.3367  0.6857  0.8641
10391TIP3   OH252587   3.591   5.199   2.936  0.4037 -0.4992  0.0504
10391TIP3    H152588   3.621   5.264   2.999  0.1994 -0.4529  0.0995
10391TIP3    H252589   3.554   5.129   2.989 -2.8353  1.0311 -0.0858
10392TIP3   OH252590   2.208   1.425  15.129  0.8003 -0.3221 -0.1051
10392TIP3    H152591   2.297   1.392  15.136  0.6059 -0.7870  0.2653
10392TIP3    H252592   2.217   1.520  15.122  1.3395 -0.4076 -0.5008
10393TIP3   OH252593   2.459   1.344  15.002  0.3853 -0.2262 -0.7647
10393TIP3    H152594   2.542   1.312  15.038 -0.0446 -0.2165  0.2434
10393TIP3    H252595   2.485   1.403  14.931  1.3150  1.4488  0.9237
10394TIP3   OH252596   1.789   5.438  11.860  0.5114 -0.4805 -0.1936
10394TIP3    H152597   1.760   5.444  11.951  1.5274 -1.3907  0.2069
10394TIP3    H252598   1.877   5.477  11.861  1.4187 -2.4511 -0.3272
10395TIP3   OH252599   2.025   3.761  10.567 -0.3365  0.6790  0.0712
10395TIP3    H152600   2.090   3.730  10.504 -0.7027  1.1577 -0.5531
10395TIP3    H252601   2.021   3.856  10.552  1.6620  1.2858  2.7627
10396TIP3   OH252602   6.281   1.242   3.859 -0.0810 -1.1542 -0.0475
10396TIP3    H152603   6.374   1.263   3.854 -0.9904  3.2679 -0.4908
10396TIP3    H252604   6.264   1.232   3.953 -0.0025  2.8973  0.5082
10397TIP3   OH252605   4.835   4.336  15.773  0.3767  0.5311  0.6547
10397TIP3    H152606   4.929   4.348  15.778  0.2821  1.5397  0.1873
10397TIP3    H252607   4.808   4.316  15.862  0.9453  0.8941  0.9090
10398TIP3   OH252608   1.466   0.186  16.765 -0.2806 -0.3688 -0.6853
10398TIP3    H152609   1.529   0.138  16.819 -0.7203  0.9947  1.0860
10398TIP3    H252610   1.381   0.166  16.805 -0.3536  2.9056  0.9309
10399TIP3   OH252611   3.562   1.205  13.309 -0.1697  0.4761 -0.3852
10399TIP3    H152612   3.616   1.261  13.364 -2.4869  0.8658  1.5806
10399TIP3    H252613   3.590   1.116  13.331  0.4128  0.7054 -0.1911
10400TIP3   OH252614   1.189   0.753  11.039  0.4057  0.6284 -0.4964
10400TIP3    H152615   1.111   0.718  10.996 -0.7527  2.1535  0.3323
10400TIP3    H252616   1.257   0.687  11.022 -1.3883 -1.4029 -0.0190
10401TIP3   OH252617   4.073   4.644  15.828  0.4011  0.1678 -0.7954
10401TIP3    H152618   4.140   4.707  15.802 -1.2253  1.3421 -2.3635
10401TIP3    H252619   4.053   4.665  15.919  0.5831  1.2965 -1.0060
10402TIP3   OH252620   5.783   6.623  12.142 -0.1722 -0.2891  0.2008
10402TIP3    H152621   5.835   6.696  12.109  0.9759 -1.3415 -0.3815
10402TIP3    H252622   5.757   6.649  12.230  0.8748  0.5027  0.2801
10403TIP3   OH252623   5.383   0.394  13.940  0.0379  0.1952 -0.0167
10403TIP3    H152624   5.459   0.396  13.881  1.4012 -0.6322  1.6631
10403TIP3    H252625   5.420   0.413  14.026 -1.6683 -0.3032  0.8361
10404TIP3   OH252626   6.152   3.803   0.632 -0.1986 -0.1670  0.2545
10404TIP3    H152627   6.071   3.849   0.655 -0.0461 -0.2990  1.0477
10404TIP3    H252628   6.146   3.791   0.537 -0.3715  1.2361  0.0645
10405TIP3   OH252629   1.818   3.616   4.564  0.4927 -0.1753  0.4100
10405TIP3    H152630   1.865   3.546   4.517 -0.9150 -0.5420 -0.4690
10405TIP3    H252631   1.834   3.694   4.511 -1.5101 -0.6841 -1.0025
10406TIP3   OH252632   6.303   3.809  14.480  0.5259 -0.3105  0.2649
10406TIP3    H152633   6.380   3.760  14.509  1.4516  2.8629  3.4355
10406TIP3    H252634   6.244   3.806  14.555 -1.1283  0.0313 -1.0019
10407TIP3   OH252635   3.412   3.901   2.080 -0.0121 -0.2231 -0.3084
10407TIP3    H152636   3.343   3.952   2.122 -0.3781 -1.5593  0.7720
10407TIP3    H252637   3.372   3.868   2.000 -0.1385  0.2458 -0.4399
10408TIP3   OH252638   4.094   1.309   4.666  0.6745 -0.3466 -0.5235
10408TIP3    H152639   4.079   1.266   4.750 -1.8204  0.7396 -0.3835
10408TIP3    H252640   4.185   1.336   4.670  0.9923 -1.5396  1.2501
10409TIP3   OH252641   1.985   1.782   2.623  0.1099 -0.4433  0.2000
10409TIP3    H152642   2.021   1.867   2.601 -2.7070  0.8755  0.4251
10409TIP3    H252643   1.956   1.791   2.714 -1.1320 -1.3088 -0.0940
10410TIP3   OH252644   3.758   6.093  14.139  0.4201  0.2015 -0.1011
10410TIP3    H152645   3.714   6.165  14.186  0.4453  0.3883 -0.3599
10410TIP3    H252646   3.850   6.118  14.137  0.6885 -0.6680  1.3022
10411TIP3   OH252647   6.386   0.321  16.146  0.3178 -0.0128  0.4094
10411TIP3    H152648   6.395   0.392  16.082  1.5406 -0.6255 -0.1186
10411TIP3    H252649   6.458   0.262  16.125 -0.6921 -1.4027  0.8502
10412TIP3   OH252650   0.008   4.584   5.622 -0.2103 -0.0204 -0.1176
10412TIP3    H152651   0.023   4.491   5.609 -2.8433 -0.6098  0.8059
10412TIP3    H252652   0.021   4.623   5.535  1.4769 -1.1371 -0.3787
10413TIP3   OH252653   0.240   4.290  14.517  0.9739  0.3788  0.0747
10413TIP3    H152654   0.251   4.263  14.426 -2.5397 -2.4203  0.3336
10413TIP3    H252655   0.196   4.375  14.512  0.0512 -0.1381 -0.8697
10414TIP3   OH252656   6.326   4.227  16.262 -0.0142 -0.0188 -0.5421
10414TIP3    H152657   6.238   4.261  16.247  0.5061  0.6668 -2.0169
10414TIP3    H252658   6.362   4.283  16.331 -1.0981 -0.9637  0.8279
10415TIP3   OH252659   4.201   5.871  16.671 -0.3382 -0.0137 -0.8045
10415TIP3    H152660   4.291   5.841  16.686  0.1485  2.3652  1.2435
10415TIP3    H252661   4.210   5.963  16.647 -2.2493  0.3154 -0.3459
10416TIP3   OH252662   1.916   4.599  13.951  0.1750  0.3323 -0.1310
10416TIP3    H152663   1.847   4.604  14.018  1.5868  2.2211  1.2240
10416TIP3    H252664   1.887   4.660  13.883  1.3023  2.4748  1.2448
10417TIP3   OH252665   2.497   0.501  11.383 -0.0254 -0.3911 -0.7793
10417TIP3    H152666   2.446   0.537  11.455 -0.6967  0.6282 -1.7342
10417TIP3    H252667   2.588   0.512  11.409 -0.2754 -1.7299  0.7103
10418TIP3   OH252668   0.103   1.660  13.725 -0.4469 -0.0569 -0.2110
10418TIP3    H152669   0.019   1.690  13.758 -0.5276 -0.6020  0.0829
10418TIP3    H252670   0.110   1.699  13.638 -0.7958  0.3580 -0.0552
10419TIP3   OH252671   1.478   3.487  15.850  0.1706 -0.0232  0.5170
10419TIP3    H152672   1.491   3.442  15.933 -1.4886 -0.3694  0.6179
10419TIP3    H252673   1.426   3.426  15.797  0.3456  0.6028 -0.3949
10420TIP3   OH252674   0.240   5.921   0.059  0.3292  0.2158 -1.0244
10420TIP3    H152675   0.240   5.825   0.051 -1.0593  0.1351 -0.2726
10420TIP3    H252676   0.228   5.953  -0.030 -3.2069 -0.4197 -0.8530
10421TIP3   OH252677   0.491   1.528  13.860 -0.0939  0.2865  0.0335
10421TIP3    H152678   0.458   1.525  13.949  1.2126  0.8400  0.5426
10421TIP3    H252679   0.517   1.437  13.841  2.7734  0.7627  1.4411
10422TIP3   OH252680   5.745   6.165   2.951 -0.0208 -0.7522 -0.2006
10422TIP3    H152681   5.700   6.103   3.009 -0.0308 -0.3869  0.1792
10422TIP3    H252682   5.762   6.242   3.005  1.4206 -1.0292 -0.2278
10423TIP3   OH252683   4.665   1.407  15.869 -0.4475  0.7052  0.2339
10423TIP3    H152684   4.755   1.374  15.874  0.6342  3.6946  1.2565
10423TIP3    H252685   4.622   1.372  15.947 -0.3606 -1.1141 -0.4922
10424TIP3   OH252686   4.996   3.367   2.894  0.3947  0.0903  0.3906
10424TIP3    H152687   5.053   3.435   2.858  0.0839  0.7404  1.1168
10424TIP3    H252688   5.007   3.374   2.989  1.6278 -1.9683  0.4355
10425TIP3   OH252689   2.559   5.625   1.245  0.2866  0.3475 -0.0166
10425TIP3    H152690   2.571   5.597   1.336  1.2420  2.3987  0.5349
10425TIP3    H252691   2.522   5.713   1.252 -1.2336 -0.1497 -1.6422
10426TIP3   OH252692   5.959   0.530  12.739  1.1561  0.0446  0.2359
10426TIP3    H152693   5.980   0.613  12.783  0.9317 -0.1491  0.7135
10426TIP3    H252694   5.865   0.520  12.752  1.4508 -1.0924  1.5742
10427TIP3   OH252695   1.728   0.249   6.493 -0.2248  0.0589  0.0875
10427TIP3    H152696   1.801   0.188   6.505  0.3777 -0.9203 -6.3234
10427TIP3    H252697   1.770   0.333   6.476 -0.7069  0.3175  0.1808
10428TIP3   OH252698   5.985   0.941  13.663 -0.3407  0.1520  0.5786
10428TIP3    H152699   6.025   0.861  13.631 -0.3836  0.7850 -1.1099
10428TIP3    H252700   6.057   1.004  13.670 -0.6621  0.6319 -0.3111
10429TIP3   OH252701   3.640   5.452   1.026 -0.0704 -0.2496 -0.4909
10429TIP3    H152702   3.639   5.529   0.970  0.5590 -0.1313 -0.3464
10429TIP3    H252703   3.662   5.485   1.113  1.9770 -0.7858 -0.7646
10430TIP3   OH252704   3.113   2.834  14.263  0.0564  0.6727 -0.3030
10430TIP3    H152705   3.178   2.888  14.309  1.9189 -0.8784 -1.0037
10430TIP3    H252706   3.082   2.890  14.192  1.5328  1.0703 -0.6719
10431TIP3   OH252707   4.383   0.160   0.117  0.2349 -0.4050 -0.0549
10431TIP3    H152708   4.324   0.177   0.044 -1.2047 -1.0522  0.9428
10431TIP3    H252709   4.351   0.079   0.155  0.5749  0.2555  1.6751
10432TIP3   OH252710   5.379   2.990  11.179  0.2377  0.7195 -0.2777
10432TIP3    H152711   5.404   2.962  11.091  1.3608 -0.5228  0.4093
10432TIP3    H252712   5.317   2.924  11.208 -0.4415  1.3527 -0.2921
10433TIP3   OH252713   4.659   5.936   0.544  0.3950  0.0521 -0.2529
10433TIP3    H152714   4.621   5.969   0.626  0.3486  0.7174 -0.5464
10433TIP3    H252715   4.609   5.979   0.475 -0.6687 -1.7281 -0.6448
10434TIP3   OH252716   3.668   2.729   1.320  0.3095  0.4977 -0.6350
10434TIP3    H152717   3.691   2.775   1.401 -1.0226 -2.6196  1.6280
10434TIP3    H252718   3.572   2.726   1.321  0.3435 -1.6276 -1.0639
10435TIP3   OH252719   1.903   2.689   1.134  0.6352  0.3306 -0.3627
10435TIP3    H152720   1.916   2.599   1.106  0.2873  0.4957 -1.0726
10435TIP3    H252721   1.866   2.733   1.057 -0.2978  0.8036  0.3465
10436TIP3   OH252722   6.418   6.115  16.375  0.3318  0.3059 -0.6278
10436TIP3    H152723   6.358   6.112  16.300  1.5005 -2.3916 -1.5211
10436TIP3    H252724   6.504   6.130  16.336  0.7130  0.5456  0.3121
10437TIP3   OH252725   4.847   5.232  15.399 -0.0169 -0.3713 -0.4455
10437TIP3    H152726   4.867   5.223  15.492 -1.1316 -0.6314 -0.2239
10437TIP3    H252727   4.766   5.283  15.396  0.9343  1.1167 -1.3410
10438TIP3   OH252728   6.738   0.193  13.093  0.1626  0.2541  0.5365
10438TIP3    H152729   6.650   0.218  13.065  0.0200  1.9767  2.4740
10438TIP3    H252730   6.725   0.113  13.143 -0.0781 -0.4242 -0.5731
10439TIP3   OH252731   1.989   4.292   0.384  1.0737 -0.7682  0.0139
10439TIP3    H152732   1.898   4.308   0.359  1.5437 -2.2418 -2.8941
10439TIP3    H252733   2.025   4.379   0.399 -0.4018 -0.0632 -0.4147
10440TIP3   OH252734   3.934   6.099   1.513  0.1113  0.3912  0.1937
10440TIP3    H152735   3.897   6.149   1.440 -2.1590 -3.6297 -1.5799
10440TIP3    H252736   4.025   6.081   1.487  0.2361  1.6190 -0.2086
10441TIP3   OH252737   2.759   5.026  16.651  0.3122  0.0606  0.3285
10441TIP3    H152738   2.739   4.933  16.642 -0.4377  0.4454 -2.2937
10441TIP3    H252739   2.808   5.032  16.733  2.0561 -2.9418 -0.4073
10442TIP3   OH252740   3.341   5.954   4.444 -0.4553 -0.3827 -0.3177
10442TIP3    H152741   3.286   5.906   4.507 -1.0395  0.1941 -0.3785
10442TIP3    H252742   3.287   6.029   4.418  1.1438  1.3107  1.1547
10443TIP3   OH252743   6.464   3.424  12.463  0.6423  0.1011 -0.2073
10443TIP3    H152744   6.395   3.361  12.447  0.3376  0.3616  0.0683
10443TIP3    H252745   6.518   3.384  12.531  0.0013  0.4791  0.5278
10444TIP3   OH252746   6.738   0.608   2.117 -0.1810  0.0956  0.5407
10444TIP3    H152747   6.827   0.579   2.137  0.5453  3.2554  2.2262
10444TIP3    H252748   6.681   0.546   2.162  1.1397 -1.9587 -0.5653
10445TIP3   OH252749   3.761   0.401  15.359 -0.3456 -0.4415 -0.0680
10445TIP3    H152750   3.779   0.348  15.437  2.0117 -0.5520 -0.6433
10445TIP3    H252751   3.752   0.490  15.392  2.1016 -0.2664  0.1981
10446TIP3   OH252752   5.318   5.341  12.670 -0.1291 -0.5384  0.6239
10446TIP3    H152753   5.224   5.321  12.664  0.3907 -2.6129 -1.5141
10446TIP3    H252754   5.353   5.274  12.728  0.3175 -0.9070 -0.0631
10447TIP3   OH252755   5.800   2.039   3.492 -0.2107 -0.7194  0.3515
10447TIP3    H152756   5.754   1.977   3.435 -0.9029  0.5497 -0.4885
10447TIP3    H252757   5.743   2.116   3.496 -1.3437 -1.6628  4.6973
10448TIP3   OH252758   1.415   5.529  11.448 -0.3153  0.3424 -0.0386
10448TIP3    H152759   1.445   5.575  11.526 -0.4897  1.0094 -0.3588
10448TIP3    H252760   1.327   5.564  11.432 -0.4353 -0.0800 -0.3025
10449TIP3   OH252761   0.884   2.905  12.927  0.2314 -0.2472  0.7546
10449TIP3    H152762   0.884   2.944  13.015 -0.2763  1.1642  0.1367
10449TIP3    H252763   0.806   2.942  12.885  2.0031  1.2573 -1.2531
10450TIP3   OH252764   2.187   5.637  11.597 -0.1790 -0.0517  0.3103
10450TIP3    H152765   2.253   5.568  11.600 -0.3308 -0.1642  1.0450
10450TIP3    H252766   2.235   5.716  11.622  0.0839  0.1893 -0.9007
10451TIP3   OH252767   3.538   3.574  15.823 -0.0726 -0.7046 -0.0807
10451TIP3    H152768   3.557   3.660  15.786  3.7698 -1.1783  0.6485
10451TIP3    H252769   3.538   3.588  15.918 -3.7881 -0.7239  0.0094
10452TIP3   OH252770   4.587   5.334   2.936  0.1414  0.2944 -0.1547
10452TIP3    H152771   4.493   5.342   2.923  0.0243 -0.2793  0.2982
10452TIP3    H252772   4.601   5.241   2.954  1.0601  0.0090 -2.2503
10453TIP3   OH252773   2.757   4.882   1.268  0.3439 -0.2967 -0.6465
10453TIP3    H152774   2.846   4.904   1.295  0.5913 -1.8881 -0.1193
10453TIP3    H252775   2.717   4.966   1.245  1.0804  0.7853  1.8311
10454TIP3   OH252776   5.333   6.297   3.062 -0.3749 -0.3314  0.0427
10454TIP3    H152777   5.241   6.274   3.079 -0.9130  0.6859 -1.4244
10454TIP3    H252778   5.379   6.213   3.063 -1.1417 -0.7584  1.7720
10455TIP3   OH252779   3.069   3.937   5.880  0.0547  0.0735  0.0916
10455TIP3    H152780   3.132   3.934   5.952 -3.0092  0.1952  2.9149
10455TIP3    H252781   3.032   4.025   5.883 -0.6969 -0.1768 -1.1202
10456TIP3   OH252782   5.064   4.584  15.342 -0.4971  0.0846  0.1492
10456TIP3    H152783   5.084   4.493  15.360 -1.2859 -0.6896 -2.6017
10456TIP3    H252784   5.142   4.632  15.369  1.2444 -1.7721 -1.4286
10457TIP3   OH252785   4.664   4.433  16.595 -0.5857 -0.0383  0.3936
10457TIP3    H152786   4.702   4.514  16.560  0.3470 -0.7027 -0.1525
10457TIP3    H252787   4.683   4.436  16.689  1.5977 -0.7355  0.0202
10458TIP3   OH252788   2.730   4.225  17.083 -0.5573 -0.3996 -0.3732
10458TIP3    H152789   2.698   4.195  17.169 -2.6002  0.9174 -0.6272
10458TIP3    H252790   2.732   4.321  17.091  0.7743 -0.3545 -1.2781
10459TIP3   OH252791   3.449   5.269   0.308  0.5320 -0.0531  0.2110
10459TIP3    H152792   3.409   5.213   0.241  0.7873 -0.6860  0.5885
10459TIP3    H252793   3.377   5.290   0.367  0.7925 -1.3741  1.0143
10460TIP3   OH252794   4.343   2.282   0.364  0.2763  0.2085 -0.0226
10460TIP3    H152795   4.349   2.348   0.295 -2.0082 -0.8756 -1.3432
10460TIP3    H252796   4.334   2.199   0.316 -1.3669 -0.5671  1.5887
10461TIP3   OH252797   1.794   0.804  11.818  0.3708  0.5403 -0.4004
10461TIP3    H152798   1.807   0.716  11.783 -1.8892  0.1380 -0.2699
10461TIP3    H252799   1.808   0.794  11.912  0.2128  0.3568 -0.3973
10462TIP3   OH252800   5.413   2.384   1.658 -0.6436  0.3622  0.1257
10462TIP3    H152801   5.450   2.395   1.571  0.0994 -0.5338  0.3243
10462TIP3    H252802   5.318   2.387   1.644 -0.5282  1.2401 -0.5656
10463TIP3   OH252803   5.532   6.542  12.085 -0.0795 -0.4171 -0.1671
10463TIP3    H152804   5.492   6.476  12.141  0.9706 -1.8319 -1.0448
10463TIP3    H252805   5.604   6.578  12.137 -0.4460 -0.1996  0.1887
10464TIP3   OH252806   3.735   4.250   0.661 -0.0972 -0.6559 -0.1460
10464TIP3    H152807   3.718   4.285   0.573 -0.4049 -3.8342 -1.4304
10464TIP3    H252808   3.809   4.300   0.693 -0.0858  0.6788 -2.1601
10465TIP3   OH252809   0.149   6.535  11.722 -0.3154 -0.2647 -0.1188
10465TIP3    H152810   0.142   6.619  11.677 -1.9177 -0.1410  0.3130
10465TIP3    H252811   0.104   6.473  11.663  1.9494 -1.0916 -1.0441
10466TIP3   OH252812   1.399   4.934  13.281 -0.2097  0.3848 -0.0224
10466TIP3    H152813   1.465   4.963  13.344 -1.4560  0.4011  1.2941
10466TIP3    H252814   1.429   4.847  13.254  0.4654  0.4791  0.4024
10467TIP3   OH252815   1.862   3.353   6.248 -0.8387  0.0729  0.6082
10467TIP3    H152816   1.845   3.317   6.335 -2.6807  1.8236  0.9989
10467TIP3    H252817   1.803   3.304   6.190 -0.1137 -0.6020  0.4175
10468TIP3   OH252818   3.438   5.770   0.614  0.4936 -0.4136  0.1146
10468TIP3    H152819   3.417   5.692   0.562 -1.3864  0.7418 -0.8835
10468TIP3    H252820   3.416   5.746   0.704  0.3372 -1.1798 -0.1235
10469TIP3   OH252821   4.102   4.134   3.246 -0.1583 -0.0474  0.3553
10469TIP3    H152822   4.146   4.127   3.161 -0.1245  0.4138  0.3335
10469TIP3    H252823   4.139   4.062   3.298 -0.1262 -0.2837  0.0034
10470TIP3   OH252824   2.947   6.303   3.979 -0.1015  0.1524  0.0843
10470TIP3    H152825   2.929   6.310   3.885 -1.2560  0.0861  0.2900
10470TIP3    H252826   2.932   6.392   4.012 -0.3032  0.0403  0.2979
10471TIP3   OH252827   5.221   3.717   4.512 -0.0128  0.7933  0.1584
10471TIP3    H152828   5.247   3.648   4.573 -0.6593 -0.5040 -0.9941
10471TIP3    H252829   5.152   3.765   4.558 -0.0095  0.2700  0.7172
10472TIP3   OH252830   1.440   2.767  14.836 -0.0883 -0.5826 -0.2063
10472TIP3    H152831   1.424   2.705  14.765 -0.4417 -0.5319 -0.1696
10472TIP3    H252832   1.363   2.761  14.892 -1.4141  1.9454 -1.6889
10473TIP3   OH252833   3.680   1.337   2.164  0.2456 -0.1199  0.6697
10473TIP3    H152834   3.658   1.415   2.214  1.2119  0.7711 -0.2952
10473TIP3    H252835   3.689   1.367   2.074  1.2441 -1.2276  0.3906
10474TIP3   OH252836   4.559   6.343  12.748  0.4574  0.2891  0.6034
10474TIP3    H152837   4.619   6.346  12.822  0.8142  0.2498  0.3127
10474TIP3    H252838   4.596   6.279  12.688  1.6178  2.2516 -0.8440
10475TIP3   OH252839   3.015   6.679  13.182  0.2784  0.0689  0.5438
10475TIP3    H152840   3.069   6.707  13.108  0.5371  0.5486  0.9109
10475TIP3    H252841   2.988   6.761  13.224  0.3879 -0.2137  1.1666
10476TIP3   OH252842   3.747   4.852  14.115 -0.2557 -0.1285  0.1920
10476TIP3    H152843   3.749   4.946  14.097 -2.6899  0.5726  3.1532
10476TIP3    H252844   3.687   4.816  14.049  0.8040  0.3280 -1.0512
10477TIP3   OH252845   2.553   4.768  14.069  0.4836 -0.2641  0.8288
10477TIP3    H152846   2.648   4.778  14.067  0.2721  2.0603  1.4590
10477TIP3    H252847   2.533   4.752  14.162 -0.0940  3.5669  1.4512
10478TIP3   OH252848   1.293   4.425  11.705 -0.0985 -0.0838 -0.4007
10478TIP3    H152849   1.312   4.519  11.716 -1.0328 -0.1154  1.6954
10478TIP3    H252850   1.205   4.422  11.669 -0.8276 -0.1673  1.3346
10479TIP3   OH252851   3.224   1.800   4.710  0.3696 -0.1214 -0.0266
10479TIP3    H152852   3.304   1.752   4.687  0.8919 -0.5461  2.5915
10479TIP3    H252853   3.153   1.737   4.694  0.8196 -0.8030  0.6295
10480TIP3   OH252854   3.537   0.542   4.147  0.7719 -0.0564 -0.6577
10480TIP3    H152855   3.493   0.608   4.200 -0.9758 -0.0947 -2.0443
10480TIP3    H252856   3.569   0.590   4.071 -0.0449 -0.7032 -1.4164
10481TIP3   OH252857   5.112   2.542   2.328  0.1369 -0.4238  0.2208
10481TIP3    H152858   5.078   2.625   2.296  1.6119 -0.3412 -1.1867
10481TIP3    H252859   5.159   2.565   2.408  0.5101  0.0846 -0.1454
10482TIP3   OH252860   3.235   2.279   3.896 -0.8847 -0.0341 -0.5538
10482TIP3    H152861   3.266   2.227   3.822 -1.5500  0.3198 -1.0905
10482TIP3    H252862   3.211   2.214   3.962 -2.1044 -0.4443 -1.3758
10483TIP3   OH252863   5.033   2.963  14.502  0.0916  0.2170  0.1196
10483TIP3    H152864   4.973   2.893  14.476 -0.5621  1.4728 -1.8568
10483TIP3    H252865   4.975   3.034  14.532  0.6518  0.8281 -0.2327
10484TIP3   OH252866   3.330   6.583   2.891  0.5012  0.3870  0.9062
10484TIP3    H152867   3.310   6.492   2.873 -1.3200  1.2150 -1.5127
10484TIP3    H252868   3.275   6.605   2.967  1.0531 -0.5383  1.5853
10485TIP3   OH252869   3.978   6.573   4.771 -0.3475 -0.1675  0.0135
10485TIP3    H152870   3.922   6.613   4.836 -1.3394  0.8889 -1.4575
10485TIP3    H252871   3.982   6.636   4.699  1.0230 -1.1281 -0.7977
10486TIP3   OH252872   4.211   1.523   2.327  0.3772  0.2176  0.4864
10486TIP3    H152873   4.288   1.537   2.272  0.5305 -0.0292  0.6401
10486TIP3    H252874   4.172   1.442   2.295  0.7364 -0.1858  1.0487
10487TIP3   OH252875   5.665   2.533   4.123  0.0291  0.1633 -0.1070
10487TIP3    H152876   5.746   2.485   4.141 -0.7696 -1.4800 -0.7615
10487TIP3    H252877   5.602   2.465   4.099 -1.5020  1.4369  0.2367
10488TIP3   OH252878   2.908   4.248  13.225 -0.0968 -0.6261  0.1291
10488TIP3    H152879   2.829   4.219  13.180  0.2645 -1.8985  0.3066
10488TIP3    H252880   2.899   4.215  13.314  1.0474 -1.5742 -0.0873
10489TIP3   OH252881   3.948   1.032   5.911  0.1477  0.5182  0.6312
10489TIP3    H152882   3.911   1.070   5.990 -1.0334  0.1705  0.2480
10489TIP3    H252883   3.929   0.938   5.918 -0.8315  0.6190 -0.5226
10490TIP3   OH252884   1.886   5.445   4.500 -0.3064 -0.0275  0.3824
10490TIP3    H152885   1.941   5.519   4.525  0.8788 -0.4413 -0.9731
10490TIP3    H252886   1.910   5.375   4.560  0.5570 -0.1638 -0.1166
10491TIP3   OH252887   2.904   6.710  14.394 -0.3962  0.1277  0.5503
10491TIP3    H152888   2.884   6.618  14.411  0.7430 -0.3745 -0.7289
10491TIP3    H252889   2.939   6.711  14.305 -0.7407  1.8582  0.4179
10492TIP3   OH252890   2.734   3.242  13.813 -0.5255  0.0661 -0.3986
10492TIP3    H152891   2.734   3.247  13.909  0.3801 -0.0311 -0.3907
10492TIP3    H252892   2.708   3.329  13.784  1.8452  0.9300 -0.0873
10493TIP3   OH252893   3.705   4.767  11.596  0.0788 -0.0702 -0.2713
10493TIP3    H152894   3.710   4.858  11.566  2.5527 -0.1701 -0.2673
10493TIP3    H252895   3.750   4.717  11.528 -1.5855 -1.3610 -0.4507
10494TIP3   OH252896   3.749   2.919   0.108 -0.3589  0.2022 -0.1749
10494TIP3    H152897   3.796   2.999   0.128 -0.1512 -0.2593  1.2783
10494TIP3    H252898   3.785   2.889   0.025  1.3274  0.3090  0.5025
10495TIP3   OH252899   2.399   3.332  12.529 -0.2821  0.2666  0.2124
10495TIP3    H152900   2.475   3.274  12.536 -1.9167 -1.9587  0.0932
10495TIP3    H252901   2.376   3.352  12.620  0.4503  0.9459  0.2468
10496TIP3   OH252902   2.811   2.836  16.583  0.0235 -0.6397  0.1946
10496TIP3    H152903   2.820   2.930  16.602 -1.2534 -0.2785 -0.9408
10496TIP3    H252904   2.813   2.794  16.670 -0.5883  0.5378  0.7961
10497TIP3   OH252905   0.483   1.498   0.039  0.7611  0.5554  0.5966
10497TIP3    H152906   0.523   1.581   0.067  0.3666  1.1883 -0.6815
10497TIP3    H252907   0.393   1.503   0.070  0.9218  0.2850  1.1289
10498TIP3   OH252908   3.918   2.418  11.659 -0.2415 -0.0185  0.2747
10498TIP3    H152909   3.875   2.338  11.628 -2.7533  1.0685  0.8393
10498TIP3    H252910   3.929   2.404  11.753  0.6564 -0.2866  0.1343
10499TIP3   OH252911   3.172   1.485   0.381  0.0937 -0.2419  0.1761
10499TIP3    H152912   3.105   1.553   0.381 -0.0307 -0.3474 -0.9209
10499TIP3    H252913   3.253   1.530   0.403 -0.1208  0.1239  0.2151
10500TIP3   OH252914   3.893   4.077  12.543 -0.0506 -0.1707 -0.2193
10500TIP3    H152915   3.878   4.133  12.467  0.1462  0.6777  0.3595
10500TIP3    H252916   3.984   4.048  12.535  0.7569  1.9250  0.9817
10501TIP3   OH252917   0.186   2.341  12.295 -0.3228 -0.2580 -0.1476
10501TIP3    H152918   0.120   2.370  12.358 -0.5134 -1.9124  0.4437
10501TIP3    H252919   0.256   2.304  12.349 -0.3905 -1.5092 -0.9022
10502TIP3   OH252920   3.909   2.392   2.455  0.4308  0.3709  0.3552
10502TIP3    H152921   3.844   2.336   2.412 -0.6202  2.0285 -0.3119
10502TIP3    H252922   3.891   2.479   2.420  1.4724  1.2715  1.9993
10503TIP3   OH252923   1.844   4.567  12.050 -0.1631 -0.6967 -0.2717
10503TIP3    H152924   1.893   4.626  11.992 -1.5814  0.6125 -0.1758
10503TIP3    H252925   1.844   4.483  12.004 -1.1362  0.2739 -2.1221
10504TIP3   OH252926   2.854   4.865  15.915 -0.1279  0.1107 -0.7228
10504TIP3    H152927   2.911   4.933  15.950 -0.2679 -0.5047  0.7506
10504TIP3    H252928   2.813   4.904  15.838 -0.0724  1.6286  0.0118
10505TIP3   OH252929   1.653   2.961   3.301 -0.1546 -0.3621 -0.2575
10505TIP3    H152930   1.637   3.055   3.293  2.9596  0.2201 -0.2325
10505TIP3    H252931   1.658   2.945   3.396  0.0983 -0.4160 -0.2800
10506TIP3   OH252932   2.423   5.929   5.187 -0.6123  0.0747  0.2436
10506TIP3    H152933   2.435   5.980   5.266 -0.4040  1.3223 -0.5825
10506TIP3    H252934   2.391   5.844   5.217  0.6632  0.1063  1.7519
10507TIP3   OH252935   1.867   2.427  13.347 -0.2926 -0.5843 -0.1460
10507TIP3    H152936   1.934   2.404  13.282  1.9815  1.7622  1.2673
10507TIP3    H252937   1.852   2.520  13.334 -0.9894 -0.4348  1.6213
10508TIP3   OH252938   1.125   1.499  16.940 -0.3100  0.0543 -0.5751
10508TIP3    H152939   1.093   1.585  16.966 -1.7335 -0.1047 -1.7586
10508TIP3    H252940   1.150   1.510  16.848  0.8916 -0.4217 -0.3112
10509TIP3   OH252941   4.073   3.899   2.355  0.1246 -0.2649 -0.2437
10509TIP3    H152942   3.984   3.905   2.319 -0.1641  0.3657  0.5440
10509TIP3    H252943   4.128   3.944   2.291  0.1878 -2.4064 -1.7233
10510TIP3   OH252944   0.525   4.292   3.936 -0.6564 -0.2311 -0.4287
10510TIP3    H152945   0.572   4.349   3.997 -1.6610  1.6380 -1.3567
10510TIP3    H252946   0.591   4.232   3.903 -0.0230 -1.0785  2.2581
10511TIP3   OH252947   5.894   3.420   0.984  0.2137 -0.0695  0.0356
10511TIP3    H152948   5.867   3.492   0.927  2.0919  0.5281 -0.1472
10511TIP3    H252949   5.933   3.463   1.060 -1.3524 -0.8714  1.3075
10512TIP3   OH252950   4.000   6.461   1.932 -0.2420  0.6445 -0.1621
10512TIP3    H152951   4.056   6.415   1.869 -0.2841  0.6310 -0.1891
10512TIP3    H252952   4.060   6.486   2.003 -0.3797 -0.2308  0.2756
10513TIP3   OH252953   6.145   5.961  11.688  0.3573 -0.4144 -0.0352
10513TIP3    H152954   6.170   5.915  11.768 -0.9998  0.9049  1.1871
10513TIP3    H252955   6.098   5.896  11.636  1.5221 -1.3696  0.0749
10514TIP3   OH252956   3.148   3.504   2.780 -0.0950  0.3967 -0.0517
10514TIP3    H152957   3.158   3.589   2.737 -0.5362  0.6518  0.3479
10514TIP3    H252958   3.126   3.444   2.709  1.2336  0.4096 -0.4952
10515TIP3   OH252959   0.161   3.369   5.464  0.1140 -0.4653 -0.0694
10515TIP3    H152960   0.238   3.313   5.447 -1.2781 -2.8102  1.1045
10515TIP3    H252961   0.126   3.337   5.547 -1.9571  0.8050 -0.4244
10516TIP3   OH252962   2.263   3.620  14.193  0.2627  0.1087  0.1079
10516TIP3    H152963   2.305   3.557  14.252  0.5247 -0.1371 -0.3421
10516TIP3    H252964   2.175   3.631  14.229 -0.0316 -1.0559 -0.2145
10517TIP3   OH252965   5.819   5.325   4.025 -0.4290 -0.3663 -0.1373
10517TIP3    H152966   5.881   5.356   4.091 -1.4069  1.1116  0.1197
10517TIP3    H252967   5.753   5.277   4.075 -0.4779 -0.3440 -0.1804
10518TIP3   OH252968   3.228   0.417  13.161  0.5292 -0.4059  0.5240
10518TIP3    H152969   3.228   0.374  13.246  1.4354  1.8111  1.6994
10518TIP3    H252970   3.158   0.482  13.167  0.3657 -0.4784 -0.5330
10519TIP3   OH252971   5.105   4.190   1.667  0.7689  0.5794  0.2405
10519TIP3    H152972   5.025   4.203   1.616  0.1479  1.0817  1.3403
10519TIP3    H252973   5.116   4.095   1.671  0.4860  0.5203 -0.2852
10520TIP3   OH252974   0.525   6.362  11.291  0.0582 -0.3541  0.3768
10520TIP3    H152975   0.512   6.271  11.316 -0.8977 -0.0718  0.9305
10520TIP3    H252976   0.620   6.370  11.277  0.1707 -1.3698  0.5511
10521TIP3   OH252977   5.372   0.490  11.909 -0.1132  0.0355 -0.0899
10521TIP3    H152978   5.375   0.585  11.899 -0.4519 -0.2738 -3.6473
10521TIP3    H252979   5.280   0.467  11.900 -0.0023 -0.6431  0.4818
10522TIP3   OH252980   3.104   3.070  12.006 -0.1149 -0.3128 -0.2963
10522TIP3    H152981   3.046   3.145  11.994 -1.4409 -0.9650  1.7887
10522TIP3    H252982   3.182   3.106  12.049 -0.3003  0.0431 -0.2592
10523TIP3   OH252983   4.714   1.342   3.843 -0.8746  0.4144  0.4527
10523TIP3    H152984   4.696   1.429   3.878  1.3927  1.4962 -1.0019
10523TIP3    H252985   4.666   1.339   3.760  1.0608  1.2249 -0.7119
10524TIP3   OH252986   1.470   4.776  17.056  0.4257  0.0633  0.0312
10524TIP3    H152987   1.522   4.781  16.976  1.0379 -1.3266  0.3366
10524TIP3    H252988   1.392   4.727  17.031 -0.2983  1.3236 -0.1906
10525TIP3   OH252989   5.496   0.190   2.636  0.1846  0.0102 -0.1436
10525TIP3    H152990   5.509   0.193   2.731  0.9402 -0.5936 -0.2235
10525TIP3    H252991   5.560   0.126   2.605  0.4931  0.7920 -1.1530
10526TIP3   OH252992   3.876   3.617   0.098  0.4637  0.5051  0.5958
10526TIP3    H152993   3.857   3.710   0.104  0.4498  0.7250 -2.1178
10526TIP3    H252994   3.803   3.575   0.143 -1.6117  1.6957 -1.5542
10527TIP3   OH252995   3.930   1.902   6.086  0.3151  0.4385 -0.4866
10527TIP3    H152996   3.902   1.944   6.004 -0.3484  2.3704  0.7013
10527TIP3    H252997   3.852   1.856   6.118  0.3717  0.2936 -0.5538
10528TIP3   OH252998   2.156   1.288   3.527  0.7561 -0.3074  0.4725
10528TIP3    H152999   2.080   1.255   3.480  1.3079 -0.0609 -0.6196
10528TIP3    H253000   2.163   1.232   3.604 -1.4768  0.7031  1.4202
10529TIP3   OH253001   3.917   2.317  15.085  0.0689 -0.0632  0.1915
10529TIP3    H153002   3.919   2.272  15.169 -1.0789 -0.2433  0.1244
10529TIP3    H253003   3.891   2.250  15.022  0.5795  0.1522 -0.2584
10530TIP3   OH253004   6.137   5.608  13.566 -0.3966  0.0243 -0.7016
10530TIP3    H153005   6.096   5.591  13.481 -1.6946 -1.8815  0.2778
10530TIP3    H253006   6.227   5.578  13.555 -0.8413 -1.1676 -1.0999
10531TIP3   OH253007   3.395   0.755   5.304  0.0224  0.0985 -0.4067
10531TIP3    H153008   3.371   0.732   5.214  1.2999  1.4285 -1.1090
10531TIP3    H253009   3.490   0.746   5.306  0.2554  2.3556  0.1242
10532TIP3   OH253010   3.089   1.775  13.519 -0.2952  0.1704  0.3276
10532TIP3    H153011   3.010   1.732  13.485 -0.0157 -0.1445  0.0748
10532TIP3    H253012   3.060   1.863  13.542 -0.8805 -0.1475  0.8471
10533TIP3   OH253013   3.449   0.853  14.493 -0.2184 -0.4175  0.0243
10533TIP3    H153014   3.509   0.874  14.422  0.6512  0.9486  1.1383
10533TIP3    H253015   3.488   0.775  14.534  0.0682 -0.3332 -0.0839
10534TIP3   OH253016   1.633   0.086  14.008  0.3840  0.0927  0.0154
10534TIP3    H153017   1.668   0.156  14.063 -0.1226  0.5009 -0.1781
10534TIP3    H253018   1.539   0.101  14.007  0.3461 -0.1667 -0.6088
10535TIP3   OH253019   6.487   6.583  11.129 -0.6697 -0.5144  0.3076
10535TIP3    H153020   6.541   6.661  11.119 -0.6175 -0.2926  2.1986
10535TIP3    H253021   6.414   6.611  11.185 -2.1228 -1.1172 -1.2288
10536TIP3   OH253022   3.702   5.550  11.375 -0.2226 -0.0306  0.1077
10536TIP3    H153023   3.669   5.484  11.314 -1.2249  0.2710  0.3188
10536TIP3    H253024   3.703   5.631  11.325  0.9737 -0.1834 -0.1386
10537TIP3   OH253025   1.696   3.423   2.510  0.0753 -0.4748 -0.1003
10537TIP3    H153026   1.698   3.343   2.561  2.3084 -0.8610 -0.7438
10537TIP3    H253027   1.763   3.410   2.442  0.3166  1.8323 -0.3474
10538TIP3   OH253028   0.070   5.111  15.361  0.2771  0.6814  0.5732
10538TIP3    H153029   0.078   5.157  15.444  0.5381  1.2803  0.2241
10538TIP3    H253030   0.130   5.157  15.302  0.1232  0.2424  0.0631
10539TIP3   OH253031   6.441   6.683   0.388 -0.0213  0.3173 -0.1869
10539TIP3    H153032   6.484   6.616   0.442  1.2723  1.5041  0.2920
10539TIP3    H253033   6.400   6.634   0.317  0.2540 -1.0544  0.5702
10540TIP3   OH253034   3.366   2.552   2.314  0.0636 -0.2429  0.0832
10540TIP3    H153035   3.327   2.492   2.377  0.1632  0.7051  1.0676
10540TIP3    H253036   3.343   2.516   2.228  1.4312 -2.5106  0.6390
10541TIP3   OH253037   6.584   1.904  16.448 -0.6414 -0.4261 -0.3000
10541TIP3    H153038   6.502   1.859  16.468 -1.0524  0.4930  0.0522
10541TIP3    H253039   6.586   1.907  16.352 -1.9306  1.2427 -0.2838
10542TIP3   OH253040   6.618   5.314   6.396 -0.5069  0.0916 -0.1354
10542TIP3    H153041   6.682   5.357   6.340  0.1752 -0.1397  0.4560
10542TIP3    H253042   6.665   5.298   6.478 -1.4094  0.1674  0.3967
10543TIP3   OH253043   2.891   6.484  11.386  0.1175 -0.4751  0.7884
10543TIP3    H153044   2.841   6.408  11.416  1.2672 -1.1720  0.9273
10543TIP3    H253045   2.981   6.466  11.411  0.5493  0.5040 -0.0192
10544TIP3   OH253046   1.712   4.970  12.390 -0.4848  0.1129 -0.2324
10544TIP3    H153047   1.725   4.907  12.319  0.7045  0.6311 -0.4958
10544TIP3    H253048   1.782   5.034  12.377 -0.4154  0.3456  1.2702
10545TIP3   OH253049   4.861   4.616  12.486  0.0858 -0.1836 -0.3429
10545TIP3    H153050   4.806   4.683  12.445  0.3961 -0.1301 -0.6787
10545TIP3    H253051   4.940   4.613  12.431  0.7473  0.2769  0.5851
10546TIP3   OH253052   0.860   1.577   4.186  0.1848  0.4510  0.0568
10546TIP3    H153053   0.955   1.578   4.192  0.1924  0.3502 -0.0569
10546TIP3    H253054   0.838   1.643   4.120  0.0087  2.9150  2.4792
10547TIP3   OH253055   5.603   0.680   0.111 -0.2561 -0.3330 -0.3982
10547TIP3    H153056   5.532   0.623   0.082  1.0771 -1.1350 -2.2103
10547TIP3    H253057   5.654   0.697   0.031  1.1336  0.8657  0.7134
10548TIP3   OH253058   5.729   6.445   2.102 -0.2052  0.3631  0.2073
10548TIP3    H153059   5.769   6.361   2.078 -1.6792 -0.4266  0.4462
10548TIP3    H253060   5.757   6.505   2.034 -1.4786 -1.0274 -1.5845
10549TIP3   OH253061   5.004   3.490  15.376  0.4483 -0.0651  0.4439
10549TIP3    H153062   5.020   3.513  15.284  0.6016 -0.7366  0.2975
10549TIP3    H253063   4.941   3.555  15.406  1.5773  1.1057  0.3140
10550TIP3   OH253064   6.178   2.630   2.329 -0.0521 -0.4057 -0.0775
10550TIP3    H153065   6.150   2.662   2.243 -1.0836  0.2270  0.4871
10550TIP3    H253066   6.254   2.684   2.351  0.0457 -0.3824 -0.4694
10551TIP3   OH253067   0.178   1.627   3.506 -0.7736  0.4473  0.1210
10551TIP3    H153068   0.117   1.591   3.441 -2.3817  2.7241  0.3019
10551TIP3    H253069   0.204   1.711   3.470 -0.4781  1.0526  1.7197
10552TIP3   OH253070   0.016   2.575   4.357  0.1827  0.6224  0.0805
10552TIP3    H153071  -0.033   2.655   4.376 -1.3404  0.1014 -1.5220
10552TIP3    H253072   0.056   2.591   4.272 -0.0497 -0.2689 -0.2032
10553TIP3   OH253073   3.269   4.308  16.396 -0.0822 -0.5650  0.4347
10553TIP3    H153074   3.284   4.374  16.329  1.5041 -1.2948  0.0334
10553TIP3    H253075   3.184   4.329  16.433 -0.7076  0.1844 -1.4124
10554TIP3   OH253076   1.368   2.228   2.125  0.2888 -0.1532  0.1578
10554TIP3    H153077   1.337   2.226   2.215 -0.4512 -0.2173 -0.0864
10554TIP3    H253078   1.344   2.142   2.090  0.2071  0.0140 -0.2066
10555TIP3   OH253079   4.080   0.606  12.552 -0.0909 -0.1791 -0.1168
10555TIP3    H153080   3.997   0.652  12.566  0.4610  0.6326  0.5096
10555TIP3    H253081   4.144   0.656  12.602  0.8169 -0.7019 -0.7491
10556TIP3   OH253082   3.779   3.306   5.687  0.0778 -0.0704  0.9034
10556TIP3    H153083   3.863   3.347   5.668 -1.0144  2.3525  1.1573
10556TIP3    H253084   3.788   3.273   5.776  0.9922 -0.4764  0.6648
10557TIP3   OH253085   0.199   2.328  14.551 -0.3691  0.3116 -0.1925
10557TIP3    H153086   0.214   2.422  14.538  0.3869  0.1666 -0.4021
10557TIP3    H253087   0.228   2.288  14.470  0.6584 -0.2274  0.4222
10558TIP3   OH253088   4.123   4.750   5.599  0.3579  0.1910 -0.0938
10558TIP3    H153089   4.099   4.841   5.613  0.6654  0.5251 -1.6210
10558TIP3    H253090   4.065   4.720   5.529  0.2171 -0.7941  0.4431
10559TIP3   OH253091   5.495   4.151   0.685  0.1359  0.2446 -0.5853
10559TIP3    H153092   5.538   4.221   0.635  1.0443 -0.4253 -0.7721
10559TIP3    H253093   5.402   4.167   0.674  0.3379  1.2951 -0.8168
10560TIP3   OH253094   3.801   6.651  12.976 -0.1038  0.1019  0.2119
10560TIP3    H153095   3.822   6.610  13.060 -0.4649 -0.7932 -0.1220
10560TIP3    H253096   3.789   6.743  12.996  0.7705  0.0577  0.9766
10561TIP3   OH253097   4.138   4.719  17.208 -0.2388  0.4168  0.1241
10561TIP3    H153098   4.094   4.802  17.230 -2.7365 -0.7671 -0.1668
10561TIP3    H253099   4.172   4.688  17.292 -2.6160 -0.0786  0.9636
10562TIP3   OH253100   0.443   0.342   5.522  0.6738  0.3645  0.7805
10562TIP3    H153101   0.450   0.406   5.593  0.4231  1.4503 -0.1489
10562TIP3    H253102   0.352   0.312   5.526  0.9327 -0.3491  1.5517
10563TIP3   OH253103   5.825   2.408   1.983 -0.5426 -0.4052  0.7839
10563TIP3    H153104   5.773   2.454   2.048 -0.0371 -0.7750  1.4598
10563TIP3    H253105   5.913   2.403   2.021 -0.8791 -3.0533  1.3236
10564TIP3   OH253106   5.573   4.009   4.960 -0.0811 -0.1786 -0.1700
10564TIP3    H153107   5.579   4.041   4.870  0.6029  2.8189  0.9124
10564TIP3    H253108   5.523   3.928   4.952  1.1819 -0.7407 -3.4163
10565TIP3   OH253109   5.895   6.139   4.225  0.6480 -0.1929 -0.1697
10565TIP3    H153110   5.823   6.090   4.184  1.3799 -0.2647 -1.3672
10565TIP3    H253111   5.904   6.099   4.312 -0.1300 -0.8073 -0.3637
10566TIP3   OH253112   5.439   0.350   5.882  0.3607 -0.3809 -0.1301
10566TIP3    H153113   5.347   0.330   5.901  0.4647 -0.1934  0.5850
10566TIP3    H253114   5.439   0.442   5.856  0.4190 -0.2458  0.3557
10567TIP3   OH253115   4.253   1.394  15.941  0.2940  0.1763 -0.0032
10567TIP3    H153116   4.293   1.434  15.864  1.0770 -0.8206 -0.1198
10567TIP3    H253117   4.327   1.372  15.998 -0.1736 -0.4790  0.3601
10568TIP3   OH253118   6.448   3.836   5.009 -0.1054 -0.1662 -0.0622
10568TIP3    H153119   6.527   3.871   5.051  1.1315 -3.6177  0.7196
10568TIP3    H253120   6.481   3.792   4.930 -1.2156 -1.6011  0.2470
10569TIP3   OH253121   4.277   2.745  12.860 -0.4927  0.0109  0.2063
10569TIP3    H153122   4.231   2.821  12.895 -0.7905 -0.1883  0.2484
10569TIP3    H253123   4.333   2.715  12.932 -0.1767  0.3433  0.1064
10570TIP3   OH253124   6.733   6.092  12.590  0.1165 -0.0990 -0.2429
10570TIP3    H153125   6.816   6.103  12.543 -0.0722  0.7876 -0.3702
10570TIP3    H253126   6.751   6.123  12.679  0.3082 -1.2274  0.1287
10571TIP3   OH253127   3.224   0.194   5.058 -0.1903 -0.5789  0.3823
10571TIP3    H153128   3.194   0.113   5.101  0.7408 -0.9951  0.2540
10571TIP3    H253129   3.312   0.173   5.026  0.0493  0.4899  0.3357
10572TIP3   OH253130   0.473   2.662  15.076  0.0877 -0.0812  0.3421
10572TIP3    H153131   0.402   2.716  15.040 -0.2369 -0.3948  0.5033
10572TIP3    H253132   0.507   2.713  15.150  0.4456  0.3521 -0.1244
10573TIP3   OH253133   4.282   4.318   0.846  0.1674 -0.2123  0.5400
10573TIP3    H153134   4.250   4.340   0.934 -1.4798 -0.1895 -0.0510
10573TIP3    H253135   4.356   4.260   0.861  0.5448  0.6122  1.9706
10574TIP3   OH253136   0.251   4.703   1.718  0.0223 -0.2183  0.3381
10574TIP3    H153137   0.287   4.655   1.643 -1.7742 -2.7747  1.0521
10574TIP3    H253138   0.192   4.641   1.760 -2.5413  2.7011  1.2123
10575TIP3   OH253139   1.215   5.951   2.018 -0.2427  0.1603  0.7603
10575TIP3    H153140   1.153   5.881   2.039  1.4264 -1.5829  0.0231
10575TIP3    H253141   1.300   5.916   2.044  0.6087  1.9681  0.4708
10576TIP3   OH253142   5.312   1.023   4.112  0.3352 -0.5324 -0.5177
10576TIP3    H153143   5.291   1.046   4.202 -0.0598 -1.7945 -0.2688
10576TIP3    H253144   5.256   0.947   4.093  0.0206  0.0326 -1.9948
10577TIP3   OH253145   1.439   3.352  17.144 -0.2376  0.5203  0.3557
10577TIP3    H153146   1.365   3.383  17.092  1.5061 -0.5091 -2.8179
10577TIP3    H253147   1.422   3.259  17.158 -0.9525  0.8943  2.1374
10578TIP3   OH253148   6.035   4.631   0.666  0.1886 -0.3035 -0.2672
10578TIP3    H153149   6.054   4.688   0.592  1.6549 -1.4157 -0.7715
10578TIP3    H253150   5.943   4.648   0.686  0.6078  2.2658 -0.3555
10579TIP3   OH253151   5.782   2.296  13.542 -0.0455 -0.5830  0.5491
10579TIP3    H153152   5.795   2.387  13.513 -3.3339  0.2789  1.6127
10579TIP3    H253153   5.745   2.252  13.466 -1.3923 -0.2445  1.0026
10580TIP3   OH253154   6.417   4.041  15.693 -0.1724  0.2879  0.1855
10580TIP3    H153155   6.466   4.107  15.643  0.6776  0.3612  1.0813
10580TIP3    H253156   6.369   4.092  15.758 -0.1464  0.0775  0.3666
10581TIP3   OH253157   5.882   3.139   1.690 -0.3943 -0.2947  0.1696
10581TIP3    H153158   5.894   3.177   1.777 -1.3243  3.0926 -1.1044
10581TIP3    H253159   5.797   3.172   1.661  0.7870  0.2817 -2.8032
10582TIP3   OH253160   4.589   4.754   2.326  0.2400 -0.2450  0.0179
10582TIP3    H153161   4.615   4.684   2.386  0.3492 -0.1786  0.0475
10582TIP3    H253162   4.494   4.761   2.338  0.3257  0.0932  0.5371
10583TIP3   OH253163   0.548   3.360   1.856  0.0001 -0.1030  0.1993
10583TIP3    H153164   0.548   3.291   1.789  0.6466 -0.1862  0.2809
10583TIP3    H253165   0.517   3.438   1.810 -0.4870 -0.3883  0.0415
10584TIP3   OH253166   0.895   0.760  16.969 -0.0257  0.0940 -0.2493
10584TIP3    H153167   0.925   0.840  17.012  0.5289 -0.5118  0.4971
10584TIP3    H253168   0.896   0.781  16.876 -1.5450  1.5223  0.0288
10585TIP3   OH253169   2.392   5.359   4.505 -0.1064 -0.3877  0.5000
10585TIP3    H153170   2.344   5.375   4.424  1.2827  0.4902 -0.1700
10585TIP3    H253171   2.391   5.444   4.550  1.6551 -0.0899  0.0079
10586TIP3   OH253172   4.830   0.090   2.277 -0.2490  0.4712  0.1626
10586TIP3    H153173   4.888   0.106   2.201  0.5246  0.5249  0.7554
10586TIP3    H253174   4.857   0.156   2.341 -2.3179  1.8072 -0.2823
10587TIP3   OH253175   1.666   5.158  11.501  0.4057  0.0647 -0.2908
10587TIP3    H153176   1.684   5.239  11.548 -0.3349  0.1755 -0.1960
10587TIP3    H253177   1.578   5.170  11.464 -0.2608 -1.1981  0.8321
10588TIP3   OH253178   2.522   3.364   0.326 -0.6416  0.1539  0.0267
10588TIP3    H153179   2.431   3.388   0.343 -1.2609 -2.4191  0.6656
10588TIP3    H253180   2.569   3.394   0.404 -0.6882  2.6955 -0.9009
10589TIP3   OH253181   0.981   1.829   2.311  0.3705 -0.0553 -0.6001
10589TIP3    H153182   0.961   1.765   2.380 -0.6759 -0.0749 -0.9059
10589TIP3    H253183   0.945   1.911   2.344 -0.9349 -0.2491 -1.5049
10590TIP3   OH253184   2.950   4.281   2.092  0.1392 -0.1762  0.4473
10590TIP3    H153185   2.895   4.317   2.022 -0.6573 -0.7701  0.7666
10590TIP3    H253186   2.933   4.337   2.167  0.5290  0.0896  0.3367
10591TIP3   OH253187   4.935   6.506  13.949  0.6452 -0.0593  0.0359
10591TIP3    H153188   4.904   6.593  13.923  2.5637  0.9040  0.8601
10591TIP3    H253189   4.965   6.467  13.867 -0.9323 -0.2739 -0.4625
10592TIP3   OH253190   3.173   1.011  12.433  0.5259  0.0989 -0.0172
10592TIP3    H153191   3.127   0.955  12.371 -0.0171  0.9474 -0.3911
10592TIP3    H253192   3.255   0.965  12.451  0.0571 -0.8321 -0.2771
10593TIP3   OH253193   5.051   5.697  15.102  0.4943 -0.2243 -0.1967
10593TIP3    H153194   4.974   5.731  15.058  0.9608 -0.7839 -1.4626
10593TIP3    H253195   5.016   5.650  15.178 -0.5431 -1.7284 -1.5618
10594TIP3   OH253196   2.964   1.578   4.655  0.4109  0.5032 -1.1570
10594TIP3    H153197   3.004   1.493   4.673  1.5207  0.8578 -1.8866
10594TIP3    H253198   2.920   1.567   4.571  1.1264  0.8265 -1.5842
10595TIP3   OH253199   4.850   2.393   1.482 -0.1273  0.2993  0.2878
10595TIP3    H153200   4.884   2.482   1.470  1.4280 -0.1174  1.4124
10595TIP3    H253201   4.759   2.405   1.508 -0.5884  1.4856 -1.8390
10596TIP3   OH253202   3.626   6.332  14.267  1.0220 -0.5623  0.1249
10596TIP3    H153203   3.544   6.361  14.227  1.2914 -1.0728 -0.7978
10596TIP3    H253204   3.667   6.412  14.298 -0.4038 -0.4089  1.7090
10597TIP3   OH253205   6.008   4.206   4.694  0.2678 -0.1603 -0.0987
10597TIP3    H153206   6.015   4.214   4.598 -2.7004  4.3865 -0.0955
10597TIP3    H253207   5.937   4.144   4.707  0.7412 -0.8745 -0.8496
10598TIP3   OH253208   4.131   4.773  14.552  0.8320  0.3864  0.1575
10598TIP3    H153209   4.115   4.743  14.462 -0.2629 -2.4496  1.2276
10598TIP3    H253210   4.087   4.857  14.558  0.9148  0.6015 -1.9538
10599TIP3   OH253211   3.629   4.004   1.807 -0.0092 -0.6628  0.7606
10599TIP3    H153212   3.624   4.056   1.727  0.1000 -1.2302  0.3830
10599TIP3    H253213   3.575   4.052   1.870  0.5264  0.1985  0.5842
10600TIP3   OH253214   0.749   0.800  11.251  0.2482  0.3650 -0.0525
10600TIP3    H153215   0.756   0.707  11.274 -2.1370  0.0954 -0.2518
10600TIP3    H253216   0.803   0.809  11.173 -0.9779 -1.2851 -1.1286
10601TIP3   OH253217   5.164   0.948  10.991 -0.2074  0.1682  0.0900
10601TIP3    H153218   5.160   0.862  10.947 -1.3065  0.2364  0.0401
10601TIP3    H253219   5.113   1.006  10.934 -2.8223 -0.0373  2.1189
10602TIP3   OH253220   4.183   0.817   3.116  0.4325  0.7395  0.0559
10602TIP3    H153221   4.110   0.795   3.058  0.0530  0.1695  0.7483
10602TIP3    H253222   4.260   0.783   3.071  0.1215  0.1601 -0.0396
10603TIP3   OH253223   5.651   1.438   0.747 -0.2113  0.3742 -0.5990
10603TIP3    H153224   5.723   1.376   0.736 -1.1282 -0.8426  0.0567
10603TIP3    H253225   5.574   1.391   0.714 -1.5765 -0.2737  3.2470
10604TIP3   OH253226   2.050   5.401   2.594  0.5364 -0.1337 -0.1856
10604TIP3    H153227   2.055   5.418   2.500 -2.5014  0.0683 -0.3664
10604TIP3    H253228   1.994   5.323   2.601  3.0753 -1.8889  1.3384
10605TIP3   OH253229   5.145   3.333   1.069 -0.0522  0.0889  0.5425
10605TIP3    H153230   5.237   3.361   1.075  0.1365 -0.6774  1.3324
10605TIP3    H253231   5.131   3.281   1.148 -1.5633  1.3618  1.1480
10606TIP3   OH253232   0.625   0.394  12.896 -0.1530  0.2172  0.0188
10606TIP3    H153233   0.569   0.471  12.891 -0.5901 -0.0133  1.1941
10606TIP3    H253234   0.695   0.411  12.834  0.3944  2.1019  1.1264
10607TIP3   OH253235   2.363   5.661   3.504  0.3547  0.2336  0.4385
10607TIP3    H153236   2.277   5.633   3.537  1.0150 -1.8410  0.5154
10607TIP3    H253237   2.393   5.726   3.568 -1.0494  0.7724  0.5540
10608TIP3   OH253238   5.731   4.629   2.118  0.2281 -0.1707  0.0459
10608TIP3    H153239   5.812   4.628   2.068  1.0543 -2.1559  1.3673
10608TIP3    H253240   5.717   4.538   2.144 -2.4966  0.1168 -0.2628
10609TIP3   OH253241   4.625   3.119  15.794  0.1991  0.0910 -0.3172
10609TIP3    H153242   4.649   3.077  15.712  0.6459  1.3137 -0.8225
10609TIP3    H253243   4.539   3.158  15.777 -1.1950 -2.3207  0.7866
10610TIP3   OH253244   6.023   6.114  12.378  0.0649  0.1781 -0.2691
10610TIP3    H153245   6.009   6.209  12.379  1.7010  0.4506 -2.1706
10610TIP3    H253246   6.101   6.101  12.432  0.3070 -0.0124 -0.6680
10611TIP3   OH253247   4.470   5.213   2.010 -0.1184 -0.7922  0.1166
10611TIP3    H153248   4.489   5.267   2.086 -0.9886 -0.1756 -0.0978
10611TIP3    H253249   4.375   5.219   1.999 -0.2037 -2.1798 -0.0486
10612TIP3   OH253250   5.970   5.330  11.559  0.0888 -0.6459  0.3334
10612TIP3    H153251   6.026   5.260  11.528  0.4676 -0.4231  0.5162
10612TIP3    H253252   5.881   5.294  11.553  0.0173 -0.0821 -2.3918
10613TIP3   OH253253   6.728   1.700  15.815 -0.9508 -0.8668  0.0908
10613TIP3    H153254   6.774   1.768  15.863  0.6683 -1.5780 -0.4300
10613TIP3    H253255   6.638   1.733  15.807 -0.4979  0.6194  0.9322
10614TIP3   OH253256   3.933   5.199  13.570  0.3603  0.4726  0.3835
10614TIP3    H153257   3.925   5.230  13.480  0.4853  0.1637  0.2659
10614TIP3    H253258   3.988   5.121  13.564 -1.4224 -0.8300  0.4286
10615TIP3   OH253259   4.140   1.734   2.476  0.2859 -0.3630 -0.0878
10615TIP3    H153260   4.126   1.801   2.410 -2.8712 -0.0562  0.8173
10615TIP3    H253261   4.184   1.662   2.430  0.4549  0.8778 -1.8774
10616TIP3   OH253262   5.160   3.722   3.342 -0.2641  0.0792 -0.2955
10616TIP3    H153263   5.065   3.717   3.348 -0.2246 -0.1068  0.2566
10616TIP3    H253264   5.183   3.670   3.265 -0.4692 -1.4246  0.6419
10617TIP3   OH253265   0.844   1.594  12.140  0.1161 -0.1674  0.5068
10617TIP3    H153266   0.838   1.614  12.047 -0.3228  0.9983  0.7757
10617TIP3    H253267   0.905   1.521  12.145  1.6635  1.0204 -0.5343
10618TIP3   OH253268   4.623   3.690  13.749  0.3777  0.0122 -0.3291
10618TIP3    H153269   4.656   3.600  13.760  0.9120  0.2706  0.2207
10618TIP3    H253270   4.627   3.727  13.837 -0.0161  0.5186 -0.5288
10619TIP3   OH253271   0.242   5.167   4.150 -0.3967 -0.0950 -0.4408
10619TIP3    H153272   0.337   5.167   4.165 -0.3709 -2.0448 -0.5202
10619TIP3    H253273   0.232   5.147   4.057 -0.8754  0.6396 -0.5484
10620TIP3   OH253274   3.439   6.336   4.568 -0.4093  0.1765 -0.3927
10620TIP3    H153275   3.414   6.321   4.660  0.3512  0.2161 -0.1759
10620TIP3    H253276   3.381   6.279   4.518 -0.0187 -0.7632  0.1992
10621TIP3   OH253277   5.214   5.208  11.043 -0.0801 -0.1489  0.2848
10621TIP3    H153278   5.283   5.155  11.082  0.1206 -0.3337 -0.3081
10621TIP3    H253279   5.181   5.154  10.971 -0.4639  0.1711  0.2211
10622TIP3   OH253280   1.955   3.596  14.208 -0.4078  0.2327  0.3108
10622TIP3    H153281   1.991   3.585  14.120 -0.7504  0.7884  0.0986
10622TIP3    H253282   1.869   3.636  14.193  0.0313  1.4166  0.9636
10623TIP3   OH253283   2.880   2.531  14.630  0.1333  0.0569  0.1381
10623TIP3    H153284   2.892   2.581  14.549  2.2245  0.8035  0.8459
10623TIP3    H253285   2.962   2.546  14.679 -0.6269 -1.2908  1.8805
10624TIP3   OH253286   2.959   6.726  13.653 -0.2553  0.1915 -0.1983
10624TIP3    H153287   3.015   6.687  13.586 -0.8748 -0.6295 -0.2476
10624TIP3    H253288   2.870   6.698  13.630 -0.2885 -1.9010  2.1217
10625TIP3   OH253289   1.484   3.167   1.069  0.2557 -0.0025 -0.5289
10625TIP3    H153290   1.522   3.185   0.983  3.9790  0.3261  1.0751
10625TIP3    H253291   1.436   3.246   1.091 -0.0338  0.2280 -1.9266
10626TIP3   OH253292   3.443   1.160   2.263  0.2710 -0.2008 -0.1027
10626TIP3    H153293   3.388   1.146   2.186 -0.5911 -0.2164  0.5083
10626TIP3    H253294   3.501   1.232   2.239 -0.6580  0.4474 -0.4193
10627TIP3   OH253295   0.496   6.257   3.839 -0.3223 -0.1024 -0.3943
10627TIP3    H153296   0.591   6.246   3.847 -0.5636 -1.1351  1.3627
10627TIP3    H253297   0.459   6.175   3.871 -1.8658  1.0180  0.8031
10628TIP3   OH253298   4.320   0.678   5.148 -0.0906  0.4483  0.1104
10628TIP3    H153299   4.331   0.636   5.063 -0.3144  0.1609  0.2227
10628TIP3    H253300   4.227   0.698   5.154 -0.1841 -0.1114  0.5556
10629TIP3   OH253301   5.375   3.410   5.213  0.0372  0.2003  0.4801
10629TIP3    H153302   5.346   3.319   5.222 -0.6574  0.4707  1.0201
10629TIP3    H253303   5.296   3.458   5.188  0.2622  0.7555  0.8174
10630TIP3   OH253304   5.695   2.608  12.260  0.3876 -0.1929 -0.1508
10630TIP3    H153305   5.702   2.582  12.168 -0.6502 -1.8135  0.2228
10630TIP3    H253306   5.783   2.595  12.296  0.8627  0.6980 -0.9678
10631TIP3   OH253307   1.573   2.700   3.269 -0.5087 -0.5427 -0.2035
10631TIP3    H153308   1.562   2.793   3.253 -3.2658 -0.6553  0.7988
10631TIP3    H253309   1.628   2.670   3.196 -0.6765  1.6031 -1.2706
10632TIP3   OH253310   2.437   3.569  15.060  0.1659 -0.6154 -0.2233
10632TIP3    H153311   2.375   3.505  15.094 -1.1221 -1.6016 -4.2379
10632TIP3    H253312   2.395   3.654  15.076 -1.8937 -1.2297 -2.1444
10633TIP3   OH253313   6.526   4.819  14.249  0.1792  0.1744 -0.3345
10633TIP3    H153314   6.568   4.739  14.217 -0.0334  0.2930 -0.9218
10633TIP3    H253315   6.511   4.803  14.342  0.1892 -0.4494 -0.4380
10634TIP3   OH253316   0.539   5.590   1.856 -0.1337  0.5721  0.1351
10634TIP3    H153317   0.537   5.565   1.763  0.3524 -0.4987  0.4097
10634TIP3    H253318   0.603   5.531   1.895 -0.5398  0.8410  1.2091
10635TIP3   OH253319   0.624   3.959   4.722  0.4374 -0.0717 -0.5784
10635TIP3    H153320   0.636   3.941   4.815  0.4359 -1.3147 -0.8157
10635TIP3    H253321   0.565   4.035   4.720 -1.5208 -1.5057  0.4313
10636TIP3   OH253322   6.596   5.547   5.340  0.0655 -0.1284 -0.5391
10636TIP3    H153323   6.556   5.472   5.384 -1.0031  1.1316  0.6979
10636TIP3    H253324   6.608   5.518   5.250 -0.9288 -1.5616 -0.2317
10637TIP3   OH253325   6.762   5.130  11.990  0.1702 -0.4557  0.7837
10637TIP3    H153326   6.811   5.048  11.982  0.0392 -0.5944  1.3740
10637TIP3    H253327   6.682   5.115  11.940  0.6525 -0.2840 -0.0500
10638TIP3   OH253328   2.158   0.910  11.850 -0.1436 -0.1204 -0.0177
10638TIP3    H153329   2.079   0.938  11.896 -1.1561 -0.3859 -1.5485
10638TIP3    H253330   2.190   0.835  11.900 -0.5450  0.3270  0.9209
10639TIP3   OH253331   5.456   0.959   6.499  0.2370  0.5566  0.3156
10639TIP3    H153332   5.522   0.894   6.524 -0.0162  0.4439  0.6884
10639TIP3    H253333   5.506   1.028   6.456  0.5051  0.0978 -0.1148
10640TIP3   OH253334   5.143   3.101   5.094  0.6166  0.3234  0.7434
10640TIP3    H153335   5.219   3.075   5.146  1.4920 -1.6826 -1.4345
10640TIP3    H253336   5.163   3.190   5.064  2.3472 -0.3747 -0.2202
10641TIP3   OH253337   2.159   2.007  15.731 -0.5618 -0.6698 -0.1057
10641TIP3    H153338   2.244   2.022  15.690 -0.4821  0.5458  0.4650
10641TIP3    H253339   2.178   1.956  15.809 -0.4727 -1.2219 -0.4873
10642TIP3   OH253340   3.540   6.704   1.822 -0.1611  0.0937  0.0389
10642TIP3    H153341   3.563   6.753   1.743 -0.1009 -0.9713 -0.6094
10642TIP3    H253342   3.540   6.613   1.795 -1.3353 -0.2021  0.9810
10643TIP3   OH253343   5.201   0.868  16.330  0.2166 -0.0667 -0.0054
10643TIP3    H153344   5.219   0.962  16.321 -0.0853  0.2589  2.2658
10643TIP3    H253345   5.280   0.833  16.370 -0.2861 -0.4750  0.6441
10644TIP3   OH253346   4.134   4.100  16.821  0.3637 -0.2645 -0.5060
10644TIP3    H153347   4.206   4.116  16.760  0.6587  1.6700  0.3108
10644TIP3    H253348   4.150   4.012  16.854  2.3372  0.1228 -0.3703
10645TIP3   OH253349   0.627   3.191   0.368  0.0733 -0.3162 -0.1351
10645TIP3    H153350   0.575   3.150   0.298 -0.7813  1.0357 -0.3150
10645TIP3    H253351   0.566   3.252   0.410  1.3856  0.9748 -0.0532
10646TIP3   OH253352   3.600   0.961   3.141 -0.0720  0.0250  0.1472
10646TIP3    H153353   3.594   0.988   3.049 -1.6638 -0.3868  0.1216
10646TIP3    H253354   3.612   0.866   3.136  2.1346  0.2589  0.3275
10647TIP3   OH253355   4.681   1.778   2.031  0.0987  0.5899  0.6712
10647TIP3    H153356   4.769   1.815   2.033 -0.1068  1.0938  0.4468
10647TIP3    H253357   4.694   1.686   2.007  0.5204  0.7909  0.1302
10648TIP3   OH253358   2.179   2.214   1.074  0.0834 -0.0756 -0.0858
10648TIP3    H153359   2.146   2.189   1.160 -0.4009  1.7680  0.2937
10648TIP3    H253360   2.113   2.184   1.012 -0.9655  1.1045  0.4387
10649TIP3   OH253361   3.886   3.544  14.949 -0.2543  0.0629  0.6347
10649TIP3    H153362   3.969   3.506  14.919 -0.6538 -0.1936 -0.1937
10649TIP3    H253363   3.820   3.484  14.915 -0.9571  1.9396 -1.4493
10650TIP3   OH253364   2.844   1.329   1.462 -0.5701 -0.1145  0.0046
10650TIP3    H153365   2.918   1.383   1.489 -1.0249  0.6093 -0.1918
10650TIP3    H253366   2.770   1.362   1.512 -0.8913 -0.4428 -0.2469
10651TIP3   OH253367   4.301   6.748  15.517  0.8606 -0.1699 -0.3973
10651TIP3    H153368   4.340   6.678  15.464 -0.7825 -1.3375 -0.0871
10651TIP3    H253369   4.309   6.718  15.607  2.7638  1.3788 -0.0157
10652TIP3   OH253370   0.810   1.502   3.837 -0.2697 -0.3774 -0.3747
10652TIP3    H153371   0.750   1.487   3.910 -0.1844 -0.2845 -0.2842
10652TIP3    H253372   0.894   1.522   3.879 -1.0440  3.3096 -0.3827
10653TIP3   OH253373   5.530   3.687   1.531  0.2140 -0.0228  0.0270
10653TIP3    H153374   5.513   3.664   1.439  0.4098 -1.1290  0.2565
10653TIP3    H253375   5.483   3.769   1.544  0.1354  0.1124 -1.0499
10654TIP3   OH253376   6.523   4.792  14.519 -0.4056 -0.4002  0.3834
10654TIP3    H153377   6.611   4.802  14.556  0.3348 -2.7315 -0.6363
10654TIP3    H253378   6.465   4.794  14.595  0.6405 -0.0771  1.1920
10655TIP3   OH253379   6.358   5.746  11.618  0.0055 -0.2545 -0.2180
10655TIP3    H153380   6.335   5.667  11.668  1.5831 -1.2319 -1.0102
10655TIP3    H253381   6.292   5.751  11.549 -0.9128 -0.0978  0.6630
10656TIP3   OH253382   4.115   6.384   3.687  0.4144  0.2765 -0.1275
10656TIP3    H153383   4.189   6.358   3.742  0.1143  0.0901  0.1882
10656TIP3    H253384   4.073   6.301   3.662  0.2923  0.3838 -0.2818
10657TIP3   OH253385   1.218   2.586   4.006 -0.1230 -0.2350 -0.1448
10657TIP3    H153386   1.127   2.596   4.035  0.0496  1.4945 -0.1233
10657TIP3    H253387   1.214   2.521   3.937 -1.4828  0.2916 -0.5800
10658TIP3   OH253388   6.032   4.904  13.523 -0.4591 -0.0556  0.0176
10658TIP3    H153389   6.113   4.860  13.549  0.2376  0.3614 -1.4088
10658TIP3    H253390   6.019   4.972  13.589  1.0536  0.7101 -0.4685
10659TIP3   OH253391   4.206   2.729   6.020  0.1566  0.5836 -0.0442
10659TIP3    H153392   4.219   2.686   6.105  1.8577 -1.1684 -1.1584
10659TIP3    H253393   4.291   2.768   5.999 -0.1049  0.5641 -1.1850
10660TIP3   OH253394   1.047   2.805  11.327 -0.2855  0.2151 -0.8463
10660TIP3    H153395   1.100   2.877  11.292 -0.4412 -0.1962 -1.9662
10660TIP3    H253396   0.997   2.774  11.251 -0.6533 -0.6886 -0.2397
10661TIP3   OH253397   1.434   1.725   1.745 -0.7463  0.5249 -0.4205
10661TIP3    H153398   1.400   1.712   1.833 -0.7754  1.1219 -0.3433
10661TIP3    H253399   1.356   1.731   1.690 -0.7499  0.9337 -0.3753
10662TIP3   OH253400   0.881   6.530  15.124  0.3645 -0.2612 -0.1341
10662TIP3    H153401   0.889   6.548  15.218 -2.9673 -1.6153  0.4848
10662TIP3    H253402   0.830   6.603  15.089  0.6539 -0.3107 -0.6611
10663TIP3   OH253403   0.156   6.187  15.217  0.1840  0.4411 -0.4293
10663TIP3    H153404   0.212   6.257  15.251  1.7876 -1.3776  0.8412
10663TIP3    H253405   0.217   6.126  15.176 -1.1013 -0.5694 -0.8742
10664TIP3   OH253406   1.231   6.492   0.675  0.4385  0.4054  0.4242
10664TIP3    H153407   1.308   6.506   0.619  0.1792 -0.2238 -0.0930
10664TIP3    H253408   1.237   6.561   0.741  1.2236  0.6171  0.1396
10665TIP3   OH253409   3.442   2.720   4.607 -0.3354 -0.1590  0.0996
10665TIP3    H153410   3.466   2.686   4.694  0.5485  1.9731  0.7457
10665TIP3    H253411   3.349   2.700   4.598 -0.1458 -1.4917  1.0270
10666TIP3   OH253412   1.203   3.151   5.106  0.7684  0.1621  0.0956
10666TIP3    H153413   1.222   3.177   5.016  0.7838 -2.4675 -0.7102
10666TIP3    H253414   1.250   3.068   5.118 -1.1367 -0.7475  1.7198
10667TIP3   OH253415   2.390   6.170   2.311 -0.3300 -0.0445  0.5009
10667TIP3    H153416   2.383   6.254   2.266 -2.5797 -0.3926  0.1480
10667TIP3    H253417   2.324   6.115   2.269 -2.5380 -0.3708  4.2583
10668TIP3   OH253418   0.128   5.743   5.034 -0.0509 -0.1578 -0.0904
10668TIP3    H153419   0.201   5.688   5.006 -1.0132 -0.2193 -2.5698
10668TIP3    H253420   0.051   5.704   4.993 -1.0052  1.9288 -0.3417
10669TIP3   OH253421   3.090   2.800  16.725 -0.7061 -1.0381 -0.1911
10669TIP3    H153422   3.144   2.731  16.763  0.2328  0.0106  0.4173
10669TIP3    H253423   3.031   2.826  16.796 -0.7668 -0.9251 -0.2831
10670TIP3   OH253424   2.327   6.305   5.986 -0.2697  0.1340 -0.8155
10670TIP3    H153425   2.307   6.327   6.077  2.7782  1.2269 -0.3410
10670TIP3    H253426   2.310   6.211   5.980  0.7902 -0.2207  1.2681
10671TIP3   OH253427   4.351   1.009   4.120  0.1740  0.3483 -0.1192
10671TIP3    H153428   4.394   1.042   4.199  1.4463  2.0098 -1.4474
10671TIP3    H253429   4.401   1.049   4.048 -1.0205 -1.0478 -1.7478
10672TIP3   OH253430   6.719   5.486   1.033 -0.3366 -0.1626 -0.6090
10672TIP3    H153431   6.797   5.499   0.978  0.0864 -0.9974 -0.2204
10672TIP3    H253432   6.662   5.430   0.980 -0.4467  0.0071 -0.6729
10673TIP3   OH253433   2.139   2.856  16.931  0.0334  0.2586  0.2569
10673TIP3    H153434   2.049   2.860  16.900  0.3196  1.1575 -0.4977
10673TIP3    H253435   2.187   2.817  16.858  0.0768 -1.2569  1.0829
10674TIP3   OH253436   1.885   2.526   5.598  0.0955 -0.4288 -0.7569
10674TIP3    H153437   1.857   2.543   5.688  2.0847  0.6677 -0.3279
10674TIP3    H253438   1.867   2.433   5.585  1.1943 -0.9622  1.2888
10675TIP3   OH253439   6.544   4.721   5.233 -0.2165  0.0313  0.5592
10675TIP3    H153440   6.554   4.626   5.228  3.0560  0.4143 -1.3655
10675TIP3    H253441   6.586   4.746   5.315 -0.1134 -0.0480  0.5294
10676TIP3   OH253442   5.010   3.299  10.906  0.3809  0.2905  0.0589
10676TIP3    H153443   5.040   3.351  10.981  3.5349 -1.9748  0.5105
10676TIP3    H253444   5.081   3.236  10.891 -0.8674 -0.3299 -3.8806
10677TIP3   OH253445   2.894   2.353  11.672 -0.1181 -0.2473 -0.4490
10677TIP3    H153446   2.848   2.277  11.709  1.4205 -0.6685  0.6218
10677TIP3    H253447   2.954   2.381  11.740 -1.5823  2.8010 -0.3363
10678TIP3   OH253448   5.030   5.954  10.485  0.7491 -0.0084  0.2372
10678TIP3    H153449   4.997   5.898  10.555 -0.5094 -0.1834 -0.4811
10678TIP3    H253450   5.030   6.042  10.522  0.1601 -0.1102  0.4904
10679TIP3   OH253451   4.412   4.662   1.614 -0.2588 -0.7991 -0.1603
10679TIP3    H153452   4.402   4.611   1.534 -0.0263 -1.2857  0.1216
10679TIP3    H253453   4.414   4.597   1.684  0.5284 -0.4351  0.1544
10680TIP3   OH253454   0.149   6.086   4.333  1.0279  0.1304  0.0247
10680TIP3    H153455   0.170   6.047   4.248 -0.8213 -0.1608 -0.3161
10680TIP3    H253456   0.089   6.158   4.313 -1.7121 -1.7103  1.2715
10681TIP3   OH253457   2.652   4.667  15.720 -0.2591  0.2842  0.0543
10681TIP3    H153458   2.698   4.658  15.803  1.7567 -0.3435 -1.1077
10681TIP3    H253459   2.583   4.600  15.724  0.0319  0.0292  1.0570
10682TIP3   OH253460   1.903   4.239  13.332 -0.0664  0.1565  0.0027
10682TIP3    H153461   1.836   4.251  13.400  1.0943  1.9838  0.8678
10682TIP3    H253462   1.986   4.236  13.380  0.7072  0.8219 -1.2628
10683TIP3   OH253463   3.630   0.868  12.153 -0.0987  0.2998 -0.3128
10683TIP3    H153464   3.654   0.834  12.066 -0.6708 -1.6227  0.2550
10683TIP3    H253465   3.702   0.926  12.176  0.2173  0.6051 -1.9454
10684TIP3   OH253466   6.168   1.133  15.265  0.9210  0.3151  0.6826
10684TIP3    H153467   6.251   1.170  15.235  0.4204  0.3534 -0.6564
10684TIP3    H253468   6.112   1.132  15.188 -0.0197 -0.5966  1.3570
10685TIP3   OH253469   4.714   2.168  16.768 -0.6882 -0.2334  0.1998
10685TIP3    H153470   4.784   2.104  16.753  1.1427  2.3923 -3.0907
10685TIP3    H253471   4.738   2.210  16.850 -0.7801 -2.2757  1.3224
10686TIP3   OH253472   4.597   5.972   5.914  0.3541  0.1505  0.1912
10686TIP3    H153473   4.675   5.994   5.863  1.1811 -1.2430  0.8292
10686TIP3    H253474   4.561   5.895   5.870 -1.2131  1.3335 -0.6573
10687TIP3   OH253475   2.398   2.042  16.769  0.2240 -0.5864  0.2301
10687TIP3    H153476   2.377   1.987  16.693 -1.7483 -0.1986  0.4689
10687TIP3    H253477   2.367   1.992  16.844  1.5606 -0.6637  0.7433
10688TIP3   OH253478   0.870   5.534   0.406  0.4575 -0.6675  0.4057
10688TIP3    H153479   0.796   5.492   0.364 -0.2687 -1.0594  2.0442
10688TIP3    H253480   0.912   5.584   0.336 -1.2282 -0.5973 -0.5852
10689TIP3   OH253481   4.155   4.696   4.984  0.2754  0.2794 -0.9266
10689TIP3    H153482   4.103   4.676   5.062 -0.0681  0.9944 -0.9630
10689TIP3    H253483   4.192   4.782   5.002  0.5411  0.2589 -1.3761
10690TIP3   OH253484   5.956   0.585  16.074  0.2030  0.0736 -0.0264
10690TIP3    H153485   5.947   0.618  16.163 -0.1848 -0.2333  0.0493
10690TIP3    H253486   5.988   0.496  16.084  1.8604  0.6221 -0.2491
10691TIP3   OH253487   3.753   1.527  13.052 -0.2203  0.6199 -0.1461
10691TIP3    H153488   3.780   1.437  13.033  0.7705  1.3250 -2.2820
10691TIP3    H253489   3.750   1.532  13.147  3.7613 -0.5199  0.1220
10692TIP3   OH253490   5.205   0.897  15.663 -0.5704  0.0727  0.6110
10692TIP3    H153491   5.163   0.946  15.733  0.4640  1.1984  0.4610
10692TIP3    H253492   5.245   0.964  15.607 -0.6342 -0.8494 -0.5658
10693TIP3   OH253493   6.167   2.362  12.184  0.5977  0.2871  0.0190
10693TIP3    H153494   6.198   2.273  12.200 -1.9157 -0.2540  2.2483
10693TIP3    H253495   6.206   2.386  12.100  3.5051 -1.8667  0.6668
10694TIP3   OH253496   1.250   6.070  13.397 -0.4310  0.8651  0.1253
10694TIP3    H153497   1.177   6.009  13.403  1.8928 -1.9043  1.0071
10694TIP3    H253498   1.234   6.133  13.467 -1.3966 -0.3714  1.0365
10695TIP3   OH253499   1.585   5.966   1.835 -0.2896  0.0510 -0.5058
10695TIP3    H153500   1.615   5.892   1.888  1.3833  0.4644 -0.8222
10695TIP3    H253501   1.587   5.933   1.745 -0.7298  0.0967 -0.5295
10696TIP3   OH253502   1.078   0.270   3.256 -0.0233  0.1571 -0.0002
10696TIP3    H153503   0.994   0.237   3.290 -0.9040  3.5246  1.2643
10696TIP3    H253504   1.141   0.202   3.279 -1.8076 -0.7874  2.3170
10697TIP3   OH253505   4.758   1.882  10.294 -0.1466 -0.1369  0.0773
10697TIP3    H153506   4.822   1.953  10.306 -1.5758  1.2963 -0.5557
10697TIP3    H253507   4.799   1.823  10.230  1.1500  0.0080  0.7688
10698TIP3   OH253508   1.391   6.152  16.816  0.0514 -0.0015 -0.5741
10698TIP3    H153509   1.349   6.072  16.786  0.4922  0.1903 -1.7488
10698TIP3    H253510   1.385   6.211  16.741 -0.8468  1.2942  0.4858
10699TIP3   OH253511   0.104   6.603   5.651 -0.2733  0.5325 -0.1553
10699TIP3    H153512   0.186   6.643   5.679 -0.7292  1.4401 -0.1050
10699TIP3    H253513   0.036   6.666   5.675 -0.9094  0.1658 -0.9340
10700TIP3   OH253514   3.115   5.690   5.406 -0.6883 -0.2192 -0.1101
10700TIP3    H153515   3.172   5.662   5.477  0.2329  0.0859 -0.7229
10700TIP3    H253516   3.096   5.610   5.357 -1.3056 -0.4262  0.4556
10701TIP3   OH253517   1.289   3.829   3.687  0.3047 -0.8051 -0.1087
10701TIP3    H153518   1.301   3.889   3.760 -1.7834 -1.6919  1.0072
10701TIP3    H253519   1.257   3.748   3.727 -1.3121 -1.1594 -2.0370
10702TIP3   OH253520   0.684   6.504  15.590 -0.2221 -0.0780 -0.1549
10702TIP3    H153521   0.727   6.428  15.629 -2.0898 -0.6993  0.7544
10702TIP3    H253522   0.618   6.468  15.531 -0.6207  0.8443 -0.2895
10703TIP3   OH253523   0.872   1.246  11.409 -0.5299  0.2502 -0.1577
10703TIP3    H153524   0.952   1.253  11.358  0.0679 -1.3873  0.5278
10703TIP3    H253525   0.802   1.267  11.347  0.4103  1.7654 -0.7369
10704TIP3   OH253526   6.768   1.194  16.441  0.2691 -0.0419 -0.7332
10704TIP3    H153527   6.765   1.284  16.475 -1.2542  0.0642 -1.1135
10704TIP3    H253528   6.676   1.166  16.440  0.7002 -1.4530 -1.0127
10705TIP3   OH253529   4.822   6.459   4.105 -0.1939 -0.0846 -0.9320
10705TIP3    H153530   4.759   6.491   4.169  0.3884  0.6269 -0.7153
10705TIP3    H253531   4.863   6.538   4.070 -0.0547 -0.5001 -1.7176
10706TIP3   OH253532   5.164   4.669   4.508 -0.5419 -0.3443 -0.1892
10706TIP3    H153533   5.180   4.737   4.443 -1.2913 -0.2337 -0.2712
10706TIP3    H253534   5.128   4.596   4.458  0.4974 -0.8993 -0.1382
10707TIP3   OH253535   2.906   5.281   1.511 -0.3184  0.3607  0.1827
10707TIP3    H153536   2.937   5.241   1.592 -0.1813  0.1498  0.0258
10707TIP3    H253537   2.936   5.222   1.442 -0.2734  0.6367 -0.0359
10708TIP3   OH253538   6.104   0.960  17.119 -0.4994 -0.0097  0.1732
10708TIP3    H153539   6.097   0.877  17.072  0.2568 -0.1041  0.2078
10708TIP3    H253540   6.097   1.027  17.051 -1.8140 -0.0769  0.2357
10709TIP3   OH253541   5.785   4.408  14.243 -0.8005  0.3162 -0.5665
10709TIP3    H153542   5.835   4.431  14.165  0.7533  0.0004  0.3216
10709TIP3    H253543   5.761   4.316  14.231 -1.1552  0.4618 -0.9802
10710TIP3   OH253544   0.046   3.066  14.988  0.1009 -0.0783  0.1756
10710TIP3    H153545  -0.021   3.059  14.921 -0.5909  0.0436  0.8489
10710TIP3    H253546   0.108   3.130  14.954 -0.3434  0.1174 -0.2663
10711TIP3   OH253547   5.259   5.064   2.490  0.5507  0.1860 -0.1430
10711TIP3    H153548   5.317   5.009   2.437 -0.4079  0.4723 -1.5118
10711TIP3    H253549   5.184   5.008   2.509  1.4255 -0.3112  1.9595
10712TIP3   OH253550   2.798   1.353  13.401  0.0798  0.1800  0.2236
10712TIP3    H153551   2.783   1.271  13.353  1.2115 -0.3941  0.8228
10712TIP3    H253552   2.800   1.421  13.334 -1.1925 -0.2274 -0.2488
10713TIP3   OH253553   3.860   1.651  16.371  0.5288 -0.0439  0.0502
10713TIP3    H153554   3.838   1.682  16.458  0.6683  1.1108 -0.3134
10713TIP3    H253555   3.821   1.564  16.366 -2.1861  1.1138  0.1681
10714TIP3   OH253556   5.579   2.273   2.312 -0.0449  0.1740 -0.2933
10714TIP3    H153557   5.668   2.250   2.284 -0.6314 -0.8130 -1.4263
10714TIP3    H253558   5.577   2.368   2.309  1.2178  0.2344  0.5146
10715TIP3   OH253559   2.177   3.723   4.379  0.2506 -0.6513  0.4076
10715TIP3    H153560   2.141   3.639   4.349 -2.6187  0.4124  0.6909
10715TIP3    H253561   2.116   3.752   4.447  1.2068  1.6428  0.3205
10716TIP3   OH253562   0.670   3.835   2.358  0.6996  0.0174  0.1611
10716TIP3    H153563   0.681   3.928   2.380  1.7888  0.2790 -1.4236
10716TIP3    H253564   0.733   3.790   2.414  0.4104  0.2740  0.6922
10717TIP3   OH253565   1.059   2.601  13.609  0.0123  0.2294  0.2048
10717TIP3    H153566   1.088   2.514  13.638 -2.0405 -0.0792  1.4020
10717TIP3    H253567   1.066   2.597  13.513  2.3732 -0.3503  0.3573
10718TIP3   OH253568   3.551   3.855  13.138  0.0234  0.6160 -0.1587
10718TIP3    H153569   3.590   3.913  13.072 -1.1759  1.0690 -0.4887
10718TIP3    H253570   3.557   3.768  13.100  1.0556  0.6202 -0.0333
10719TIP3   OH253571   4.626   6.109   4.949  0.3706  1.0865 -0.0650
10719TIP3    H153572   4.690   6.173   4.918 -0.6406  1.0985 -2.2738
10719TIP3    H253573   4.558   6.161   4.993  1.4371  1.1547  1.5075
10720TIP3   OH253574   5.992   6.386  11.739  0.0364 -0.2462 -0.0240
10720TIP3    H153575   5.944   6.467  11.755 -0.2063 -0.4624  0.3559
10720TIP3    H253576   5.995   6.343  11.825 -0.9187 -1.2213 -0.4732
10721TIP3   OH253577   4.743   1.491   0.585  0.3727 -0.2879  0.0381
10721TIP3    H153578   4.746   1.514   0.678  0.6634  2.0722 -0.5293
10721TIP3    H253579   4.771   1.400   0.582 -1.5776 -1.0134  2.4662
10722TIP3   OH253580   4.863   4.921  14.008  0.7520 -0.1332  0.2531
10722TIP3    H153581   4.788   4.937  13.951  1.6057 -0.0043 -0.8467
10722TIP3    H253582   4.828   4.930  14.097  0.0120  2.5009 -0.2643
10723TIP3   OH253583   3.398   0.409  11.327  0.5258  0.2911  0.0175
10723TIP3    H153584   3.357   0.366  11.251  0.6839  1.0757 -0.5215
10723TIP3    H253585   3.491   0.392  11.315  0.8247  2.8163 -1.5100
10724TIP3   OH253586   2.319   5.852  11.732 -0.3801 -0.0830  1.1078
10724TIP3    H153587   2.271   5.866  11.814  0.3006 -0.9168  1.6705
10724TIP3    H253588   2.360   5.936  11.713  1.7085 -0.5792  3.1295
10725TIP3   OH253589   3.056   3.748   3.716  0.2351  0.2133  0.6385
10725TIP3    H153590   3.111   3.683   3.673  0.0745  0.2441  0.3857
10725TIP3    H253591   2.972   3.704   3.731 -1.7572  1.9300 -4.3582
10726TIP3   OH253592   2.236   2.924   3.079 -0.2467  0.3442  0.5375
10726TIP3    H153593   2.158   2.960   3.123 -0.5213 -0.6302  0.8670
10726TIP3    H253594   2.284   2.880   3.149 -0.0759 -0.1905  0.0857
10727TIP3   OH253595   0.198   0.003  16.931 -0.6696  0.2327  0.6606
10727TIP3    H153596   0.232  -0.086  16.931 -1.5299 -0.1106 -0.1604
10727TIP3    H253597   0.103  -0.008  16.933 -0.7634  1.1464  1.5267
10728TIP3   OH253598   1.981   3.805   4.888  0.1820 -0.3485  0.0370
10728TIP3    H153599   1.924   3.880   4.904 -1.2396 -1.8209  2.2317
10728TIP3    H253600   2.050   3.812   4.953  1.0505 -0.0037 -0.9047
10729TIP3   OH253601   2.127   5.882  11.920  0.0993 -0.0307  0.0599
10729TIP3    H153602   2.110   5.975  11.910  1.3092  0.3240  1.1788
10729TIP3    H253603   2.076   5.856  11.996  1.3646  0.1666  0.9832
10730TIP3   OH253604   0.469   5.444  13.899  0.7362  0.6557 -0.4067
10730TIP3    H153605   0.539   5.485  13.848  1.5191  0.9244  0.8842
10730TIP3    H253606   0.504   5.436  13.987 -0.6314  0.2145  0.1124
10731TIP3   OH253607   0.772   4.685  13.110  0.2847  0.3775 -0.0117
10731TIP3    H153608   0.824   4.691  13.030  1.6897  1.2803  0.9511
10731TIP3    H253609   0.752   4.776  13.133 -1.1541  0.0729  0.0141
10732TIP3   OH253610   4.561   0.011   2.254 -0.1214 -0.3528 -0.4490
10732TIP3    H153611   4.585  -0.065   2.202 -1.4139 -0.1920 -1.3051
10732TIP3    H253612   4.644   0.055   2.272  0.6274 -1.9146  0.0001
10733TIP3   OH253613   6.201   2.402  11.550 -0.4434  0.1279 -0.3312
10733TIP3    H153614   6.124   2.346  11.554 -0.3238 -0.0895 -1.0563
10733TIP3    H253615   6.268   2.353  11.598 -0.6291  0.1149 -0.0843
10734TIP3   OH253616   5.607   4.201  13.295 -0.3026 -0.3190  0.0012
10734TIP3    H153617   5.623   4.281  13.345 -0.4008 -0.2530 -0.0718
10734TIP3    H253618   5.692   4.158  13.290 -0.6908 -1.3729  2.0162
10735TIP3   OH253619   2.161   4.508  13.888  0.1309  0.3880 -0.3379
10735TIP3    H153620   2.070   4.533  13.906 -0.1708 -1.1725  0.3715
10735TIP3    H253621   2.196   4.482  13.973  1.6322  2.1510 -0.3859
10736TIP3   OH253622   6.525   6.223   2.221 -0.6440  0.0529 -0.1748
10736TIP3    H153623   6.556   6.302   2.177  0.6375  0.0313  0.6913
10736TIP3    H253624   6.601   6.190   2.268 -0.9034 -2.2348 -1.2904
10737TIP3   OH253625   5.279   0.648  14.280 -0.2568 -0.6010 -0.0233
10737TIP3    H153626   5.233   0.572  14.317 -1.6560  0.4813  0.4769
10737TIP3    H253627   5.258   0.720  14.339  0.9246  0.2395 -0.5981
10738TIP3   OH253628   3.301   5.351  14.914 -0.1826 -0.5866  0.3327
10738TIP3    H153629   3.361   5.324  14.983  0.1364  1.1314  0.7448
10738TIP3    H253630   3.358   5.378  14.842 -0.4527  0.4074  0.4793
10739TIP3   OH253631   2.795   3.530  13.852 -0.2079  0.6511 -0.0689
10739TIP3    H153632   2.875   3.516  13.902 -0.7074  1.7181  1.0610
10739TIP3    H253633   2.745   3.594  13.903 -2.5454 -1.2572  0.1423
10740TIP3   OH253634   5.261   1.057   4.377 -0.0086 -0.0179  0.0221
10740TIP3    H153635   5.311   1.085   4.454 -0.0446 -0.5851  0.2541
10740TIP3    H253636   5.170   1.067   4.403 -0.0797  3.8425 -1.4131
10741TIP3   OH253637   1.326   4.725  14.856 -0.6163  0.2886  0.3606
10741TIP3    H153638   1.284   4.651  14.902 -0.1129  0.6947  1.5049
10741TIP3    H253639   1.269   4.799  14.875  1.0476  1.0314  2.6628
10742TIP3   OH253640   6.399   6.502  16.697 -0.1437  0.3124 -0.6206
10742TIP3    H153641   6.374   6.409  16.696 -1.2338  0.5537  1.5325
10742TIP3    H253642   6.480   6.504  16.748 -1.1091  0.7409  0.9334
10743TIP3   OH253643   3.907   4.075  17.009 -0.3521 -0.1295  0.0746
10743TIP3    H153644   3.973   4.006  17.009  0.2433  0.4430 -1.1456
10743TIP3    H253645   3.905   4.107  16.919 -1.7301  0.3971  0.2824
10744TIP3   OH253646   1.572   0.644   3.683 -0.3752  0.3412 -0.5491
10744TIP3    H153647   1.568   0.630   3.589  3.9041  1.9685 -1.1348
10744TIP3    H253648   1.623   0.570   3.717 -0.7859  0.4315  0.2926
10745TIP3   OH253649   6.383   6.246   1.527  0.4336 -0.2090  0.5009
10745TIP3    H153650   6.406   6.312   1.592 -0.4127 -0.3851  0.9809
10745TIP3    H253651   6.467   6.223   1.487  0.6191  1.8830 -0.3882
10746TIP3   OH253652   5.206   6.367  16.482 -0.5023  0.2685  0.5246
10746TIP3    H153653   5.141   6.314  16.435 -1.9776  0.8563  1.8517
10746TIP3    H253654   5.269   6.303  16.515 -0.2499 -0.2908 -1.0092
10747TIP3   OH253655   6.638   3.136  14.193  0.2609  0.2277  0.1343
10747TIP3    H153656   6.632   3.135  14.098 -0.5246 -1.9345  0.1837
10747TIP3    H253657   6.571   3.199  14.221  0.6247  1.0114 -0.7311
10748TIP3   OH253658   5.743   3.436   1.573  0.4902 -0.4796  0.2173
10748TIP3    H153659   5.717   3.528   1.572 -0.2937 -0.6820  0.8925
10748TIP3    H253660   5.784   3.421   1.489 -0.1815  0.2730 -0.2477
10749TIP3   OH253661   4.707   6.279  14.288  0.1364 -0.1941 -0.6455
10749TIP3    H153662   4.738   6.221  14.219 -2.5754 -1.9044 -0.5012
10749TIP3    H253663   4.645   6.337  14.244  0.5476  0.6155 -0.1755
10750TIP3   OH253664   1.319   4.471  14.198 -0.2624 -0.2040  0.2382
10750TIP3    H153665   1.333   4.543  14.260  1.4315  0.1658 -0.5492
10750TIP3    H253666   1.225   4.453  14.203 -1.4133  4.3982 -2.1011
10751TIP3   OH253667   5.753   5.691   2.225 -0.2828  0.3121  0.1129
10751TIP3    H153668   5.785   5.778   2.202 -0.5462  0.2779 -0.3930
10751TIP3    H253669   5.754   5.690   2.321  0.5251  0.5683  0.1108
10752TIP3   OH253670   4.783   5.047  11.795 -0.5272  0.1595  0.2136
10752TIP3    H153671   4.735   4.965  11.777  2.0905 -1.4517  0.3084
10752TIP3    H253672   4.743   5.111  11.736 -1.9407 -1.4560 -0.6379
10753TIP3   OH253673   1.545   5.946   0.120 -0.2371 -0.0683 -0.1710
10753TIP3    H153674   1.589   6.028   0.098  0.4536 -0.5154 -0.4716
10753TIP3    H253675   1.472   5.941   0.058 -1.4987  1.3005  1.1557
10754TIP3   OH253676   1.171   1.762  16.267 -0.0821 -0.3360  0.3194
10754TIP3    H153677   1.246   1.703  16.269  0.9456  0.9861  1.2914
10754TIP3    H253678   1.148   1.775  16.358 -1.7871 -1.0783  0.0103
10755TIP3   OH253679   6.753   0.018   4.385 -0.3404 -0.3491  0.0883
10755TIP3    H153680   6.732   0.005   4.478  2.0191 -1.4494  0.5079
10755TIP3    H253681   6.726   0.108   4.367 -2.6885 -0.7681  1.2946
10756TIP3   OH253682   0.074   3.324  15.811  0.4174 -0.5923 -0.4797
10756TIP3    H153683   0.032   3.324  15.897 -0.2067  1.5858 -0.7426
10756TIP3    H253684   0.164   3.297  15.827  0.2002 -0.5564  0.8197
10757TIP3   OH253685   2.704   5.387   1.662 -0.1902  0.7088 -1.0913
10757TIP3    H153686   2.794   5.363   1.640  1.0944  1.4831  2.9764
10757TIP3    H253687   2.654   5.307   1.650  1.8889 -0.9449  0.9199
10758TIP3   OH253688   1.567   5.946  11.456 -0.3637  0.0753 -0.4505
10758TIP3    H153689   1.540   5.901  11.376 -0.3541 -1.0097  0.1549
10758TIP3    H253690   1.662   5.948  11.451 -0.4467  2.2275 -1.6682
10759TIP3   OH253691   2.869   4.121   0.269 -0.1148  0.4528 -0.0294
10759TIP3    H153692   2.939   4.089   0.212 -0.9155 -1.1693 -0.1204
10759TIP3    H253693   2.788   4.097   0.224 -0.7438  0.9967  0.7956
10760TIP3   OH253694   6.173   5.764   5.495 -0.1912 -0.8226 -0.1194
10760TIP3    H153695   6.245   5.728   5.443 -0.3309 -1.8402  0.3657
10760TIP3    H253696   6.094   5.721   5.461 -0.4402 -0.5254  0.0704
10761TIP3   OH253697   1.665   0.611   1.191  0.1513  0.4173  0.8190
10761TIP3    H153698   1.755   0.594   1.216  0.2494 -3.0844 -1.5637
10761TIP3    H253699   1.671   0.674   1.119  0.7948 -0.4981  0.0583
10762TIP3   OH253700   1.065   2.181  11.159  0.3221  0.1238  0.4413
10762TIP3    H153701   1.071   2.242  11.086 -0.6679  1.1747  1.2217
10762TIP3    H253702   0.988   2.127  11.138 -0.2110  0.6970  0.8955
10763TIP3   OH253703   6.727   5.757   3.993 -0.0184  0.3579 -0.0350
10763TIP3    H153704   6.760   5.685   3.939 -2.3259 -0.1559 -0.7904
10763TIP3    H253705   6.659   5.718   4.047 -0.3331  1.6855  0.5476
10764TIP3   OH253706   0.947   5.930  16.339  0.1240  0.3947 -0.5936
10764TIP3    H153707   0.898   5.849  16.354  0.3453  0.0059 -1.8383
10764TIP3    H253708   1.034   5.913  16.375 -0.5976  1.0578  1.5463
10765TIP3   OH253709   0.300   6.478   6.323  0.0726  0.2891  0.2052
10765TIP3    H153710   0.275   6.413   6.258 -0.1063  1.6807 -1.1587
10765TIP3    H253711   0.394   6.467   6.334 -0.0743 -0.6740  0.5375
10766TIP3   OH253712   1.649   4.672   5.604  0.2300 -0.5032  0.0306
10766TIP3    H153713   1.722   4.732   5.585  0.2396 -0.8459 -1.0401
10766TIP3    H253714   1.648   4.665   5.700  1.8588 -0.8216  0.0316
10767TIP3   OH253715   4.636   1.898   1.008 -0.2332  0.6231 -0.8172
10767TIP3    H153716   4.694   1.973   0.999  0.7006 -0.1720 -1.4720
10767TIP3    H253717   4.640   1.876   1.101 -0.4695  1.3456 -0.6343
10768TIP3   OH253718   0.443   3.387   1.495 -1.2517 -0.0761  0.7090
10768TIP3    H153719   0.361   3.437   1.497 -0.5186  1.1124  2.4299
10768TIP3    H253720   0.489   3.413   1.575  0.8760 -0.6178 -0.3059
10769TIP3   OH253721   1.484   5.902  11.194  0.2468 -0.1811  0.1911
10769TIP3    H153722   1.427   5.927  11.121  0.4938 -1.1092 -0.3202
10769TIP3    H253723   1.569   5.940  11.173 -0.0506  0.7936  0.7196
10770TIP3   OH253724   0.482   4.971   4.957  0.2266  0.2795  1.1759
10770TIP3    H153725   0.492   5.062   4.928  1.5293  0.0253  0.7511
10770TIP3    H253726   0.522   4.969   5.043 -0.4759  0.2666  1.5024
10771TIP3   OH253727   0.115   3.730   0.075  0.1860 -0.2301  0.0830
10771TIP3    H153728   0.197   3.680   0.074  0.4969  0.2991 -1.5971
10771TIP3    H253729   0.055   3.676   0.127  2.2983  0.5657  3.4924
10772TIP3   OH253730   0.711   4.353   1.697 -0.2394 -0.1542  0.0650
10772TIP3    H153731   0.665   4.370   1.779 -3.5665  1.5931 -2.0528
10772TIP3    H253732   0.643   4.322   1.637  2.0919 -1.3272 -2.0753
10773TIP3   OH253733   2.643   2.557  11.218 -0.0107 -0.1836 -0.1166
10773TIP3    H153734   2.566   2.517  11.258  0.8224 -1.9883 -0.2487
10773TIP3    H253735   2.654   2.640  11.265  1.0849 -2.3248  3.6304
10774TIP3   OH253736   1.566   3.854   5.262  0.0550  0.3399 -0.7159
10774TIP3    H153737   1.597   3.919   5.199 -1.8468  0.0558 -1.9699
10774TIP3    H253738   1.489   3.895   5.303 -0.6216 -0.7619 -0.8750
10775TIP3   OH253739   3.439   5.608   3.329 -0.7560 -0.3067  0.0531
10775TIP3    H153740   3.476   5.661   3.259 -1.6992 -1.6698 -1.5358
10775TIP3    H253741   3.456   5.657   3.409  0.3132  1.3022 -1.1404
10776TIP3   OH253742   4.499   6.208   1.083 -0.1022  0.0112 -0.0197
10776TIP3    H153743   4.427   6.190   1.021  1.0344 -0.4048 -1.2433
10776TIP3    H253744   4.578   6.184   1.035  0.7903 -0.6200  1.7371
10777TIP3   OH253745   2.281   0.385   1.947  0.7249 -0.2676 -0.4793
10777TIP3    H153746   2.223   0.458   1.968 -0.1658 -0.8700 -0.8356
10777TIP3    H253747   2.358   0.399   2.003  0.3786  0.7061 -0.2365
10778TIP3   OH253748   2.656   5.110   5.243  0.0307 -0.1948  0.3675
10778TIP3    H153749   2.629   5.131   5.153 -0.6071 -1.6722  0.1987
10778TIP3    H253750   2.584   5.056   5.277  1.2367 -1.4003  1.0394
10779TIP3   OH253751   4.031   1.400  16.757  0.0480 -0.2317  0.0807
10779TIP3    H153752   3.962   1.366  16.700 -0.4758  0.2319  0.4426
10779TIP3    H253753   4.078   1.464  16.703  1.3910 -1.9104 -0.7939
10780TIP3   OH253754   4.236   0.753  11.490  0.0606 -0.1039  0.0895
10780TIP3    H153755   4.296   0.767  11.416  0.2240 -2.7004 -0.3229
10780TIP3    H253756   4.196   0.668  11.472  0.3340 -0.9257  3.1503
10781TIP3   OH253757   4.868   2.879  15.598  0.9577 -0.1556  0.0907
10781TIP3    H153758   4.948   2.882  15.651  0.3163  0.3510  1.0350
10781TIP3    H253759   4.855   2.969  15.568 -1.7069  0.7497  3.6557
10782TIP3   OH253760   3.900   4.098  10.235  0.3343 -0.0554 -0.1915
10782TIP3    H153761   3.897   4.003  10.242 -0.7003 -0.0484 -0.5348
10782TIP3    H253762   3.814   4.123  10.201  0.7831  0.9586 -0.6069
10783TIP3   OH253763   5.066   4.685  13.027 -0.5303 -0.2785  0.0898
10783TIP3    H153764   5.159   4.674  13.009 -0.7794  0.0326 -1.4204
10783TIP3    H253765   5.032   4.596  13.035 -0.4906 -0.4281 -1.3942
10784TIP3   OH253766   0.710   5.284   5.319  0.9045 -0.2459 -0.3771
10784TIP3    H153767   0.733   5.369   5.281 -0.8067  1.2351  1.7795
10784TIP3    H253768   0.632   5.257   5.271  0.7756 -0.0308 -0.2929
10785TIP3   OH253769   1.118   1.997  14.570  0.5543 -0.5141 -0.3844
10785TIP3    H153770   1.046   1.982  14.509  1.1964 -2.0750 -0.7736
10785TIP3    H253771   1.164   2.073  14.535 -0.4920  0.0936 -0.4923
10786TIP3   OH253772   4.846   2.144  11.298  0.1205  0.1017  0.2434
10786TIP3    H153773   4.914   2.095  11.253  0.5231  1.9803 -1.2959
10786TIP3    H253774   4.887   2.171  11.380  1.3323  1.3032 -0.7096
10787TIP3   OH253775   5.256   6.052  13.846 -0.0281 -0.2788 -0.6624
10787TIP3    H153776   5.263   6.123  13.910  2.9608  0.8930 -2.1969
10787TIP3    H253777   5.295   5.976  13.890  0.5899  0.1164 -0.5296
10788TIP3   OH253778   3.911   2.467   4.773  0.9318  0.0918 -0.2831
10788TIP3    H153779   4.002   2.437   4.774  1.4913  1.7570  0.6368
10788TIP3    H253780   3.860   2.390   4.801  2.0953 -0.7203 -0.3762
10789TIP3   OH253781   1.653   6.366  12.525 -0.3126 -0.0064 -0.5209
10789TIP3    H153782   1.636   6.276  12.497 -0.1467  0.0538 -0.8233
10789TIP3    H253783   1.734   6.390  12.480 -1.3019  0.8998 -1.8696
10790TIP3   OH253784   5.578   5.879  12.949  0.2908  0.2509  0.6667
10790TIP3    H153785   5.616   5.841  12.870  0.2925  1.1250  0.2502
10790TIP3    H253786   5.492   5.911  12.922 -0.6795 -1.5180  1.5551
10791TIP3   OH253787   6.709   5.301   0.139 -0.1133  0.8030  0.3781
10791TIP3    H153788   6.639   5.235   0.135 -1.0182  1.8243 -1.7658
10791TIP3    H253789   6.789   5.250   0.149 -1.0879 -0.4396  2.0700
10792TIP3   OH253790   3.086   1.833   0.159 -0.6195  0.8013 -0.1354
10792TIP3    H153791   3.153   1.880   0.209 -0.8823 -0.5449  1.5502
10792TIP3    H253792   3.134   1.761   0.118 -0.7642  0.7387 -0.1933
10793TIP3   OH253793   5.481   5.700   3.073  0.0658  0.0742  0.0224
10793TIP3    H153794   5.387   5.690   3.087 -0.1901  0.0416 -1.6250
10793TIP3    H253795   5.500   5.644   2.998  1.0240  1.6954 -0.9719
10794TIP3   OH253796   5.763   2.808   6.192 -0.2965  0.6923  0.0124
10794TIP3    H153797   5.673   2.787   6.217  0.0902  0.9690  1.7546
10794TIP3    H253798   5.808   2.724   6.192 -0.6667  0.4946 -1.3416
10795TIP3   OH253799   4.693   5.780   2.466 -0.2718 -0.2096  0.0230
10795TIP3    H153800   4.701   5.779   2.561  2.6204  2.2336 -0.1028
10795TIP3    H253801   4.634   5.853   2.447 -1.0731 -0.8726 -0.0709
10796TIP3   OH253802   5.986   6.179  11.545  0.1935  0.4995  0.0197
10796TIP3    H153803   5.994   6.255  11.603 -0.6694  0.6648 -0.0733
10796TIP3    H253804   6.014   6.105  11.599 -1.6451  0.4978  1.0077
10797TIP3   OH253805   0.266   5.634  15.451 -0.3926  0.5519 -0.3394
10797TIP3    H153806   0.282   5.584  15.531 -0.2032  1.4075  0.1555
10797TIP3    H253807   0.290   5.724  15.473 -1.0280  0.9207 -1.1423
10798TIP3   OH253808   4.568   2.752  14.064 -0.2618  0.1704  0.1311
10798TIP3    H153809   4.634   2.812  14.098  0.3869  0.3021 -1.3097
10798TIP3    H253810   4.486   2.801  14.072  0.2505  1.2406 -0.9449
10799TIP3   OH253811   4.750   0.028   3.402  0.5589 -0.5886  0.6261
10799TIP3    H153812   4.743   0.103   3.461  0.8509  0.5649 -0.7993
10799TIP3    H253813   4.778  -0.044   3.459  0.3500  0.3953  1.9880
10800TIP3   OH253814   6.429   5.533   2.230 -0.1186 -0.0201 -0.5721
10800TIP3    H153815   6.524   5.529   2.221  0.2955  1.8116  2.1743
10800TIP3    H253816   6.402   5.606   2.174 -0.0282 -1.0127 -1.9334
10801TIP3   OH253817   6.238   4.023   5.800 -0.3121  0.2017  0.2604
10801TIP3    H153818   6.184   3.965   5.747  0.2995  0.6715 -0.9068
10801TIP3    H253819   6.326   3.985   5.794  0.2569  1.6824 -1.2103
10802TIP3   OH253820   5.048   5.344   4.838 -0.2121 -0.2725  0.0725
10802TIP3    H153821   5.023   5.330   4.747 -1.2641 -1.3373  0.5152
10802TIP3    H253822   5.055   5.439   4.847  1.7165 -0.2433 -1.5839
10803TIP3   OH253823   1.113   0.986   2.418 -0.2023  0.7608 -0.2860
10803TIP3    H153824   1.086   1.077   2.433  1.6614  1.6693 -2.2179
10803TIP3    H253825   1.208   0.990   2.413 -0.1689 -1.1079 -1.6798
10804TIP3   OH253826   5.646   4.814  12.995 -0.4822  0.3833  0.1784
10804TIP3    H153827   5.717   4.759  12.961 -1.7958 -1.0814 -0.2774
10804TIP3    H253828   5.670   4.830  13.086  1.7770  2.1831 -0.6973
10805TIP3   OH253829   4.256   2.101  13.356  0.0834 -0.3266 -0.5990
10805TIP3    H153830   4.266   2.061  13.442 -2.2501  0.1537 -0.0597
10805TIP3    H253831   4.215   2.034  13.302  0.9351 -0.4020 -1.1705
10806TIP3   OH253832   1.197   3.730  15.438 -0.1189  0.0194  0.5720
10806TIP3    H153833   1.149   3.810  15.458  0.7315  0.4292  1.0409
10806TIP3    H253834   1.163   3.665  15.499  1.2890  0.8300  2.2790
10807TIP3   OH253835   5.620   4.861   2.219  0.1481  0.2061  0.4548
10807TIP3    H153836   5.669   4.783   2.194 -1.1995 -0.1424 -1.2087
10807TIP3    H253837   5.643   4.926   2.154  1.2836  1.2295  1.8526
10808TIP3   OH253838   0.350   2.619   0.208  0.0464 -0.3753 -0.2738
10808TIP3    H153839   0.318   2.544   0.258  0.6144  0.3461  1.2072
10808TIP3    H253840   0.407   2.666   0.269  0.0561  1.0220 -1.3292
10809TIP3   OH253841   6.594   4.781   2.417 -0.7899 -0.1871  0.1260
10809TIP3    H153842   6.631   4.825   2.340  0.7478 -1.5774  0.0401
10809TIP3    H253843   6.539   4.711   2.380 -1.2390  0.0771  0.2863
10810TIP3   OH253844   4.779   3.365  16.397  0.4368  0.4167  0.2630
10810TIP3    H153845   4.776   3.361  16.301  0.2412 -0.7500  0.3152
10810TIP3    H253846   4.864   3.405  16.416  0.4868  0.6352 -0.3971
10811TIP3   OH253847   1.572   1.643   6.119 -0.1497 -0.4228  0.6749
10811TIP3    H153848   1.667   1.655   6.118 -0.0506 -1.2234 -1.5165
10811TIP3    H253849   1.547   1.661   6.210  1.8113  1.8295  0.8156
10812TIP3   OH253850   6.581   6.358   0.881  0.1289 -0.3373 -0.0403
10812TIP3    H153851   6.575   6.271   0.922  2.2597 -0.2242  0.5469
10812TIP3    H253852   6.553   6.418   0.950 -0.7340 -0.5056 -0.2410
10813TIP3   OH253853   1.487   0.346  13.248  0.0335  0.6265  0.0436
10813TIP3    H153854   1.496   0.272  13.188 -0.6157  0.6283 -0.0617
10813TIP3    H253855   1.447   0.308  13.326 -1.4032  1.0767 -0.4513
10814TIP3   OH253856   1.441   1.302   1.578 -0.0768 -0.4536  0.1592
10814TIP3    H153857   1.523   1.347   1.598 -0.2944 -0.0435  0.1518
10814TIP3    H253858   1.467   1.214   1.551  0.2689 -0.7784  1.5219
10815TIP3   OH253859   1.363   5.319   0.938 -0.5775 -0.0847 -1.0665
10815TIP3    H153860   1.342   5.410   0.920 -0.5078 -0.3786 -2.6745
10815TIP3    H253861   1.283   5.271   0.917 -0.5584 -0.4201 -0.3917
10816TIP3   OH253862   0.227   6.298  16.186 -0.2133 -0.7523  0.0984
10816TIP3    H153863   0.143   6.339  16.165  1.0523  1.8376 -0.0359
10816TIP3    H253864   0.224   6.287  16.281 -0.7948 -0.8784  0.0677
10817TIP3   OH253865   2.074   6.179  11.907  0.0438  0.3640 -0.7416
10817TIP3    H153866   1.982   6.189  11.932  0.5050  0.6976  0.8966
10817TIP3    H253867   2.079   6.214  11.818 -1.0868  1.9415 -0.2150
10818TIP3   OH253868   3.738   4.336   6.090  0.0273 -0.0405  0.2572
10818TIP3    H153869   3.758   4.426   6.066 -0.9220 -0.1872 -1.1684
10818TIP3    H253870   3.822   4.299   6.118  0.7591  0.8092 -0.7831
10819TIP3   OH253871   1.010   6.370   5.768  1.3235  0.4256 -0.3216
10819TIP3    H153872   1.090   6.410   5.803  1.0728  0.8692 -0.2596
10819TIP3    H253873   1.042   6.310   5.700  1.6382  1.4349 -1.0840
10820TIP3   OH253874   3.655   0.114   5.140  0.4939  0.7172 -0.5998
10820TIP3    H153875   3.663   0.092   5.233 -0.9612  1.2459 -0.3510
10820TIP3    H253876   3.566   0.089   5.117  0.4928  1.6248 -1.5874
10821TIP3   OH253877   0.039   1.083  11.115  0.5243  0.4571  0.2626
10821TIP3    H153878   0.032   1.118  11.204  0.7999  1.3441 -0.0561
10821TIP3    H253879   0.040   1.161  11.059  1.2212 -0.0669 -0.4572
10822TIP3   OH253880   1.920   0.192  15.315  0.5448  0.3303 -0.6169
10822TIP3    H153881   1.849   0.159  15.369  0.2653  2.5542  0.4201
10822TIP3    H253882   1.976   0.116  15.299 -0.9747 -0.9856  0.2705
10823TIP3   OH253883   1.328   3.989   4.981  0.0848 -0.2491  0.2006
10823TIP3    H153884   1.417   4.021   4.995  0.5242 -1.4721  0.2473
10823TIP3    H253885   1.276   4.069   4.971  1.5132  0.4990 -1.8980
10824TIP3   OH253886   4.719   3.829   0.984 -0.0177  0.2505 -0.0815
10824TIP3    H153887   4.633   3.872   0.981  0.2192  0.7010 -0.5428
10824TIP3    H253888   4.776   3.894   1.027  0.6203  0.9020 -1.8584
10825TIP3   OH253889   6.126   4.702   4.254  0.1891 -0.0272 -0.0063
10825TIP3    H153890   6.064   4.691   4.327 -1.4112 -1.6007 -1.5625
10825TIP3    H253891   6.210   4.676   4.291 -0.1896  1.3264  1.9038
10826TIP3   OH253892   3.040   5.857   0.479 -0.0740 -0.0366  0.1763
10826TIP3    H153893   2.972   5.791   0.490 -2.0284  2.0519  0.9318
10826TIP3    H253894   3.002   5.921   0.418  1.3484  0.9629  0.3220
10827TIP3   OH253895   5.146   0.298   5.924  0.3010 -0.2335  0.3291
10827TIP3    H153896   5.088   0.233   5.963 -2.5942  0.9590 -1.8446
10827TIP3    H253897   5.089   0.351   5.868  3.4088  1.2275 -1.5847
10828TIP3   OH253898   4.268   1.438   3.646  0.4133 -0.1137  0.1214
10828TIP3    H153899   4.241   1.450   3.738 -0.3412 -1.8212  0.1271
10828TIP3    H253900   4.187   1.414   3.600  0.8458  0.4524 -0.9593
10829TIP3   OH253901   3.450   5.049  15.599  0.5580  0.6083  0.1862
10829TIP3    H153902   3.415   5.090  15.678 -0.7763  0.3283 -0.2311
10829TIP3    H253903   3.543   5.038  15.616  0.5205  1.7760  1.1784
10830TIP3   OH253904   0.223   6.022  14.270  0.7161  0.1982  0.1087
10830TIP3    H153905   0.144   5.991  14.226  2.3042 -0.7784 -2.1115
10830TIP3    H253906   0.250   6.100  14.221  1.6391 -0.0044  0.2843
10831TIP3   OH253907   2.229   1.095  12.657  0.0194  0.3275 -0.5019
10831TIP3    H153908   2.299   1.030  12.658  0.5909  0.9374 -0.4299
10831TIP3    H253909   2.268   1.172  12.615 -0.3736  0.9374  0.2313
10832TIP3   OH253910   5.262   0.078  11.038  0.1597 -0.1314  0.2039
10832TIP3    H153911   5.273   0.014  10.968  0.2995 -0.0994  0.1959
10832TIP3    H253912   5.346   0.124  11.042  0.0315  0.1050  0.1572
10833TIP3   OH253913   0.959   1.901  10.488 -0.5131 -0.2232  0.1496
10833TIP3    H153914   0.928   1.979  10.441  0.3820  0.5367  0.8151
10833TIP3    H253915   1.051   1.919  10.507  0.3487 -2.4245 -1.7060
10834TIP3   OH253916   0.337   3.026   2.827  0.5075 -0.3101 -0.4379
10834TIP3    H153917   0.402   3.025   2.898 -0.6616 -1.3893  0.6368
10834TIP3    H253918   0.300   3.115   2.830  1.1779 -0.0347 -0.3552
10835TIP3   OH253919   0.280   1.524  12.942 -0.1715  0.6667 -0.5219
10835TIP3    H153920   0.283   1.461  12.870 -0.2432  0.8440 -0.6802
10835TIP3    H253921   0.361   1.574  12.933  0.1254  0.2620 -0.0926
10836TIP3   OH253922   0.314   6.540   4.597  0.0945  0.4085 -0.1927
10836TIP3    H153923   0.323   6.605   4.527 -1.0901  1.5634  0.6936
10836TIP3    H253924   0.311   6.456   4.552 -1.0922  1.1702 -1.5919
10837TIP3   OH253925   1.191   1.837   3.072 -0.1957 -0.2344 -0.4755
10837TIP3    H153926   1.203   1.834   3.167 -0.3384 -0.9143 -0.4730
10837TIP3    H253927   1.103   1.873   3.060 -0.1364 -0.0488 -0.3565
10838TIP3   OH253928   1.675   4.360   1.179 -0.1478 -0.0924  0.3406
10838TIP3    H153929   1.647   4.423   1.246  2.2205  1.5135 -0.1161
10838TIP3    H253930   1.632   4.389   1.099  1.0435  1.0631  0.1024
10839TIP3   OH253931   6.070   1.928  16.425  0.0557 -0.0638  0.6573
10839TIP3    H153932   6.042   1.874  16.351 -0.5428 -0.0601  0.8800
10839TIP3    H253933   5.989   1.957  16.466  0.3845 -1.7972  2.6005
10840TIP3   OH253934   5.626   0.416   5.543 -0.1674 -0.2251  0.0648
10840TIP3    H153935   5.609   0.343   5.485 -0.1561  0.6198 -1.0213
10840TIP3    H253936   5.539   0.452   5.562  0.0152  1.5424 -2.1483
10841TIP3   OH253937   2.500   5.882  12.210  0.0943 -0.8926 -0.2171
10841TIP3    H153938   2.452   5.935  12.274  0.2702 -0.9403 -0.0465
10841TIP3    H253939   2.431   5.835  12.162 -0.0476 -0.7211 -0.1839
10842TIP3   OH253940   4.153   6.241  13.083  0.2609  0.1573 -0.1345
10842TIP3    H153941   4.184   6.220  12.995  1.6227 -0.6221  0.5254
10842TIP3    H253942   4.173   6.334  13.095  1.0744 -0.0071 -0.2330
10843TIP3   OH253943   6.443   4.693  16.839  0.2665 -0.0968 -0.5893
10843TIP3    H153944   6.475   4.740  16.762  0.4259 -0.4006 -0.7139
10843TIP3    H253945   6.399   4.615  16.803 -1.3286  0.7245 -0.4563
10844TIP3   OH253946   1.583   3.680  15.687  0.4402 -0.0186  0.6253
10844TIP3    H153947   1.526   3.740  15.638 -0.5371 -2.2523 -1.0927
10844TIP3    H253948   1.523   3.618  15.726  1.6085 -1.6916 -0.1863
10845TIP3   OH253949   5.644   4.151   1.984  0.0697  0.8483  0.5139
10845TIP3    H153950   5.553   4.157   2.014 -0.9246 -2.1969 -1.7168
10845TIP3    H253951   5.645   4.195   1.900 -0.6613 -3.7044 -2.0264
10846TIP3   OH253952   3.975   2.656   5.307 -0.7377 -0.1308 -0.2816
10846TIP3    H153953   3.880   2.666   5.311 -0.5068  1.8064  0.9511
10846TIP3    H253954   4.006   2.735   5.263  0.3598 -0.4394 -0.0874
10847TIP3   OH253955   0.427   3.377  15.047  0.4159  0.0195 -0.1127
10847TIP3    H153956   0.445   3.419  14.963 -1.1058  0.0773 -0.4243
10847TIP3    H253957   0.426   3.450  15.110  1.1649  0.0217 -0.0953
10848TIP3   OH253958   3.927   3.213  13.962  0.3734  0.1154 -0.0482
10848TIP3    H153959   3.845   3.179  13.926 -0.6631  0.9292  1.4573
10848TIP3    H253960   3.943   3.294  13.913  1.0616 -0.7853 -1.3343
10849TIP3   OH253961   2.723   2.942  15.244 -0.0132 -0.2491 -0.2228
10849TIP3    H153962   2.758   2.950  15.332  1.1386 -1.6133 -0.5346
10849TIP3    H253963   2.663   2.867  15.249 -2.3345  1.5568  0.1119
10850TIP3   OH253964   3.759   3.289   5.079  0.5591  0.1198  0.1688
10850TIP3    H153965   3.685   3.267   5.135  1.3267 -0.7955  0.8440
10850TIP3    H253966   3.815   3.345   5.133  1.1786 -0.5613  0.2467
10851TIP3   OH253967   4.268   1.474  13.947 -0.1526 -0.3941 -0.3449
10851TIP3    H153968   4.334   1.478  13.878  0.1362  1.6095  0.0062
10851TIP3    H253969   4.209   1.548  13.928 -1.4881 -1.3002  0.1499
10852TIP3   OH253970   1.079   0.967  15.376 -0.1624  0.0402 -0.2274
10852TIP3    H153971   1.134   0.921  15.312 -0.1021  0.7581 -0.6929
10852TIP3    H253972   1.035   1.035  15.325 -1.3356 -0.4066  0.1820
10853TIP3   OH253973   2.458   3.698  12.601  0.0878  0.1742 -0.3526
10853TIP3    H153974   2.433   3.654  12.682  0.9104 -0.0329 -0.2065
10853TIP3    H253975   2.473   3.789  12.627 -0.1670  0.2246 -0.3768
10854TIP3   OH253976   1.982   4.967  14.337 -0.4264  0.0591 -0.2245
10854TIP3    H153977   2.011   5.038  14.394  0.1505  0.1097 -0.5824
10854TIP3    H253978   2.063   4.926  14.306 -0.7422 -0.1382 -0.7950
10855TIP3   OH253979   5.888   5.989   0.482 -0.1110 -0.1418  0.0282
10855TIP3    H153980   5.875   6.027   0.394  0.7108  0.3321  0.1033
10855TIP3    H253981   5.969   6.029   0.513  0.8350 -2.0637  0.0807
10856TIP3   OH253982   5.316   0.848  11.563 -0.2352 -0.4777 -0.3381
10856TIP3    H153983   5.297   0.854  11.469  1.7571  2.3659 -0.6081
10856TIP3    H253984   5.301   0.937  11.596 -0.3743 -1.3183  1.9423
10857TIP3   OH253985   1.201   3.078   6.305 -0.0386  0.0637  0.1443
10857TIP3    H153986   1.274   3.044   6.358  0.1921  1.7509  0.9347
10857TIP3    H253987   1.227   3.167   6.282 -2.6464  1.4039  2.0549
10858TIP3   OH253988   2.412   3.476   2.539 -0.1298 -0.0718  0.7817
10858TIP3    H153989   2.402   3.570   2.530  0.2478  0.0724  1.8050
10858TIP3    H253990   2.504   3.463   2.564  0.2044 -0.8180 -0.7357
10859TIP3   OH253991   5.111   1.365   3.721  0.1528  1.2740 -0.2415
10859TIP3    H153992   5.063   1.308   3.781  2.0328 -0.8456 -0.6995
10859TIP3    H253993   5.080   1.341   3.634  1.4840  0.3814 -0.4884
10860TIP3   OH253994   1.059   1.600  11.940 -0.1959  0.1032  0.7814
10860TIP3    H153995   1.089   1.509  11.938  2.2128  0.8743 -0.1784
10860TIP3    H253996   0.975   1.599  11.894 -0.1715 -1.6007  0.7239
10861TIP3   OH253997   5.125   6.596  12.943  0.2671 -0.0450  0.0464
10861TIP3    H153998   5.194   6.635  12.997 -1.7467  2.3232  1.0236
10861TIP3    H253999   5.134   6.639  12.858  0.7908 -0.6932 -0.2323
10862TIP3   OH254000   0.439   6.699  15.454 -0.5150 -0.3748  0.0539
10862TIP3    H154001   0.351   6.697  15.490  0.3259  0.3830  2.2477
10862TIP3    H254002   0.480   6.618  15.485  0.4702  0.6626  1.5574
10863TIP3   OH254003   4.661   4.148  16.280 -0.2666 -0.0057  0.2810
10863TIP3    H154004   4.717   4.073  16.296 -1.3962 -0.8016  0.5736
10863TIP3    H254005   4.574   4.111  16.268 -1.1717  1.3790  2.2706
10864TIP3   OH254006   3.580   6.227   5.252  0.5062 -0.0133  0.3545
10864TIP3    H154007   3.526   6.160   5.210  1.9187  0.4817 -2.3554
10864TIP3    H254008   3.537   6.309   5.229  0.3392  0.1667  1.3153
10865TIP3   OH254009   5.095   1.283   1.995  0.3114 -0.1433 -0.4126
10865TIP3    H154010   5.147   1.339   1.937  0.4393  1.9715  1.6613
10865TIP3    H254011   5.038   1.234   1.936  0.1839  2.2065 -2.2989
10866TIP3   OH254012   0.658   2.837  11.018  0.1915 -0.6767  0.3059
10866TIP3    H154013   0.646   2.771  10.950 -0.1801 -0.3943  0.0942
10866TIP3    H254014   0.640   2.920  10.973 -1.2385 -0.5817  1.0482
10867TIP3   OH254015   5.366   1.973   3.043 -0.4357  0.2346 -0.2133
10867TIP3    H154016   5.406   2.014   2.967  0.0304 -1.0712 -0.6881
10867TIP3    H254017   5.381   2.035   3.115 -2.2828  2.2263 -1.4656
10868TIP3   OH254018   2.087   5.008  13.359  0.1298 -0.0363 -0.3643
10868TIP3    H154019   2.057   5.077  13.418  0.5574 -0.6960  0.6308
10868TIP3    H254020   2.044   4.929  13.391  3.0989 -1.0549  1.2606
10869TIP3   OH254021   6.160   4.049  13.815 -0.1293 -0.1032  0.3454
10869TIP3    H154022   6.129   3.986  13.879 -1.2835  0.8823  0.7830
10869TIP3    H254023   6.159   4.133  13.862 -0.0304  0.4669 -0.6548
10870TIP3   OH254024   3.658   1.800  10.410  0.0197  0.5816  0.6418
10870TIP3    H154025   3.593   1.862  10.377  0.2246  0.9451  0.9191
10870TIP3    H254026   3.613   1.752  10.480 -0.7784 -0.9592 -0.8634
10871TIP3   OH254027   3.992   2.775   3.658 -0.0279  0.1245 -0.3032
10871TIP3    H154028   4.010   2.682   3.646  0.8302 -0.1006  2.3809
10871TIP3    H254029   4.077   2.813   3.680 -0.9686  0.8460  2.3308
10872TIP3   OH254030   5.376   2.231  14.765 -0.4058  0.5655  0.2840
10872TIP3    H154031   5.412   2.261  14.681  0.6252 -0.6131  0.2967
10872TIP3    H254032   5.428   2.277  14.831 -1.1562  1.4234  0.2874
10873TIP3   OH254033   4.713   3.304  11.837 -0.5150 -0.1575  0.6265
10873TIP3    H154034   4.752   3.290  11.750 -2.0424 -1.1560  0.0808
10873TIP3    H254035   4.655   3.229  11.849 -4.1290  2.4331  0.3538
10874TIP3   OH254036   1.489   0.929   4.782 -0.0396  0.1945 -0.0065
10874TIP3    H154037   1.572   0.886   4.761 -0.4397 -0.7043  0.2406
10874TIP3    H254038   1.484   0.925   4.878 -1.2970 -1.5258 -0.1225
10875TIP3   OH254039   3.101   4.391   1.727 -0.0535  0.7773  0.3069
10875TIP3    H154040   3.095   4.478   1.688 -0.6657  0.9176  0.7058
10875TIP3    H254041   3.012   4.373   1.759 -0.5734 -1.0132 -1.9532
10876TIP3   OH254042   5.846   5.806   4.342 -0.1243  0.1395 -0.2967
10876TIP3    H154043   5.819   5.891   4.376 -1.3022 -0.1855 -0.3872
10876TIP3    H254044   5.933   5.820   4.307 -0.6732  1.5197 -1.1239
10877TIP3   OH254045   3.622   6.335   5.507 -0.7864 -0.2300 -0.7358
10877TIP3    H154046   3.606   6.277   5.433  0.4845 -0.6306 -0.6973
10877TIP3    H254047   3.664   6.412   5.469 -3.3114  1.1051 -0.9264
10878TIP3   OH254048   6.738   6.308  17.041  0.2236  0.2012 -0.0463
10878TIP3    H154049   6.693   6.305  16.957 -3.2326 -2.4005  1.7749
10878TIP3    H254050   6.784   6.224  17.047 -0.6769 -0.2161  1.2179
10879TIP3   OH254051   2.163   0.024   3.310 -0.2244  0.3501 -0.5323
10879TIP3    H154052   2.108  -0.026   3.370 -0.2270  1.3907  0.3515
10879TIP3    H254053   2.220  -0.042   3.270  0.0384 -0.3231  0.8963
10880TIP3   OH254054   1.459   1.272   6.615  0.5649  0.4360  0.1773
10880TIP3    H154055   1.527   1.207   6.629  1.4718  1.6797  1.7072
10880TIP3    H254056   1.446   1.273   6.520  2.3734 -0.1324 -0.0954
10881TIP3   OH254057   4.674   6.513   4.341 -0.4377 -0.2094  0.2291
10881TIP3    H154058   4.605   6.450   4.317  0.5532 -1.1630 -0.1672
10881TIP3    H254059   4.646   6.547   4.426 -0.6200 -1.7439  0.8025
10882TIP3   OH254060   6.049   1.367  14.594  0.2581  0.1936 -0.7284
10882TIP3    H154061   6.112   1.345  14.663 -0.1327 -0.9129 -0.7137
10882TIP3    H254062   6.100   1.419  14.532  0.8580  0.3852 -0.0848
10883TIP3   OH254063   4.037   3.797   5.570 -0.0772  0.1761 -0.3650
10883TIP3    H154064   4.133   3.797   5.567 -0.1009  0.3276 -1.3855
10883TIP3    H254065   4.014   3.889   5.583 -0.0690  0.0388  0.6316
10884TIP3   OH254066   0.569   2.914   2.637  0.6346 -0.0049 -0.4500
10884TIP3    H154067   0.476   2.919   2.657  0.5431  0.2667 -0.9129
10884TIP3    H254068   0.613   2.915   2.722  0.2033 -0.4749 -0.2191
10885TIP3   OH254069   3.042   5.977  16.982 -0.4890  0.0245  0.6568
10885TIP3    H154070   3.093   5.931  16.916 -0.3341 -1.7364  1.9664
10885TIP3    H254071   3.072   5.940  17.065 -2.4608  0.4056  1.5628
10886TIP3   OH254072   1.671   4.953   5.165 -0.1214  0.0937  0.1348
10886TIP3    H154073   1.674   5.048   5.175  0.9938  0.0839 -0.0366
10886TIP3    H254074   1.605   4.924   5.228  1.0811  0.7896  1.7489
10887TIP3   OH254075   4.192   6.146   2.883  0.2180  0.3084 -0.3503
10887TIP3    H154076   4.271   6.096   2.860  0.9681  0.9270  0.8256
10887TIP3    H254077   4.204   6.230   2.840  0.3319  0.4979  0.0501
10888TIP3   OH254078   2.207   3.978  14.786 -0.0835 -0.5277 -0.0385
10888TIP3    H154079   2.218   3.969  14.881 -0.8587 -2.7571 -0.1301
10888TIP3    H254080   2.203   4.072  14.771 -1.9016 -0.1761  2.3888
10889TIP3   OH254081   6.141   4.537  11.318 -0.2656  0.4327 -0.2799
10889TIP3    H154082   6.206   4.469  11.339 -2.1211 -1.2219  0.2363
10889TIP3    H254083   6.064   4.488  11.291 -0.5781  2.4265 -3.1565
10890TIP3   OH254084   0.148   6.388  11.206  0.1072  0.0021  0.2381
10890TIP3    H154085   0.207   6.408  11.279  0.6028 -0.1205 -0.1284
10890TIP3    H254086   0.142   6.470  11.157 -0.8505  0.3081  0.8567
10891TIP3   OH254087   4.249   1.323   5.649 -0.1749 -0.3448 -0.1427
10891TIP3    H154088   4.286   1.379   5.717 -0.3207 -0.5151  0.0776
10891TIP3    H254089   4.239   1.237   5.691 -0.4777 -0.3929 -0.3094
10892TIP3   OH254090   4.919   3.288   3.336 -0.0131  0.0983  0.1166
10892TIP3    H154091   4.826   3.306   3.327  0.0022 -0.2184 -0.7106
10892TIP3    H254092   4.923   3.212   3.394 -0.3373 -0.7051 -0.8939
10893TIP3   OH254093   1.603   1.709   1.042 -0.4355 -0.1018 -0.1221
10893TIP3    H154094   1.527   1.658   1.016 -1.2022 -0.5865  2.8620
10893TIP3    H254095   1.577   1.800   1.029 -1.5750 -0.2598  0.9343
10894TIP3   OH254096   6.772   6.166  14.853  0.1328  0.1304 -0.2004
10894TIP3    H154097   6.774   6.190  14.760  1.4227  0.8985  0.0211
10894TIP3    H254098   6.835   6.224  14.895 -0.9775  0.3121  1.2931
10895TIP3   OH254099   5.073   6.225  12.652 -0.3460  0.2094  0.3941
10895TIP3    H154100   5.093   6.133  12.634  0.9660  0.6465 -0.5174
10895TIP3    H254101   5.120   6.244  12.733  2.1509  0.9348 -1.1612
10896TIP3   OH254102   0.925   4.763   5.325  0.7464 -0.3563  0.0672
10896TIP3    H154103   0.882   4.840   5.363  0.8636  1.3907 -3.1485
10896TIP3    H254104   1.000   4.747   5.382 -1.5302 -0.6694  3.1516
10897TIP3   OH254105   1.025   6.117  12.210 -0.6884  0.2118 -0.4703
10897TIP3    H154106   0.951   6.137  12.268 -1.2761 -0.8301 -0.8454
10897TIP3    H254107   0.999   6.151  12.125 -0.9561 -0.6036 -0.7174
10898TIP3   OH254108   4.141   1.607   5.716  0.1733 -0.0031  0.1323
10898TIP3    H154109   4.159   1.537   5.654 -1.3596  0.6300 -1.0752
10898TIP3    H254110   4.045   1.606   5.726  0.3585  0.2383  2.0926
10899TIP3   OH254111   0.370   1.554   3.974 -0.0020  0.2080 -0.6663
10899TIP3    H154112   0.373   1.569   3.880 -1.3455 -0.8978 -0.9064
10899TIP3    H254113   0.285   1.512   3.989  0.5507 -0.3923  0.9120
10900TIP3   OH254114   0.160   2.524  11.562  0.5234  0.3851 -0.2065
10900TIP3    H154115   0.136   2.572  11.483 -0.1790 -0.6333 -0.6270
10900TIP3    H254116   0.223   2.581  11.607  0.5378  1.1944 -1.2365
10901TIP3   OH254117   2.168   6.680   6.410  0.0576  0.4939  0.1886
10901TIP3    H154118   2.262   6.679   6.429  0.1242  1.3678 -0.1073
10901TIP3    H254119   2.141   6.589   6.423  0.5254  0.6433  2.2830
10902TIP3   OH254120   2.996   4.015   5.232 -0.1012 -0.1233  0.2927
10902TIP3    H154121   2.916   4.029   5.181  0.0632 -0.8716 -0.1777
10902TIP3    H254122   2.987   3.926   5.266  0.6677 -0.3277 -0.0214
10903TIP3   OH254123   1.624   5.165  12.803  0.0528  0.3195 -0.5393
10903TIP3    H154124   1.688   5.183  12.734 -0.8208  2.4852 -0.8510
10903TIP3    H254125   1.545   5.209  12.773 -0.4277  1.0344  1.6856
10904TIP3   OH254126   6.623   2.846   4.027  0.2543 -0.7114  0.0030
10904TIP3    H154127   6.544   2.825   4.077  0.0237 -0.5238 -0.2744
10904TIP3    H254128   6.592   2.853   3.936  0.1361  1.7469  0.2029
10905TIP3   OH254129   1.855   2.760   3.237  0.2867 -0.2087 -0.0993
10905TIP3    H154130   1.793   2.811   3.290  1.5584  0.2681  0.9441
10905TIP3    H254131   1.933   2.753   3.291  0.8954 -1.4470 -1.1113
10906TIP3   OH254132   5.669   1.694  16.078  0.0212  0.2031  0.5447
10906TIP3    H154133   5.630   1.609  16.096 -0.2001  0.8597  3.3187
10906TIP3    H254134   5.749   1.675  16.029 -0.7233 -1.4919 -0.0377
10907TIP3   OH254135   6.230   2.943   0.671 -0.0208 -0.2882  0.1573
10907TIP3    H154136   6.268   2.907   0.752 -1.4876 -1.3743  0.3980
10907TIP3    H254137   6.258   3.034   0.670 -0.3553 -0.1290  2.1558
10908TIP3   OH254138   4.117   2.214   2.204 -0.4726  0.0895  0.2717
10908TIP3    H154139   4.120   2.235   2.110  0.5009 -1.4147 -0.0337
10908TIP3    H254140   4.165   2.285   2.246  0.0299  0.1880 -0.4681
10909TIP3   OH254141   2.722   6.745  11.411 -0.4995  0.4018 -0.5864
10909TIP3    H154142   2.769   6.687  11.472 -1.6498 -0.3083 -0.3682
10909TIP3    H254143   2.724   6.698  11.328 -0.8789  0.3532 -0.5668
10910TIP3   OH254144   1.708   2.059  15.454  0.5881  0.1556 -0.5474
10910TIP3    H154145   1.616   2.064  15.482  0.3340 -0.6499 -1.1943
10910TIP3    H254146   1.746   1.991  15.509  0.4155 -0.5286 -1.2584
10911TIP3   OH254147   0.740   4.788   4.805  0.3518  0.0279 -0.1161
10911TIP3    H154148   0.692   4.782   4.888  1.2974 -1.5941  0.3356
10911TIP3    H254149   0.829   4.811   4.831  0.7495 -0.8908 -0.6435
10912TIP3   OH254150   6.383   1.598  12.290  0.1101  0.4718  0.2735
10912TIP3    H154151   6.335   1.681  12.285 -1.1243 -0.2179  0.3022
10912TIP3    H254152   6.422   1.598  12.377 -0.7330  0.5808  0.6581
10913TIP3   OH254153   3.771   3.578  17.055 -0.7641 -0.1286  0.1114
10913TIP3    H154154   3.831   3.637  17.100 -2.0455  2.2362 -1.2196
10913TIP3    H254155   3.747   3.624  16.975 -3.1743 -1.6883 -0.1149
10914TIP3   OH254156   6.573   6.554  13.943  0.6696  0.6109 -0.2812
10914TIP3    H154157   6.519   6.631  13.962 -1.4058 -0.5058 -1.3851
10914TIP3    H254158   6.589   6.514  14.028 -0.4691  0.8433  0.0524
10915TIP3   OH254159   5.531   3.916   0.823  0.1424 -0.5404 -0.0442
10915TIP3    H154160   5.541   3.873   0.738  0.1887 -0.2281 -0.1990
10915TIP3    H254161   5.527   4.009   0.801 -1.8116 -0.5674  0.1239
10916TIP3   OH254162   1.000   0.514  10.614 -0.0690  0.2343 -0.5154
10916TIP3    H154163   1.047   0.448  10.563  0.7393  1.7274 -1.7498
10916TIP3    H254164   0.908   0.499  10.595  0.1733  0.1651 -1.6900
10917TIP3   OH254165   0.284   1.400  12.431  0.2243  0.0299 -1.0011
10917TIP3    H154166   0.282   1.484  12.386  1.5717  0.6818  0.1337
10917TIP3    H254167   0.207   1.353  12.398 -1.2748  2.1977 -0.6643
10918TIP3   OH254168   2.220   0.241   4.780 -0.1670  0.0065  0.0831
10918TIP3    H154169   2.186   0.172   4.723  0.0020  0.4090 -0.5031
10918TIP3    H254170   2.307   0.211   4.805 -1.5137 -1.8162  2.8977
10919TIP3   OH254171   6.548   0.628   1.923 -0.9078  0.3915 -0.0517
10919TIP3    H154172   6.622   0.634   1.983 -1.3643  0.4671  0.5036
10919TIP3    H254173   6.568   0.691   1.854 -0.3884  0.3090  0.0212
10920TIP3   OH254174   3.665   0.411  14.742  0.2040 -0.3638 -0.2641
10920TIP3    H154175   3.618   0.332  14.716 -2.3113  0.9265  0.1002
10920TIP3    H254176   3.741   0.415  14.684  0.0767 -2.7494 -0.6336
10921TIP3   OH254177   4.085   6.214  15.913  0.0939 -0.2506 -0.2593
10921TIP3    H154178   4.104   6.293  15.863 -2.9035  0.8104  0.2097
10921TIP3    H254179   4.127   6.229  15.998 -0.3096  0.7595 -0.2330
10922TIP3   OH254180   0.932   4.295   5.811  0.5423 -0.6266  0.2602
10922TIP3    H154181   0.995   4.358   5.778  0.7617 -0.7860  0.3768
10922TIP3    H254182   0.985   4.225   5.850  0.3004 -0.9092  0.0824
10923TIP3   OH254183   4.664   3.135  11.415  0.5288 -0.8090  0.2488
10923TIP3    H154184   4.666   3.230  11.400  1.9264 -0.4737  2.3547
10923TIP3    H254185   4.686   3.097  11.330 -2.8480  0.6210 -1.3923
10924TIP3   OH254186   4.571   4.946  15.906 -0.2075 -0.7386 -0.5798
10924TIP3    H154187   4.572   4.876  15.840  0.8826 -0.2697 -1.0631
10924TIP3    H254188   4.529   5.019  15.862 -1.5263 -1.1268 -0.0093
10925TIP3   OH254189   0.922   2.554  16.626  0.2983 -0.1100  0.0419
10925TIP3    H154190   0.828   2.572  16.632  0.5891  1.6080 -0.2680
10925TIP3    H254191   0.927   2.461  16.605 -1.3140 -0.4047  0.8471
10926TIP3   OH254192   5.736   3.249   2.838  0.1566 -0.6007  0.4702
10926TIP3    H154193   5.805   3.272   2.900  0.2542  0.0440  0.1290
10926TIP3    H254194   5.768   3.169   2.795  0.5818 -0.4387  0.4816
10927TIP3   OH254195   5.148   2.160  13.274 -0.0263  0.1262  0.3170
10927TIP3    H154196   5.127   2.246  13.310 -1.7864 -0.6728  1.2916
10927TIP3    H254197   5.125   2.099  13.343  0.2260 -1.1957 -0.7481
10928TIP3   OH254198   2.256   6.456  11.748 -0.0273  0.1569 -0.5012
10928TIP3    H154199   2.214   6.382  11.703  2.3062 -0.9129 -0.9860
10928TIP3    H254200   2.331   6.479  11.693  1.1689  0.7517  1.3186
10929TIP3   OH254201   6.685   1.193  14.315 -0.0499  0.4227 -0.6964
10929TIP3    H154202   6.700   1.247  14.393  2.3271 -0.9085 -0.1909
10929TIP3    H254203   6.669   1.105  14.349  0.3152 -0.0405 -1.6950
10930TIP3   OH254204   1.738   6.736   5.235  0.2630  0.0848 -0.2185
10930TIP3    H154205   1.644   6.730   5.218 -0.2879  0.6322  2.4841
10930TIP3    H254206   1.766   6.816   5.190 -0.4551 -0.3123 -1.3882
10931TIP3   OH254207   3.925   1.507  12.157 -0.0606  0.4959 -0.4821
10931TIP3    H154208   3.912   1.479  12.066 -1.3559  0.1648 -0.2019
10931TIP3    H254209   3.872   1.586  12.165  1.2835  1.4093 -0.4462
10932TIP3   OH254210   4.555   0.483   3.862 -0.2705  0.5042  0.2878
10932TIP3    H154211   4.560   0.566   3.911 -0.4854 -0.0146  1.2057
10932TIP3    H254212   4.463   0.456   3.871  0.1277 -0.5612  1.2189
10933TIP3   OH254213   2.794   6.069  15.314 -0.3901 -0.1279  0.3092
10933TIP3    H154214   2.806   6.142  15.253 -1.2623 -0.0201  0.2592
10933TIP3    H254215   2.876   6.065  15.363 -0.2731  0.7778  0.1945
10934TIP3   OH254216   0.975   6.550   3.212 -0.6957  0.4358  0.4082
10934TIP3    H154217   1.035   6.477   3.199 -0.9268  0.3950 -0.4526
10934TIP3    H254218   0.990   6.608   3.137 -1.7706  0.3945  0.1515
10935TIP3   OH254219   3.236   0.259  16.202 -0.5710  1.1537  0.4144
10935TIP3    H154220   3.160   0.295  16.156 -0.1067  0.8241 -0.6415
10935TIP3    H254221   3.277   0.201  16.138  0.7017  1.5119  0.8909
10936TIP3   OH254222   6.615   4.757   0.779 -0.6033 -0.0433 -0.1796
10936TIP3    H154223   6.587   4.684   0.723 -0.3934 -0.4519  0.2486
10936TIP3    H254224   6.640   4.826   0.717  1.0663 -1.0188 -0.6191
10937TIP3   OH254225   6.478   6.453   5.586 -0.0748  0.0977 -0.5737
10937TIP3    H154226   6.525   6.396   5.525  1.0255  1.3838 -0.9525
10937TIP3    H254227   6.410   6.495   5.532  0.6212  0.9087 -0.8264
10938TIP3   OH254228   1.944   2.243   0.513 -0.1485 -0.4996 -0.3268
10938TIP3    H154229   1.989   2.326   0.532  0.6092 -1.0606  0.3468
10938TIP3    H254230   1.994   2.177   0.560 -1.9778 -1.0786  0.8711
10939TIP3   OH254231   0.791   1.354  14.463 -0.3212 -0.1928 -0.6099
10939TIP3    H154232   0.874   1.364  14.510 -0.1701  0.3415 -0.9819
10939TIP3    H254233   0.795   1.266  14.426  0.2983  0.0049 -1.0365
10940TIP3   OH254234   6.341   4.061   0.370 -0.0031  0.2148  0.0417
10940TIP3    H154235   6.347   4.001   0.444  1.6301  0.1085 -0.1592
10940TIP3    H254236   6.352   4.148   0.409 -0.9372  0.2845  0.1512
10941TIP3   OH254237   5.565   1.125   3.194 -0.6940 -0.0779 -0.3836
10941TIP3    H154238   5.487   1.132   3.139 -0.6728  2.2253 -0.2010
10941TIP3    H254239   5.532   1.136   3.283 -0.2737 -0.0286 -0.2319
10942TIP3   OH254240   6.717   3.724  15.584 -0.6620  0.7856  0.0924
10942TIP3    H154241   6.779   3.747  15.514  0.4041 -2.6878 -0.2059
10942TIP3    H254242   6.753   3.767  15.662  1.3125  0.0688 -0.3823
10943TIP3   OH254243   6.426   0.862   3.838  0.2541  0.3845  0.5406
10943TIP3    H154244   6.488   0.933   3.822  0.1000  0.3885 -0.0483
10943TIP3    H254245   6.374   0.857   3.757 -0.2713  0.1450  0.8904
10944TIP3   OH254246   2.118   0.002   1.371 -0.4684  0.3173 -0.0229
10944TIP3    H154247   2.077  -0.083   1.353 -1.4446  1.4295 -3.2697
10944TIP3    H254248   2.049   0.051   1.417 -0.4334 -0.1018  0.4872
10945TIP3   OH254249   0.609   4.920  14.893 -0.4550 -0.4068 -0.0701
10945TIP3    H154250   0.526   4.923  14.846  0.4011 -1.3195 -1.6825
10945TIP3    H254251   0.601   4.987  14.961 -1.3194  1.6491 -2.1390
10946TIP3   OH254252   1.186   1.428  12.415  0.4842 -0.1572 -0.1884
10946TIP3    H154253   1.179   1.520  12.439  0.7739  0.3633 -2.0739
10946TIP3    H254254   1.122   1.416  12.346  0.5794 -1.3346 -0.0871
10947TIP3   OH254255   5.811   6.128  11.305  0.3195  0.5618 -0.0980
10947TIP3    H154256   5.845   6.157  11.390  0.9498 -0.1838 -0.0900
10947TIP3    H254257   5.887   6.094  11.259 -0.6407 -2.5350  0.4945
10948TIP3   OH254258   2.876   1.080  14.348 -0.1821 -0.1754  0.7948
10948TIP3    H154259   2.875   1.161  14.297 -0.2847 -0.2028  0.7534
10948TIP3    H254260   2.803   1.089  14.409 -1.7029 -1.2560 -0.8113
10949TIP3   OH254261   4.575   3.346   3.785 -0.2109 -0.1596 -0.0558
10949TIP3    H154262   4.528   3.275   3.829  0.8804  0.5825  2.3568
10949TIP3    H254263   4.507   3.410   3.764 -0.6873 -0.3855  0.7993
10950TIP3   OH254264   3.555   2.049   0.235  0.1135 -0.0770 -0.4332
10950TIP3    H154265   3.614   1.980   0.266  0.5456  0.6470  0.3723
10950TIP3    H254266   3.545   2.108   0.310 -2.0797 -0.4798 -0.3662
10951TIP3   OH254267   3.158   0.739  16.168  0.1782 -0.4387  0.3581
10951TIP3    H154268   3.207   0.821  16.170  1.9625 -1.4050 -1.6650
10951TIP3    H254269   3.215   0.676  16.212  0.6725 -1.5205 -1.7800
10952TIP3   OH254270   4.808   6.420   5.091  0.3754  0.8274  0.0135
10952TIP3    H154271   4.850   6.337   5.069  1.2119  1.0633  0.6906
10952TIP3    H254272   4.852   6.484   5.035 -0.2500  0.8307 -0.4884
10953TIP3   OH254273   2.394   4.548  15.391  0.7205 -0.1407 -0.2567
10953TIP3    H154274   2.446   4.628  15.402  0.3076 -0.0598  1.1802
10953TIP3    H254275   2.424   4.491  15.461 -0.2344 -0.5774 -0.1983
10954TIP3   OH254276   5.000   1.835   3.107 -0.2769  0.0799 -0.9041
10954TIP3    H154277   4.946   1.775   3.054 -1.0314 -0.6714  0.6773
10954TIP3    H254278   4.965   1.922   3.088 -1.1015 -0.2655 -0.9871
10955TIP3   OH254279   6.738   4.804   3.429 -0.7246  0.2954 -0.3754
10955TIP3    H154280   6.657   4.800   3.478  0.5623 -1.7773  1.6572
10955TIP3    H254281   6.778   4.887   3.456 -1.3925  0.5525 -0.1621
10956TIP3   OH254282   6.507   4.659  12.212  0.9243  0.0958 -0.0048
10956TIP3    H154283   6.578   4.669  12.275  1.8866 -2.6421 -0.5915
10956TIP3    H254284   6.436   4.618  12.261  1.0714 -0.5135 -0.3004
10957TIP3   OH254285   0.195   5.261  15.592 -0.3800 -0.0240  0.4638
10957TIP3    H154286   0.159   5.253  15.680 -1.1932 -0.6629  0.0737
10957TIP3    H254287   0.270   5.320  15.602 -0.9827  0.5789  1.4325
10958TIP3   OH254288   1.331   3.052  12.684  0.6784 -0.2410  0.1391
10958TIP3    H154289   1.262   3.016  12.740  1.1155 -1.5778 -0.1529
10958TIP3    H254290   1.319   3.147  12.689 -0.0735 -0.3899  1.4962
10959TIP3   OH254291   0.928   5.636   0.663  0.1753  0.4312  0.3401
10959TIP3    H154292   0.918   5.728   0.639  2.2404  0.4222 -0.7284
10959TIP3    H254293   0.924   5.589   0.579 -0.0431 -0.3730  0.7925
10960TIP3   OH254294   2.071   2.751  15.728 -0.1866 -0.1364  0.2088
10960TIP3    H154295   2.107   2.792  15.650 -2.3556 -0.6023 -1.0684
10960TIP3    H254296   2.060   2.823  15.790  1.9305  0.1697  0.2730
10961TIP3   OH254297   2.236   2.562  16.440  0.3890 -0.0671 -0.1416
10961TIP3    H154298   2.321   2.604  16.441  0.7217 -0.7195  2.8775
10961TIP3    H254299   2.241   2.495  16.508 -2.6121  0.0850  0.3038
10962TIP3   OH254300   2.623   0.493  13.228 -0.0129 -0.2636 -0.4777
10962TIP3    H154301   2.546   0.517  13.279  0.7728  0.8405  0.2295
10962TIP3    H254302   2.589   0.464  13.144 -1.1229  1.5653 -0.6910
10963TIP3   OH254303   5.490   4.217  13.724  0.0517  0.7199 -0.1533
10963TIP3    H154304   5.422   4.169  13.677 -0.0596  1.2915 -0.5827
10963TIP3    H254305   5.534   4.269  13.657  0.6828  0.6235  0.1788
10964TIP3   OH254306   0.207   1.578   0.058  0.1154  0.2376  0.4469
10964TIP3    H154307   0.242   1.605  -0.027 -0.9570  1.2309  0.3094
10964TIP3    H254308   0.168   1.492   0.041  2.0633 -0.6938  0.5115
10965TIP3   OH254309   2.920   1.556  16.658  0.1809 -0.2102 -0.2712
10965TIP3    H154310   2.900   1.648  16.675  2.3765 -0.2592  3.0534
10965TIP3    H254311   3.012   1.556  16.634  0.1193 -1.4925 -0.5069
10966TIP3   OH254312   0.500   1.399  11.727 -0.0497 -0.3897  0.8462
10966TIP3    H154313   0.482   1.308  11.704  1.2664 -0.1726 -1.2603
10966TIP3    H254314   0.460   1.450  11.656  0.1506  0.6018  1.4365
10967TIP3   OH254315   4.059   2.590   4.137 -0.3810  0.3664 -0.2224
10967TIP3    H154316   4.091   2.654   4.074 -1.0934  0.9228 -0.0173
10967TIP3    H254317   3.987   2.634   4.182 -0.2987 -0.2620  0.5277
10968TIP3   OH254318   0.500   5.744   0.056  0.4357 -0.1224 -0.0538
10968TIP3    H154319   0.556   5.784   0.124  1.6610 -3.0261  0.7386
10968TIP3    H254320   0.553   5.748  -0.023  0.5732 -0.2286  0.0311
10969TIP3   OH254321   4.849   1.883   3.745 -0.4027 -0.0279 -0.5805
10969TIP3    H154322   4.882   1.871   3.834 -2.1909 -0.6986  0.0156
10969TIP3    H254323   4.775   1.943   3.755 -0.3505  0.2348 -1.6838
10970TIP3   OH254324   3.684   4.737  17.007  0.2616 -0.3596  0.1475
10970TIP3    H154325   3.608   4.794  16.989 -0.2013 -1.3429 -1.1116
10970TIP3    H254326   3.694   4.740  17.102 -2.0003 -1.0064  0.4480
10971TIP3   OH254327   3.798   6.771  15.331 -0.1305 -0.4130  0.2379
10971TIP3    H154328   3.890   6.794  15.349 -0.2005  1.0490 -1.1734
10971TIP3    H254329   3.788   6.683  15.368  1.7443 -0.4478  0.7303
10972TIP3   OH254330   5.847   0.686  12.113 -0.0149  0.8057  0.1757
10972TIP3    H154331   5.895   0.765  12.090 -0.7211  1.2684  0.2732
10972TIP3    H254332   5.761   0.697  12.072 -0.2726  0.3026  0.5746
10973TIP3   OH254333   5.830   3.586  11.819  0.1794  0.2252 -0.1545
10973TIP3    H154334   5.870   3.655  11.872 -2.6198  1.1849  0.7924
10973TIP3    H254335   5.827   3.510  11.877 -1.7620  0.9251  0.6980
10974TIP3   OH254336   2.519   2.600  14.255  0.2058  0.7547 -0.0306
10974TIP3    H154337   2.440   2.551  14.233  0.0172  0.7380  0.6737
10974TIP3    H254338   2.563   2.615  14.171  1.6598 -2.9812 -0.0021
10975TIP3   OH254339   6.292   3.521  11.702 -0.0035  0.4029 -0.4372
10975TIP3    H154340   6.230   3.454  11.730  0.6297  0.5129  1.2835
10975TIP3    H254341   6.375   3.475  11.695 -0.1074  0.4249 -1.9729
10976TIP3   OH254342   3.625   6.495   3.172  0.4071  0.2157  0.5608
10976TIP3    H154343   3.665   6.578   3.198  1.9626  0.0592 -1.3022
10976TIP3    H254344   3.538   6.498   3.212  1.1730  1.8390  2.2031
10977TIP3   OH254345   2.152   0.102   4.530  0.1644  0.2096  0.4618
10977TIP3    H154346   2.171   0.181   4.479  0.1578  0.5783  1.0310
10977TIP3    H254347   2.231   0.048   4.520 -1.1269 -1.2553 -2.7591
10978TIP3   OH254348   2.532   1.641   0.398  0.0070 -0.2523  0.0484
10978TIP3    H154349   2.501   1.730   0.416 -0.0970 -0.4957  1.0611
10978TIP3    H254350   2.604   1.628   0.459 -1.8032 -1.9103  1.8719
10979TIP3   OH254351   0.515   4.846  16.582 -0.0619 -0.4920 -0.0971
10979TIP3    H154352   0.578   4.784  16.545  0.3590 -0.0739 -0.0897
10979TIP3    H254353   0.430   4.809  16.561  0.1707 -0.2310 -1.5556
10980TIP3   OH254354   6.012   2.390   5.208 -0.3164 -0.5580 -0.3652
10980TIP3    H154355   6.059   2.307   5.219  1.0737 -0.4795 -4.7428
10980TIP3    H254356   6.081   2.456   5.199 -1.3704  0.5951 -0.1055
10981TIP3   OH254357   6.507   1.625  16.345 -0.3057  0.1218  0.3041
10981TIP3    H154358   6.530   1.693  16.282 -0.1270 -0.7652 -0.5947
10981TIP3    H254359   6.413   1.634  16.357 -0.1907  0.9348  0.6891
10982TIP3   OH254360   3.244   4.480   5.605 -0.3029  0.6861 -0.1949
10982TIP3    H154361   3.175   4.536   5.570 -0.2714  0.3950 -0.7179
10982TIP3    H254362   3.263   4.417   5.535  2.2087  2.2701 -0.9970
10983TIP3   OH254363   1.519   3.675   4.625 -0.4518 -0.2523  0.2203
10983TIP3    H154364   1.485   3.586   4.637 -0.3687 -0.2136  0.7459
10983TIP3    H254365   1.558   3.697   4.709  1.4540 -0.5419 -0.5439
10984TIP3   OH254366   1.565   5.026   1.633 -0.1365  0.2259  0.0442
10984TIP3    H154367   1.633   5.044   1.698  1.1667  1.4329 -1.6045
10984TIP3    H254368   1.506   5.101   1.639 -1.2046 -0.7024  1.3035
10985TIP3   OH254369   5.389   0.347   6.638 -0.3846 -0.8279 -0.0413
10985TIP3    H154370   5.397   0.270   6.695 -2.2296 -2.3832 -1.7937
10985TIP3    H254371   5.318   0.325   6.578  0.5740  1.3439 -2.0574
10986TIP3   OH254372   3.841   4.127   4.014  0.2238  0.5327 -0.3989
10986TIP3    H154373   3.756   4.143   4.055  0.7537 -1.7583  1.7587
10986TIP3    H254374   3.821   4.075   3.936 -0.2751 -1.5477  1.0665
10987TIP3   OH254375   6.579   3.553  11.073 -0.6151  0.2452  0.2312
10987TIP3    H154376   6.641   3.610  11.119 -1.2511  0.3044  1.0250
10987TIP3    H254377   6.509   3.538  11.136 -0.9078 -0.6629 -0.3015
10988TIP3   OH254378   6.427   2.547   3.147 -0.5925 -0.5349  0.5711
10988TIP3    H154379   6.426   2.601   3.068  0.2523 -2.1249 -0.5413
10988TIP3    H254380   6.497   2.583   3.201  0.1235 -0.6544 -0.2739
10989TIP3   OH254381   2.867   2.892  10.616 -0.2268 -0.3920  0.3712
10989TIP3    H154382   2.935   2.956  10.595 -0.2445 -0.5321 -0.1327
10989TIP3    H254383   2.904   2.841  10.688  1.0249 -1.6933 -1.1256
10990TIP3   OH254384   3.420   1.818  14.546 -0.7107 -0.8311 -0.4651
10990TIP3    H154385   3.386   1.809  14.635 -1.0743 -1.1366 -0.6344
10990TIP3    H254386   3.350   1.862  14.498 -0.6647 -1.0034 -0.6916
10991TIP3   OH254387   4.283   5.574  13.374 -0.5440  0.7452  0.2848
10991TIP3    H154388   4.198   5.597  13.411 -0.1912  1.4816  0.6309
10991TIP3    H254389   4.261   5.533  13.289 -1.2835  0.0994  0.7755
10992TIP3   OH254390   0.362   2.853   4.629  0.4950 -0.1011  0.5453
10992TIP3    H154391   0.311   2.831   4.707 -1.5034  0.8222 -0.4594
10992TIP3    H254392   0.313   2.815   4.557  1.6443  0.1750 -0.3987
10993TIP3   OH254393   3.918   0.125  16.768  0.0969 -0.6774 -0.1775
10993TIP3    H154394   3.911   0.218  16.746 -1.9307 -0.8530 -0.3451
10993TIP3    H254395   3.976   0.123  16.844 -0.6415  0.8048  0.4344
10994TIP3   OH254396   6.015   0.305   5.517  0.5829 -0.3660 -0.0457
10994TIP3    H154397   6.058   0.238   5.463  1.5179 -0.4111  0.7572
10994TIP3    H254398   6.053   0.294   5.604 -0.1280  0.4345  0.3687
10995TIP3   OH254399   0.290   2.864   6.209  0.0393 -0.6683 -0.1438
10995TIP3    H154400   0.283   2.785   6.262 -0.2401  0.4843  1.5769
10995TIP3    H254401   0.375   2.855   6.165  1.4974 -0.4854  2.4985
10996TIP3   OH254402   0.367   0.331  14.386 -0.0301 -0.3603 -0.1199
10996TIP3    H154403   0.403   0.416  14.411 -0.5617 -0.3984  0.7617
10996TIP3    H254404   0.272   0.344  14.384 -0.1812 -1.2422  1.1600
10997TIP3   OH254405   0.982   3.043   0.960 -0.2919  0.2027  0.3279
10997TIP3    H154406   1.046   3.090   0.906  0.0853 -0.6334  0.0448
10997TIP3    H254407   0.902   3.096   0.953 -0.9874 -1.1945 -3.0838
10998TIP3   OH254408   2.917   6.098  14.110 -0.2767  0.0487 -0.2156
10998TIP3    H154409   2.934   6.191  14.127  0.9612  0.0760 -1.5264
10998TIP3    H254410   2.886   6.096  14.019  0.7985 -0.9481 -0.5557
10999TIP3   OH254411   2.031   4.255  11.833 -0.2614  0.1346  0.2868
10999TIP3    H154412   1.940   4.277  11.813  0.2006  0.3296 -1.6619
10999TIP3    H254413   2.053   4.183  11.773  0.6335 -0.4360  1.2757
11000TIP3   OH254414   3.787   1.330   3.227  0.6891  0.3531  0.0530
11000TIP3    H154415   3.840   1.273   3.171 -0.1567 -0.9719  0.5685
11000TIP3    H254416   3.824   1.418   3.214  1.6020 -0.2010 -1.2538
11001TIP3   OH254417   3.203   3.951  17.082  0.5543  0.1393  0.5259
11001TIP3    H154418   3.125   3.931  17.134 -0.4335  1.7349 -0.2864
11001TIP3    H254419   3.274   3.956  17.146 -0.3350  0.4045  1.5050
11002TIP3   OH254420   5.242   0.175  10.533  0.3148 -0.2881 -0.2516
11002TIP3    H154421   5.213   0.088  10.507  0.7437 -0.6035  0.3290
11002TIP3    H254422   5.335   0.177  10.515  0.2081  0.2334 -0.7575
11003TIP3   OH254423   2.310   5.772   0.974 -0.2537  0.1440 -0.1086
11003TIP3    H154424   2.216   5.783   0.958 -0.0046  2.8987  0.0691
11003TIP3    H254425   2.315   5.733   1.061 -1.2503 -0.3056 -0.2440
11004TIP3   OH254426   3.675   0.928  13.078 -0.2670  0.3651 -0.4288
11004TIP3    H154427   3.657   1.021  13.069  0.2478  0.6702  1.4297
11004TIP3    H254428   3.756   0.914  13.030 -0.6607  0.7577 -1.2081
11005TIP3   OH254429   5.975   3.073  16.300  0.0517 -0.1626  0.2936
11005TIP3    H154430   5.899   3.020  16.276 -0.8271  1.8717 -1.5255
11005TIP3    H254431   5.939   3.157  16.327  1.7009  1.2578 -1.8043
11006TIP3   OH254432   2.364   5.062   3.798  0.7783  0.3849 -0.4910
11006TIP3    H154433   2.331   5.043   3.711  2.5474 -1.7005 -0.7636
11006TIP3    H254434   2.428   5.132   3.785  2.6680 -1.4241 -1.2507
11007TIP3   OH254435   2.453   6.403  12.832  0.2217 -0.0824 -0.1098
11007TIP3    H154436   2.404   6.475  12.872  0.4468 -0.2987  0.5688
11007TIP3    H254437   2.404   6.325  12.858 -0.2362 -0.1496 -1.1616
11008TIP3   OH254438   4.649   3.532  14.565 -0.3861  0.7492 -0.0003
11008TIP3    H154439   4.704   3.600  14.524 -1.2846  1.0064 -0.8152
11008TIP3    H254440   4.676   3.451  14.522 -0.8590  0.9235 -0.6427
11009TIP3   OH254441   4.846   5.237  16.247 -0.0098 -0.7544 -0.5031
11009TIP3    H154442   4.849   5.224  16.153  0.0316 -0.4670 -0.5438
11009TIP3    H254443   4.802   5.322  16.259  1.9771  0.3021 -0.3737
11010TIP3   OH254444   6.245   5.713  12.697 -0.6532 -0.3396  0.0146
11010TIP3    H154445   6.212   5.686  12.782 -1.5465  1.3599  0.2298
11010TIP3    H254446   6.195   5.661  12.634 -0.3250 -1.2563  0.4997
11011TIP3   OH254447   0.239   1.060   5.325 -0.0089  0.1813  0.1442
11011TIP3    H154448   0.308   0.994   5.324  0.3917  0.5936  0.2691
11011TIP3    H254449   0.158   1.010   5.336  0.0987 -0.4370 -1.7639
11012TIP3   OH254450   0.324   4.414   6.915 -0.0777 -0.0397  0.1063
11012TIP3    H154451   0.373   4.368   6.982  0.7529  2.4942  1.3219
11012TIP3    H254452   0.381   4.414   6.838  1.0283  1.1458  0.8985
11013TIP3   OH254453   0.411   0.508   5.126 -0.0939  0.6494  0.1753
11013TIP3    H154454   0.351   0.570   5.169  2.0229  1.8721  1.4227
11013TIP3    H254455   0.474   0.484   5.194  0.4063 -1.2014 -0.9186
11014TIP3   OH254456   3.204   0.718  14.397  0.0268  0.2197  0.0032
11014TIP3    H154457   3.238   0.746  14.312  1.0322  1.4733  0.7954
11014TIP3    H254458   3.253   0.770  14.460 -1.6606  0.2836  1.2952
11015TIP3   OH254459   6.388   0.388   3.399 -0.3846 -0.9526 -0.1718
11015TIP3    H154460   6.437   0.352   3.473  1.7199  0.7073 -0.6762
11015TIP3    H254461   6.305   0.418   3.437  0.5469 -0.3678  1.4700
11016TIP3   OH254462   0.702   4.052  13.941 -0.1651  0.6173 -0.2142
11016TIP3    H154463   0.696   4.138  13.900 -0.3424  1.4912  1.6056
11016TIP3    H254464   0.612   4.027  13.961 -0.0820  0.1906 -0.3550
11017TIP3   OH254465   5.861   2.998  13.686 -0.4478 -0.1440 -0.1664
11017TIP3    H154466   5.844   3.091  13.672  2.2251 -0.0274 -3.3630
11017TIP3    H254467   5.955   2.993  13.706 -0.8302 -2.0631  1.3561
11018TIP3   OH254468   0.279   2.639   1.406  0.2760  0.1780 -0.4449
11018TIP3    H154469   0.267   2.724   1.363 -0.6742 -0.1911 -0.9194
11018TIP3    H254470   0.241   2.650   1.493  3.3776  1.3380  0.8527
11019TIP3   OH254471   1.430   0.965   5.538  0.3929  0.8158 -0.5001
11019TIP3    H154472   1.382   0.883   5.550  1.0913  0.8332  3.2094
11019TIP3    H254473   1.384   1.010   5.467 -2.6654 -0.8982  0.2996
11020TIP3   OH254474   1.753   0.220   1.868  0.2345 -0.4392 -0.1037
11020TIP3    H154475   1.665   0.255   1.855 -0.1596 -1.9795 -1.6921
11020TIP3    H254476   1.770   0.168   1.790  2.9271  0.5804 -0.2311
11021TIP3   OH254477   3.440   2.504  15.174  0.4401  0.4182  0.2483
11021TIP3    H154478   3.533   2.508  15.198  0.2147 -0.1785  1.2484
11021TIP3    H254479   3.425   2.412  15.153  0.5294  0.8529 -1.8245
11022TIP3   OH254480   5.627   2.498   0.292 -0.0309  0.1475 -0.0089
11022TIP3    H154481   5.567   2.441   0.340 -0.1424  0.4867  0.2593
11022TIP3    H254482   5.693   2.439   0.256  0.5185 -0.0170  1.2594
11023TIP3   OH254483   6.323   0.310  16.853 -0.0049  0.0963  0.2292
11023TIP3    H154484   6.290   0.227  16.819 -1.6863  0.6337  0.4662
11023TIP3    H254485   6.375   0.285  16.930  1.1700 -0.8713 -0.8565
11024TIP3   OH254486   0.438   0.372   0.001 -0.8942 -0.3287  0.2521
11024TIP3    H154487   0.469   0.295  -0.047  0.1507  0.7810 -0.8802
11024TIP3    H254488   0.484   0.367   0.085 -0.3935 -0.6589 -0.0349
11025TIP3   OH254489   2.484   4.153   2.851  0.0829 -0.2636 -0.0074
11025TIP3    H154490   2.537   4.157   2.771 -0.1839  0.7075 -0.1366
11025TIP3    H254491   2.470   4.245   2.875 -0.5271 -0.5424  0.7024
11026TIP3   OH254492   0.150   4.158   2.490  0.3974 -0.1089 -0.1803
11026TIP3    H154493   0.232   4.112   2.474 -1.1569 -2.8310 -0.7489
11026TIP3    H254494   0.088   4.118   2.428 -1.6017  1.0830  1.0064
11027TIP3   OH254495   2.624   2.835   3.365  0.5329 -0.5283 -0.6658
11027TIP3    H154496   2.624   2.931   3.369 -1.0208 -0.4848 -1.0978
11027TIP3    H254497   2.657   2.807   3.450  1.8987  0.3998 -0.8902
11028TIP3   OH254498   5.775   5.166  12.190 -0.2786 -0.2377  0.3514
11028TIP3    H154499   5.806   5.098  12.130  0.2839 -1.0400  1.5378
11028TIP3    H254500   5.832   5.240  12.173 -0.9797 -0.0031 -1.0483
11029TIP3   OH254501   3.958   2.783   1.598 -0.0345  0.3513  0.3429
11029TIP3    H154502   3.871   2.822   1.590  0.1885  0.5421 -1.1667
11029TIP3    H254503   3.943   2.702   1.648 -1.2365 -0.1424 -0.7844
11030TIP3   OH254504   2.499   5.583  14.017  0.0502 -0.8217 -0.1015
11030TIP3    H154505   2.568   5.615  14.076 -0.0560 -0.0480 -0.3985
11030TIP3    H254506   2.500   5.488  14.030  0.7748 -0.7638  0.3331
11031TIP3   OH254507   1.265   4.518   3.939 -0.0352 -0.6954 -0.0602
11031TIP3    H154508   1.230   4.430   3.953 -0.8867 -0.1966  0.9684
11031TIP3    H254509   1.188   4.574   3.935  0.3649 -0.2649 -2.9293
11032TIP3   OH254510   4.972   6.297  15.642 -0.2694  0.0055  0.3363
11032TIP3    H154511   5.028   6.319  15.716 -0.9876  2.9862  0.0767
11032TIP3    H254512   5.022   6.325  15.565 -1.2444  0.7742 -0.0292
11033TIP3   OH254513   5.019   0.779   1.518 -0.7169 -0.1710  0.1533
11033TIP3    H154514   5.024   0.699   1.569  2.5474 -0.1144  0.0267
11033TIP3    H254515   5.056   0.847   1.575 -0.0083  0.5042 -1.0672
11034TIP3   OH254516   4.375   6.403  16.805 -0.1524  0.4573 -0.3344
11034TIP3    H154517   4.293   6.386  16.757 -1.5689  2.0487  1.4372
11034TIP3    H254518   4.415   6.476  16.758 -0.0695  0.1038 -0.8176
11035TIP3   OH254519   0.622   0.730  16.720  0.0993 -0.2028  0.4388
11035TIP3    H154520   0.571   0.704  16.796 -1.7304  0.1272 -0.6462
11035TIP3    H254521   0.578   0.808  16.686  1.2354  0.0074 -0.6123
11036TIP3   OH254522   6.453   4.423   4.300 -0.4241  0.0832  0.3834
11036TIP3    H154523   6.532   4.377   4.271 -0.1045 -1.4129  3.4274
11036TIP3    H254524   6.410   4.451   4.219  1.8181 -1.4364 -1.3957
11037TIP3   OH254525   3.382   1.197  15.227  0.1079 -0.7013  0.1834
11037TIP3    H154526   3.410   1.275  15.275  0.0715 -0.4257 -0.2410
11037TIP3    H254527   3.388   1.126  15.291 -0.3239 -0.2711  0.7129
11038TIP3   OH254528   1.261   0.995  11.855 -0.0853  0.2040  0.2533
11038TIP3    H154529   1.329   0.972  11.920 -0.7429 -0.5620  0.6831
11038TIP3    H254530   1.263   0.922  11.793  0.1645  0.6724 -0.2941
11039TIP3   OH254531   4.520   2.339  15.535  0.0764 -0.3899 -0.3599
11039TIP3    H154532   4.594   2.366  15.590 -0.0544  1.1008 -0.8891
11039TIP3    H254533   4.463   2.290  15.594 -0.0055  1.0801  0.8092
11040TIP3   OH254534   1.795   1.384   0.772 -0.1004 -0.1010  0.7204
11040TIP3    H154535   1.795   1.344   0.685  1.7620  0.8981  0.2366
11040TIP3    H254536   1.854   1.329   0.824 -2.0643 -1.3368  1.6713
11041TIP3   OH254537   6.251   0.900   3.606  0.0105 -0.0137 -0.3574
11041TIP3    H154538   6.314   0.969   3.587  1.1656 -1.3095 -1.4315
11041TIP3    H254539   6.195   0.897   3.529 -0.3839  0.0808 -0.0776
11042TIP3   OH254540   0.569   6.404   0.227  0.7922 -0.5711  0.1892
11042TIP3    H154541   0.547   6.311   0.216  1.1381 -0.7134  0.6937
11042TIP3    H254542   0.514   6.449   0.163  1.7404 -1.2589 -1.1472
11043TIP3   OH254543   6.484   4.555  10.625  0.0301 -0.1544  0.0317
11043TIP3    H154544   6.572   4.568  10.662 -0.3778 -1.6367  1.5795
11043TIP3    H254545   6.482   4.463  10.600 -0.6292  0.2030 -1.2576
11044TIP3   OH254546   1.542   0.718   4.966 -0.4771 -0.1931 -0.0620
11044TIP3    H154547   1.637   0.708   4.978 -0.2251  1.5224 -0.5220
11044TIP3    H254548   1.504   0.653   5.025  0.9407  1.2607  2.5223
11045TIP3   OH254549   3.938   3.542  12.280 -0.5963 -0.1367 -0.1607
11045TIP3    H154550   3.915   3.631  12.308 -0.5247 -0.7609  2.0406
11045TIP3    H254551   4.026   3.550  12.245 -0.4086  0.5932  0.4598
11046TIP3   OH254552   4.194   5.679   2.671  0.1655 -0.0405  0.1640
11046TIP3    H154553   4.127   5.611   2.661  1.1464 -1.0330  0.2044
11046TIP3    H254554   4.154   5.744   2.729 -0.9822 -0.3147 -0.2951
11047TIP3   OH254555   3.877   1.148  13.742  0.7627  0.4855  0.5476
11047TIP3    H154556   3.837   1.095  13.811  2.1178 -0.6610  0.4735
11047TIP3    H254557   3.854   1.103  13.660  0.1174  1.2084  0.3266
11048TIP3   OH254558   5.534   2.253  12.914  0.9746 -0.5110  0.8774
11048TIP3    H154559   5.497   2.167  12.935 -2.9305  1.2561  1.5952
11048TIP3    H254560   5.480   2.285  12.842  1.8015  1.7411  1.2447
11049TIP3   OH254561   5.191   5.985  10.938  0.0497  0.3028  0.4827
11049TIP3    H154562   5.191   6.063  10.994  1.0597  0.5238  0.1853
11049TIP3    H254563   5.130   6.006  10.867  1.1372  1.2641 -0.1902
11050TIP3   OH254564   5.219   0.697  15.480  0.0306 -0.0920  0.2061
11050TIP3    H154565   5.137   0.704  15.432  1.0085  0.5053 -1.3825
11050TIP3    H254566   5.228   0.780  15.526  0.0057  0.0291 -0.0129
11051TIP3   OH254567   0.158   4.276  14.945  0.1868  0.5583  0.2202
11051TIP3    H154568   0.207   4.254  15.025  0.0025  0.5096  0.3219
11051TIP3    H254569   0.178   4.205  14.884  3.0986  2.3486 -1.0037
11052TIP3   OH254570   1.998   2.752   4.027  0.4851 -0.1359  0.2463
11052TIP3    H154571   2.003   2.674   4.082 -0.8959  0.6383  1.4891
11052TIP3    H254572   2.081   2.798   4.043  1.2284 -1.2297 -0.3568
11053TIP3   OH254573   1.100   4.686  14.218  0.0620 -0.6220 -0.4272
11053TIP3    H154574   1.060   4.747  14.156 -0.0957  0.1226  0.4058
11053TIP3    H254575   1.178   4.732  14.249  0.5998 -1.3421 -0.7025
11054TIP3   OH254576   1.842   6.374  14.899  0.0053  0.0512 -0.0106
11054TIP3    H154577   1.909   6.429  14.939 -2.3332  0.9768  2.8429
11054TIP3    H254578   1.869   6.284  14.919  0.9563  0.3718  0.1542
11055TIP3   OH254579   5.636   3.455   5.318  0.1225  0.6774 -0.1448
11055TIP3    H154580   5.546   3.428   5.298  0.3709  0.1366 -0.5638
11055TIP3    H254581   5.627   3.542   5.357 -0.7127 -0.0410  1.3388
11056TIP3   OH254582   4.367   0.399  14.496 -0.2055  0.0331 -0.4338
11056TIP3    H154583   4.318   0.339  14.439 -1.6789  2.1790 -1.5022
11056TIP3    H254584   4.423   0.449  14.436  1.1596 -0.3912  0.4645
11057TIP3   OH254585   0.681   0.831  15.235  0.2140  0.1184 -0.3969
11057TIP3    H154586   0.772   0.807  15.251  0.0938 -0.3515 -0.4116
11057TIP3    H254587   0.642   0.753  15.196 -0.3088  0.1622  0.0330
11058TIP3   OH254588   0.188   4.559   2.606 -0.3996  0.4414  0.7086
11058TIP3    H154589   0.147   4.603   2.680 -1.2525  1.2359 -0.2241
11058TIP3    H254590   0.160   4.609   2.530 -0.5975 -1.1309 -0.2726
11059TIP3   OH254591   4.583   5.374  16.872  0.4007  0.0472  0.1617
11059TIP3    H154592   4.589   5.467  16.851  0.1461  0.0731  0.2002
11059TIP3    H254593   4.593   5.370  16.967 -0.5387  0.1219  0.2657
11060TIP3   OH254594   6.627   1.526   4.540  0.1587 -0.1240  0.0720
11060TIP3    H154595   6.643   1.473   4.618  1.4956 -1.7698 -1.2956
11060TIP3    H254596   6.712   1.566   4.521 -0.0960  0.0396 -0.7258
11061TIP3   OH254597   1.049   5.496   4.954 -0.4062  0.0729 -0.2124
11061TIP3    H154598   1.069   5.584   4.987 -0.6007 -0.1030  0.3782
11061TIP3    H254599   1.105   5.438   5.004 -0.4898 -0.1693 -0.3999
11062TIP3   OH254600   4.098   5.553  16.090 -0.1971 -0.2375  0.3835
11062TIP3    H154601   4.046   5.529  16.166 -1.5671 -0.1111 -0.4908
11062TIP3    H254602   4.161   5.481  16.080 -1.4081 -1.3246  0.3779
11063TIP3   OH254603   2.753   1.465  15.270 -0.3733  0.9049 -0.4340
11063TIP3    H154604   2.747   1.369  15.269 -0.3688  0.8577  1.9525
11063TIP3    H254605   2.847   1.483  15.280 -0.5176  1.1426  0.4836
11064TIP3   OH254606   4.730   4.047   4.140  0.2474  0.1661  0.3594
11064TIP3    H154607   4.793   3.992   4.092  1.3252  0.2418  1.6525
11064TIP3    H254608   4.778   4.075   4.218 -1.7201 -0.5927  1.8814
11065TIP3   OH254609   2.410   2.084   3.581  0.5484  0.2009  0.4837
11065TIP3    H154610   2.316   2.101   3.577  0.4695 -0.2537  0.4203
11065TIP3    H254611   2.434   2.102   3.671  0.4612  0.6303  0.4258
11066TIP3   OH254612   1.975   2.361  14.607 -0.2092  0.6356 -0.4364
11066TIP3    H154613   1.886   2.373  14.640  0.6097  1.4025  1.6195
11066TIP3    H254614   2.013   2.449  14.609  1.0588  0.0858  0.1810
11067TIP3   OH254615   3.475   5.378   3.867 -0.3908  0.2893 -0.2365
11067TIP3    H154616   3.480   5.464   3.910 -0.4027  0.3096 -0.2757
11067TIP3    H254617   3.429   5.322   3.929  1.4987 -0.2530  0.7134
11068TIP3   OH254618   4.417   2.326   0.106  0.6855 -0.4530 -0.0399
11068TIP3    H154619   4.432   2.412   0.146  0.8269  0.0992 -1.2375
11068TIP3    H254620   4.501   2.305   0.064  0.8433 -1.4637  0.7530
11069TIP3   OH254621   5.816   5.451  10.923  0.2365  0.3405 -0.5529
11069TIP3    H154622   5.863   5.532  10.901  2.1632 -0.8597 -0.9307
11069TIP3    H254623   5.874   5.381  10.894 -1.9898 -1.1986 -1.4261
11070TIP3   OH254624   5.775   3.670  11.384 -0.9021 -0.3520 -0.3237
11070TIP3    H154625   5.703   3.706  11.435  0.4682  2.4365 -0.2471
11070TIP3    H254626   5.771   3.717  11.300 -0.7451 -2.0547 -1.2987
11071TIP3   OH254627   0.838   1.988   5.503  0.2210  0.2234 -0.1831
11071TIP3    H154628   0.776   1.932   5.457 -0.7582  0.0813  1.2756
11071TIP3    H254629   0.810   1.984   5.595  0.2095  2.9586 -0.0200
11072TIP3   OH254630   5.922   0.207   3.289  0.5072  0.0647  0.3048
11072TIP3    H154631   5.901   0.169   3.203  1.7795 -1.7982  0.8002
11072TIP3    H254632   5.855   0.275   3.301 -0.6534 -0.7145 -1.4467
11073TIP3   OH254633   0.555   4.122   2.580  0.2523 -0.0358  0.6438
11073TIP3    H154634   0.507   4.053   2.535 -0.5353  0.2773  0.9926
11073TIP3    H254635   0.522   4.120   2.670 -0.8204  1.7324  0.3124
11074TIP3   OH254636   2.079   3.074  13.814  0.2230 -0.0015  0.0544
11074TIP3    H154637   2.071   3.085  13.909 -1.0650  3.5728 -0.4035
11074TIP3    H254638   2.169   3.099  13.795  0.2098  0.1868  0.2314
11075TIP3   OH254639   3.104   5.380   6.008 -0.1857  0.2375  0.4785
11075TIP3    H154640   3.074   5.314   6.070  0.8302 -0.6719  0.0250
11075TIP3    H254641   3.117   5.332   5.926 -2.3585  1.5904 -0.6969
11076TIP3   OH254642   4.115   1.635  13.440  0.4483  0.0851 -0.0162
11076TIP3    H154643   4.191   1.649  13.496 -0.3693  0.2987  1.0485
11076TIP3    H254644   4.060   1.711  13.455  0.1166  0.0313 -0.9435
11077TIP3   OH254645   1.191   0.978   5.330 -0.0186  0.1137  0.2997
11077TIP3    H154646   1.251   0.969   5.256  1.4121  0.8818  1.3627
11077TIP3    H254647   1.104   0.979   5.289  0.8032  1.9683 -1.5318
11078TIP3   OH254648   5.022   5.569  10.905 -0.5143  0.4534 -0.4177
11078TIP3    H154649   5.111   5.595  10.883 -0.9219  0.2673 -2.4023
11078TIP3    H254650   5.026   5.473  10.911 -0.0529  0.5952  2.0632
11079TIP3   OH254651   4.033   6.613   1.513  0.1694  0.5451 -0.4404
11079TIP3    H154652   3.994   6.700   1.506 -0.1289  0.3563 -1.0910
11079TIP3    H254653   3.996   6.563   1.441 -1.4416 -0.8400  1.2688
11080TIP3   OH254654   0.053   2.140   2.443 -0.4771  0.2138  0.0428
11080TIP3    H154655   0.133   2.134   2.390 -0.5199  0.9674 -0.1126
11080TIP3    H254656   0.085   2.153   2.533 -0.4120 -0.4764  0.1189
11081TIP3   OH254657   4.385   0.879  15.834  0.2629 -0.0104 -0.7824
11081TIP3    H154658   4.403   0.963  15.793 -0.3947  0.0450 -0.9573
11081TIP3    H254659   4.400   0.815  15.765  1.0572 -0.0710 -0.5684
11082TIP3   OH254660   3.763   1.048   5.078 -0.6025  0.6151 -0.5629
11082TIP3    H154661   3.785   1.110   5.147  0.7886  0.3058 -0.7057
11082TIP3    H254662   3.667   1.049   5.074 -0.7347 -0.0592  1.9855
11083TIP3   OH254663   1.295   1.070   4.124 -0.1436  0.6520 -0.1503
11083TIP3    H154664   1.270   1.162   4.113 -0.4891  0.6747  0.7620
11083TIP3    H254665   1.292   1.034   4.035 -0.8255  1.3138 -0.4041
11084TIP3   OH254666   5.605   4.064   3.747  0.2006 -0.0866  0.4244
11084TIP3    H154667   5.643   4.087   3.832  0.0448  0.5851  0.3145
11084TIP3    H254668   5.598   4.147   3.701  3.1655 -0.8085 -1.4481
11085TIP3   OH254669   5.410   2.764  14.273  0.3701  0.9553  0.3047
11085TIP3    H154670   5.401   2.824  14.346  2.2416  0.4571  0.9595
11085TIP3    H254671   5.319   2.742  14.249 -0.2690  1.8159  1.8730
11086TIP3   OH254672   1.355   0.320  12.278  0.1454  0.4416  0.2232
11086TIP3    H154673   1.319   0.237  12.248  1.1935  0.8590 -2.3332
11086TIP3    H254674   1.315   0.386  12.222  1.4511  1.3624  0.3343
11087TIP3   OH254675   4.733   0.054   0.099 -0.0489  0.1358  0.3542
11087TIP3    H154676   4.782  -0.013   0.146  1.7052  0.2861 -1.1845
11087TIP3    H254677   4.655   0.010   0.066  1.9834 -1.6675 -2.2175
11088TIP3   OH254678   1.688   3.384   1.443  0.4318 -0.2178 -0.1116
11088TIP3    H154679   1.651   3.447   1.504  0.5969  0.5979 -0.8351
11088TIP3    H254680   1.677   3.299   1.485  0.3890  0.3188  0.9620
11089TIP3   OH254681   3.279   1.313   5.264  0.1558 -0.0820  0.4175
11089TIP3    H154682   3.375   1.313   5.266  0.1943  0.0755 -0.7555
11089TIP3    H254683   3.253   1.272   5.346  1.2319 -0.0912  0.7606
11090TIP3   OH254684   1.838   4.449   4.365  0.3349  0.2629  0.3593
11090TIP3    H154685   1.828   4.469   4.272  2.5302  2.5933  0.5957
11090TIP3    H254686   1.851   4.354   4.367  2.3475  0.4345 -1.9281
11091TIP3   OH254687   3.252   6.225   4.395  0.4227 -0.7341 -0.5163
11091TIP3    H154688   3.200   6.208   4.317  0.7564 -1.4616 -0.5767
11091TIP3    H254689   3.187   6.229   4.466  0.1329 -0.1623 -0.8144
11092TIP3   OH254690   2.262   5.457  16.154  0.2034  0.6990  0.2282
11092TIP3    H154691   2.177   5.483  16.118 -0.2500 -0.2559  0.6220
11092TIP3    H254692   2.248   5.452  16.248  0.5863  0.1390  0.2560
11093TIP3   OH254693   2.981   0.379  10.487 -0.3561 -0.4375  0.7043
11093TIP3    H154694   3.045   0.309  10.490  0.0708 -0.0839  0.1200
11093TIP3    H254695   2.907   0.347  10.538 -0.6555 -1.8004 -0.5452
11094TIP3   OH254696   2.253   1.760   2.907 -0.3062  0.4647  0.0626
11094TIP3    H154697   2.332   1.753   2.961 -0.3111  1.1781  0.1646
11094TIP3    H254698   2.241   1.672   2.871  0.9795  0.5511 -0.5913
11095TIP3   OH254699   1.985   5.299  15.854  0.1542 -0.7137 -0.4032
11095TIP3    H154700   2.072   5.336  15.836 -0.2109  0.2053 -0.2942
11095TIP3    H254701   1.985   5.284  15.949  0.2426 -0.8386 -0.4220
11096TIP3   OH254702   4.353   5.132  14.651  0.2666 -0.3762  0.2594
11096TIP3    H154703   4.269   5.120  14.607  0.2844  0.9806 -0.1583
11096TIP3    H254704   4.341   5.212  14.703  0.8347 -0.9673  1.3106
11097TIP3   OH254705   4.798   6.744  16.790 -0.1945  0.0097 -0.1963
11097TIP3    H154706   4.856   6.816  16.766  0.9559 -1.0356 -0.6057
11097TIP3    H254707   4.748   6.777  16.865  1.7254  0.5429  0.8783
11098TIP3   OH254708   6.286   1.120  11.121  0.6119  0.5907 -0.2207
11098TIP3    H154709   6.339   1.146  11.196  1.0287 -0.3258 -0.1922
11098TIP3    H254710   6.337   1.050  11.079 -0.0685  0.4454 -0.8068
11099TIP3   OH254711   5.719   3.847  15.156  0.1439 -0.5272  0.6814
11099TIP3    H154712   5.778   3.782  15.118 -1.2264 -0.9760 -0.7726
11099TIP3    H254713   5.749   3.931  15.121 -0.4150 -0.8197 -0.5329
11100TIP3   OH254714   5.877   6.675   2.227  0.3551 -0.3805  0.4116
11100TIP3    H154715   5.894   6.585   2.255  0.6829  0.2143  2.2090
11100TIP3    H254716   5.814   6.709   2.291  1.2012  1.0586  0.5071
11101TIP3   OH254717   1.016   3.602   0.883 -0.3740 -0.7657  0.4665
11101TIP3    H154718   1.006   3.563   0.796 -2.4375  0.7676 -0.0296
11101TIP3    H254719   1.039   3.529   0.940 -1.5445 -2.2493 -0.9137
11102TIP3   OH254720   2.668   0.945  13.897  0.3252  0.5122 -0.5215
11102TIP3    H154721   2.584   0.991  13.893  0.0560  0.0829  0.0658
11102TIP3    H254722   2.733   1.014  13.910 -0.0143  0.7806 -0.2389
11103TIP3   OH254723   1.376   1.224   5.093 -0.6885  0.1712 -0.1057
11103TIP3    H154724   1.423   1.200   5.013  2.7674 -0.3563  1.9934
11103TIP3    H254725   1.321   1.148   5.111  1.7283 -1.5432  0.2997
11104TIP3   OH254726   5.851   4.313  16.857 -0.2081 -0.1626  0.2364
11104TIP3    H154727   5.932   4.349  16.893 -0.1194 -0.6565  0.5480
11104TIP3    H254728   5.797   4.390  16.837  0.6236  0.1898 -0.6710
11105TIP3   OH254729   6.780   4.689   5.873  0.0119  0.1733  0.2106
11105TIP3    H154730   6.801   4.669   5.782  1.4895 -3.2993  1.2103
11105TIP3    H254731   6.861   4.726   5.909  0.6445 -1.9514  1.0243
11106TIP3   OH254732   4.514   3.746  13.499 -0.4970 -0.2645  0.2953
11106TIP3    H154733   4.553   3.681  13.440 -0.3697  1.0216 -1.0718
11106TIP3    H254734   4.545   3.721  13.586  1.0631 -0.9501 -0.4344
11107TIP3   OH254735   3.508   0.863  14.102  0.0149 -0.5424 -0.0476
11107TIP3    H154736   3.576   0.819  14.051 -0.6587 -1.3065 -0.2931
11107TIP3    H254737   3.430   0.808  14.091 -0.3679 -0.2373  1.0852
11108TIP3   OH254738   0.814   1.178  14.797 -0.3710  0.1477 -0.0928
11108TIP3    H154739   0.833   1.099  14.747 -1.1184  0.1087 -0.3290
11108TIP3    H254740   0.894   1.195  14.847  0.0316 -0.3714 -0.5521
11109TIP3   OH254741   0.235   1.870   0.452 -0.2990  0.2672  0.0487
11109TIP3    H154742   0.149   1.855   0.489  0.0222  0.3584  0.8320
11109TIP3    H254743   0.278   1.931   0.513  0.0652  0.7765 -0.6986
11110TIP3   OH254744   2.200   3.585   4.083 -0.5553  0.6810 -0.0768
11110TIP3    H154745   2.106   3.600   4.074 -0.5640  0.6661 -0.0118
11110TIP3    H254746   2.207   3.505   4.134 -0.5080  0.7340  0.0019
11111TIP3   OH254747   3.799   4.851   5.725  0.1885  0.5846  0.5396
11111TIP3    H154748   3.891   4.872   5.709 -0.1301  1.3085 -0.4085
11111TIP3    H254749   3.800   4.762   5.760  1.1096 -0.2969 -1.6572
11112TIP3   OH254750   3.354   2.471  12.281 -0.2462  0.1916  0.3240
11112TIP3    H154751   3.292   2.446  12.350  2.0244  1.2873  2.8525
11112TIP3    H254752   3.311   2.545  12.237  0.0381  2.2189  3.3134
11113TIP3   OH254753   4.818   5.254   5.476 -0.3938  0.0939  0.5297
11113TIP3    H154754   4.857   5.168   5.491  0.2620  0.5580  1.5179
11113TIP3    H254755   4.727   5.245   5.504 -0.3553 -0.3075  0.5210
11114TIP3   OH254756   3.238   2.799   1.988  0.4527  0.2025  0.0107
11114TIP3    H154757   3.296   2.860   2.033  0.8322  1.1687 -1.7128
11114TIP3    H254758   3.235   2.832   1.898 -0.4081 -1.5568 -0.6256
11115TIP3   OH254759   1.325   0.460   3.998  0.5941  0.5898  0.5925
11115TIP3    H154760   1.242   0.445   3.952  0.0376  2.2841  0.9964
11115TIP3    H254761   1.362   0.373   4.010 -1.3184 -0.2295  0.7525
11116TIP3   OH254762   2.965   3.452  12.596  1.1640 -0.6550 -0.1731
11116TIP3    H154763   2.915   3.390  12.544  1.0853  0.0707 -0.9752
11116TIP3    H254764   3.031   3.399  12.641  0.1454 -1.5115  0.3225
11117TIP3   OH254765   4.904   2.884   3.255  0.3328 -0.4727  0.0717
11117TIP3    H154766   4.899   2.904   3.162 -0.4842 -0.2685  0.1532
11117TIP3    H254767   4.991   2.912   3.282  0.2934  0.1619 -0.4690
11118TIP3   OH254768   3.551   3.134  10.872 -0.1686  0.9391  0.2539
11118TIP3    H154769   3.499   3.169  10.944 -0.7735  1.6225 -0.5184
11118TIP3    H254770   3.491   3.131  10.798  0.7164  1.1121 -0.4709
11119TIP3   OH254771   6.145   4.291   4.392 -0.1442 -0.1181 -0.1267
11119TIP3    H154772   6.184   4.371   4.427 -1.2367  0.0765  0.6854
11119TIP3    H254773   6.151   4.300   4.297 -0.9978  1.3183 -0.0605
11120TIP3   OH254774   4.934   3.263   0.908  0.3705  0.0491  0.3911
11120TIP3    H154775   4.938   3.325   0.835  1.3577  0.4537  0.7826
11120TIP3    H254776   5.012   3.282   0.960 -0.4300 -0.1071  1.6618
11121TIP3   OH254777   1.865   4.547   3.159  0.3827  0.4813  0.2805
11121TIP3    H154778   1.855   4.502   3.076  1.4574 -0.2323  0.5308
11121TIP3    H254779   1.841   4.638   3.141  0.2515  0.2491 -0.7079
11122TIP3   OH254780   1.843   0.888  15.453  0.4634  0.1658  0.7566
11122TIP3    H154781   1.909   0.825  15.424  1.8644  1.5962  0.7989
11122TIP3    H254782   1.781   0.835  15.503  0.7564 -1.4616 -0.5243
11123TIP3   OH254783   1.657   0.763  12.928 -0.1242 -0.3353  0.1377
11123TIP3    H154784   1.695   0.703  12.992 -1.0397  0.6403  1.6331
11123TIP3    H254785   1.700   0.846  12.944 -0.6584  0.0180 -0.2293
11124TIP3   OH254786   2.349   1.142  11.060  0.4980 -0.0097 -0.0791
11124TIP3    H154787   2.293   1.140  11.138  0.6888 -1.7863  0.0357
11124TIP3    H254788   2.422   1.199  11.083 -0.0145  0.3674  0.6294
11125TIP3   OH254789   1.318   0.200  14.792 -1.1736 -0.5514 -0.2120
11125TIP3    H154790   1.353   0.205  14.881 -0.9146  1.7917 -0.4280
11125TIP3    H254791   1.387   0.157  14.741 -0.1613  0.6546  0.1371
11126TIP3   OH254792   3.254   4.960  13.260 -0.3016 -0.0941 -0.0191
11126TIP3    H154793   3.187   4.903  13.297 -1.6245  0.9315 -0.7655
11126TIP3    H254794   3.238   5.045  13.302  0.6836  0.0951 -0.0210
11127TIP3   OH254795   4.774   2.682  16.162  0.0603  0.5825  0.0669
11127TIP3    H154796   4.820   2.601  16.183 -0.4596 -0.2018 -1.7218
11127TIP3    H254797   4.765   2.728  16.246  2.8527  0.1036  0.6775
11128TIP3   OH254798   0.181   5.926   4.111  0.4649  0.1697 -0.2723
11128TIP3    H154799   0.230   5.856   4.154 -0.1304  0.2545  0.5590
11128TIP3    H254800   0.091   5.893   4.107  0.3341  0.5620 -0.5921
11129TIP3   OH254801   2.690   2.801   3.628  0.1613  0.5919  0.4333
11129TIP3    H154802   2.688   2.896   3.637 -0.0414  0.4958  1.4451
11129TIP3    H254803   2.764   2.773   3.682 -0.1896  0.1229  0.6838
11130TIP3   OH254804   6.133   3.630  15.443  0.3724  0.6308  0.6932
11130TIP3    H154805   6.038   3.617  15.449  0.3800  0.5699  0.6975
11130TIP3    H254806   6.149   3.712  15.489  0.2927  0.7608  0.4898
11131TIP3   OH254807   0.415   6.117   1.435  0.2289  0.1692 -0.3802
11131TIP3    H154808   0.474   6.093   1.364  0.0248 -0.7082 -0.2596
11131TIP3    H254809   0.457   6.081   1.514  0.7477  1.6358  0.0239
11132TIP3   OH254810   1.948   0.463  11.539  0.6630 -0.0494 -0.2295
11132TIP3    H154811   2.029   0.469  11.591  0.7779 -0.8029 -0.3152
11132TIP3    H254812   1.878   0.459  11.604  0.5739  2.0355 -0.1587
11133TIP3   OH254813   3.152   0.636  16.420 -0.0180  0.3188 -0.1129
11133TIP3    H154814   3.096   0.651  16.496 -0.0142  1.2268 -0.2939
11133TIP3    H254815   3.110   0.683  16.349 -0.4421 -1.1638 -0.8714
11134TIP3   OH254816   1.647   6.733   2.404  0.2699  0.2373  0.0325
11134TIP3    H154817   1.561   6.774   2.412 -0.0956 -0.3467 -0.7757
11134TIP3    H254818   1.702   6.801   2.365 -0.1820  0.1696 -0.7421
11135TIP3   OH254819   4.376   2.865  12.629 -0.0375  0.0085 -0.0015
11135TIP3    H154820   4.349   2.827  12.713  2.3064 -0.0786  0.7559
11135TIP3    H254821   4.360   2.796  12.565 -0.6375 -0.3818  0.5608
11136TIP3   OH254822   5.581   5.181   2.950  0.2080  0.3243  0.0135
11136TIP3    H154823   5.555   5.175   3.042 -0.6213  1.6093 -0.1232
11136TIP3    H254824   5.498   5.176   2.901  0.5837  0.3188 -0.6334
11137TIP3   OH254825   4.936   6.732   4.723  0.4676  0.4007 -0.1194
11137TIP3    H154826   4.935   6.826   4.708  0.7411  0.4530  0.1725
11137TIP3    H254827   5.028   6.708   4.723  0.3895  0.0899 -0.4487
11138TIP3   OH254828   1.904   4.043  14.828  0.7544  0.5685  0.7770
11138TIP3    H154829   1.937   4.108  14.766 -2.0629 -1.0105 -2.5668
11138TIP3    H254830   1.962   3.968  14.818 -1.0946 -0.5867 -1.8774
11139TIP3   OH254831   0.152   6.213   1.414  0.0875 -0.2830 -0.9825
11139TIP3    H154832   0.146   6.164   1.332 -0.4959 -1.3735 -0.2913
11139TIP3    H254833   0.240   6.194   1.447  0.6909  0.9324 -1.8166
11140TIP3   OH254834   5.902   6.406   4.265  0.0133 -0.4171 -0.4937
11140TIP3    H154835   5.887   6.311   4.257  0.5000 -0.5898  0.6052
11140TIP3    H254836   5.992   6.413   4.295 -0.3779  0.3641  0.5028
11141TIP3   OH254837   2.488   0.535  13.706 -0.0595 -0.6170 -0.5976
11141TIP3    H154838   2.539   0.455  13.714 -0.5802 -0.6515  3.3780
11141TIP3    H254839   2.553   0.605  13.702  0.3513 -0.9191  0.6965
11142TIP3   OH254840   0.021   6.697  13.176  0.0000  0.1677 -0.0056
11142TIP3    H154841   0.018   6.686  13.271 -0.2257 -0.1534 -0.0506
11142TIP3    H254842  -0.001   6.611  13.141 -1.7141  0.7433 -0.3607
11143TIP3   OH254843   6.317   2.149  13.010 -0.5022 -0.0473 -0.5560
11143TIP3    H154844   6.393   2.183  13.057  0.9487 -3.0888 -0.5864
11143TIP3    H254845   6.247   2.149  13.076  0.1670  0.4600  0.1725
11144TIP3   OH254846   1.818   3.684   1.164 -0.2003 -0.1251  0.2020
11144TIP3    H154847   1.748   3.641   1.115 -0.6352 -1.8135  2.2340
11144TIP3    H254848   1.846   3.619   1.228  1.3303  1.5227  1.2635
11145TIP3   OH254849   5.368   4.462  12.806  0.5401 -0.2435  0.0358
11145TIP3    H154850   5.390   4.390  12.865  0.1503 -0.6564 -0.3333
11145TIP3    H254851   5.288   4.500  12.843  1.1314  0.4609  0.6418
11146TIP3   OH254852   2.614   2.482   2.281 -0.3656 -0.3936  0.2284
11146TIP3    H154853   2.668   2.407   2.257  1.1344  1.0579 -1.0856
11146TIP3    H254854   2.591   2.522   2.197 -1.7498  0.2140  0.8828
11147TIP3   OH254855   6.077   0.891   2.752  0.3602 -1.1110 -0.1438
11147TIP3    H154856   6.007   0.951   2.777  0.4633 -0.7587 -0.6911
11147TIP3    H254857   6.090   0.836   2.829  0.1672 -0.5251  0.3123
11148TIP3   OH254858   1.028   6.013   0.230 -0.3876 -0.3387 -0.1575
11148TIP3    H154859   0.988   5.946   0.286 -0.5474  0.3869  0.5977
11148TIP3    H254860   1.002   6.096   0.269  0.1299  0.1651 -0.8726
11149TIP3   OH254861   0.704   4.304   6.001 -0.4169  0.5482 -0.0912
11149TIP3    H154862   0.742   4.345   5.923 -0.8545  1.3026  0.0922
11149TIP3    H254863   0.652   4.231   5.966  0.7512 -0.1504 -0.3807
11150TIP3   OH254864   1.834   3.801   2.751  0.3870 -0.5070  0.6033
11150TIP3    H154865   1.774   3.842   2.689  1.7383  1.4542  0.5427
11150TIP3    H254866   1.850   3.869   2.816  2.3680 -1.0845  0.7306
11151TIP3   OH254867   1.140   0.599  14.957 -0.6019  0.7287  0.2115
11151TIP3    H154868   1.216   0.598  14.899 -1.6848 -0.7075 -1.2264
11151TIP3    H254869   1.107   0.509  14.954 -1.2913  0.8945  2.2492
11152TIP3   OH254870   3.139   0.762   1.901  0.3230  0.2991 -0.5249
11152TIP3    H154871   3.202   0.710   1.951  1.7764  1.7796 -0.7540
11152TIP3    H254872   3.129   0.842   1.952 -2.2150 -0.3325  0.0468
11153TIP3   OH254873   5.720   3.393  11.441  0.2784 -0.0502  0.3071
11153TIP3    H154874   5.690   3.403  11.532  0.7735 -0.6023  0.5335
11153TIP3    H254875   5.725   3.483  11.408  3.1015  0.4283  1.8131
11154TIP3   OH254876   5.707   1.437   3.528  0.3054 -0.0328  0.7201
11154TIP3    H154877   5.691   1.529   3.549 -1.9820 -0.2909  0.2848
11154TIP3    H254878   5.699   1.432   3.433  0.4100 -0.6662  0.7425
11155TIP3   OH254879   4.039   2.760  15.944 -0.0193 -0.1417  0.1268
11155TIP3    H154880   4.052   2.773  15.850  1.0366 -0.8964  0.1647
11155TIP3    H254881   4.109   2.700  15.970  0.3800  0.9465  1.6181
11156TIP3   OH254882   1.019   3.632   2.084 -0.1191 -0.1796 -0.0467
11156TIP3    H154883   1.039   3.658   2.174  0.0353 -1.6143  0.3469
11156TIP3    H254884   0.928   3.603   2.087 -0.3134  0.3618 -0.5015
11157TIP3   OH254885   2.087   6.787  15.251 -0.9726  0.6125  0.3135
11157TIP3    H154886   2.149   6.780  15.323 -0.3380  0.4377 -0.2449
11157TIP3    H254887   2.132   6.839  15.185 -1.5573  0.7935  0.0533
11158TIP3   OH254888   1.086   2.203  14.853 -0.1448  0.7124  0.1732
11158TIP3    H154889   1.171   2.161  14.865 -0.2712  0.4210  0.0502
11158TIP3    H254890   1.022   2.133  14.865 -0.3722  0.9510  0.3670
11159TIP3   OH254891   0.377   4.191   4.158 -0.4874  0.6041 -0.3273
11159TIP3    H154892   0.439   4.202   4.086 -0.3243  1.3614 -0.0806
11159TIP3    H254893   0.409   4.250   4.226 -1.0129  0.3818  0.1161
11160TIP3   OH254894   4.684   3.199  16.083 -0.1654 -0.2277  0.5812
11160TIP3    H154895   4.750   3.269  16.089 -0.7923  0.3701  0.5376
11160TIP3    H254896   4.680   3.177  15.990 -1.3669  1.0442  0.3083
11161TIP3   OH254897   4.568   2.876   1.040 -0.4570  0.7453  0.1324
11161TIP3    H154898   4.623   2.852   0.965 -0.9579  0.8946 -0.2878
11161TIP3    H254899   4.568   2.972   1.040 -0.3878  0.7440  0.3705
11162TIP3   OH254900   0.854   5.804   0.008 -0.8624  0.4239  0.9602
11162TIP3    H154901   0.790   5.801  -0.063 -0.8472 -0.6110  0.9861
11162TIP3    H254902   0.939   5.806  -0.036 -0.8820  1.0799  0.9370
11163TIP3   OH254903   0.112   5.861  16.240  0.6775  0.3086  0.3253
11163TIP3    H154904   0.173   5.891  16.308  1.1681 -2.5670  1.2087
11163TIP3    H254905   0.168   5.834  16.167  0.3983 -0.9814  0.5821
11164TIP3   OH254906   3.920   5.044   3.026  0.3014 -0.1443  0.1322
11164TIP3    H154907   3.935   5.139   3.029 -0.1574 -0.0385 -0.7922
11164TIP3    H254908   3.852   5.032   2.960  3.9063 -1.5427 -3.5358
11165TIP3   OH254909   2.303   1.896  11.638 -0.2295 -0.2077 -0.3268
11165TIP3    H154910   2.275   1.866  11.724  1.8987  0.5713  0.6560
11165TIP3    H254911   2.353   1.824  11.602  0.4037  0.1536 -0.1695
11166TIP3   OH254912   0.370   1.613  15.871  0.0191  0.0979 -0.2730
11166TIP3    H154913   0.440   1.668  15.836  0.0557  0.7086  0.7528
11166TIP3    H254914   0.386   1.610  15.965 -0.9523 -0.3075 -0.1156
11167TIP3   OH254915   0.186   2.594  13.400 -0.1077  0.0196  0.0750
11167TIP3    H154916   0.147   2.537  13.466  0.4514 -1.0345 -0.4868
11167TIP3    H254917   0.142   2.570  13.318  0.6743 -0.1625 -0.3038
11168TIP3   OH254918   6.006   3.851   4.636 -0.2815 -0.3122 -0.3143
11168TIP3    H154919   6.090   3.873   4.678  0.4642 -1.8328 -0.9539
11168TIP3    H254920   6.002   3.907   4.559  0.2010 -0.3145 -0.3417
11169TIP3   OH254921   1.246   5.975   0.892 -0.3500 -0.1434 -0.1636
11169TIP3    H154922   1.253   6.030   0.970 -0.6472 -0.1804 -0.1074
11169TIP3    H254923   1.210   5.892   0.926  1.2224 -0.7942 -0.0528
11170TIP3   OH254924   0.994   2.816   2.227 -0.2203 -0.0653 -0.3742
11170TIP3    H154925   1.001   2.748   2.160 -0.9745  0.1151 -0.6408
11170TIP3    H254926   0.960   2.770   2.304  2.0383 -0.5768  0.3648
11171TIP3   OH254927   0.793   2.927  16.218 -0.2086 -0.1580 -0.9000
11171TIP3    H154928   0.839   2.938  16.135  0.9306 -0.0003 -0.2557
11171TIP3    H254929   0.827   2.845  16.254 -1.0942 -0.5040 -0.8300
11172TIP3   OH254930   6.232   1.345   0.682  0.1616 -0.2192  0.0066
11172TIP3    H154931   6.196   1.297   0.608 -0.0728  0.7510 -0.5058
11172TIP3    H254932   6.317   1.377   0.650 -0.6524  1.5627 -0.3768
11173TIP3   OH254933   4.537   0.324   4.671  0.3745 -1.1927  0.1983
11173TIP3    H154934   4.445   0.313   4.646  0.6686 -1.3742 -0.8404
11173TIP3    H254935   4.570   0.235   4.681  1.2066 -1.2125 -2.3784
11174TIP3   OH254936   3.367   6.756  13.256  0.5490  0.0416  0.1484
11174TIP3    H154937   3.455   6.727  13.279  0.0742 -0.4366  1.4096
11174TIP3    H254938   3.319   6.674  13.241  0.0054  0.2714  0.6444
11175TIP3   OH254939   3.133   5.810   0.727 -0.3292  1.0353  0.7119
11175TIP3    H154940   3.060   5.771   0.774 -0.0513  1.0298  1.1438
11175TIP3    H254941   3.100   5.826   0.639 -0.0711 -1.2958  0.1647
11176TIP3   OH254942   1.566   3.775   1.432  0.1410 -0.4614 -0.2469
11176TIP3    H154943   1.516   3.835   1.377  0.0613 -0.3483 -0.0524
11176TIP3    H254944   1.505   3.749   1.501  0.5188  0.1293  0.3217
11177TIP3   OH254945   4.135   4.678   6.211  0.3968 -0.2891  0.0926
11177TIP3    H154946   4.066   4.725   6.257  1.3185  0.4086  0.8018
11177TIP3    H254947   4.195   4.746   6.181  1.1234 -0.9240  0.0685
11178TIP3   OH254948   2.099   6.645  15.826  0.6409  0.0584  0.4845
11178TIP3    H154949   2.017   6.686  15.854  2.3706  2.9062  1.5851
11178TIP3    H254950   2.120   6.584  15.897 -0.3521 -0.4811  0.3302
11179TIP3   OH254951   5.813   3.546   0.312  0.2549 -0.0605 -0.1297
11179TIP3    H154952   5.737   3.544   0.370 -0.0802  2.0987 -0.4417
11179TIP3    H254953   5.888   3.550   0.370  0.1258 -1.6464  0.1738
11180TIP3   OH254954   4.640   4.446   5.083  0.0710  0.0739 -0.1326
11180TIP3    H154955   4.557   4.479   5.048  1.7072  2.6837 -1.6237
11180TIP3    H254956   4.664   4.509   5.151 -0.2427 -1.9110  1.8848
11181TIP3   OH254957   2.210   4.187   5.272 -0.2854 -0.1076  0.5783
11181TIP3    H154958   2.236   4.178   5.180 -0.9385 -0.5508  0.4325
11181TIP3    H254959   2.287   4.225   5.315 -0.6904  2.0852 -0.5354
11182TIP3   OH254960   5.454   4.874   1.893 -0.0916  0.2613  0.4825
11182TIP3    H154961   5.442   4.797   1.948 -1.1931 -0.6801 -1.0435
11182TIP3    H254962   5.544   4.903   1.911  0.5970 -1.8297  0.4620
11183TIP3   OH254963   3.284   4.359   2.300 -0.6908  0.7100  0.0734
11183TIP3    H154964   3.239   4.358   2.216 -1.5759 -0.3467  0.5470
11183TIP3    H254965   3.215   4.340   2.364 -0.0882  1.8196  1.0649
11184TIP3   OH254966   2.761   6.305   1.350  0.7239 -0.3192  0.3065
11184TIP3    H154967   2.733   6.345   1.432  0.7524 -0.1494  0.2327
11184TIP3    H254968   2.855   6.293   1.360  0.5891 -1.1417  0.6643
11185TIP3   OH254969   6.025   6.131   3.212  0.3463 -0.4703  0.0206
11185TIP3    H154970   6.063   6.082   3.139  1.3118  0.3923 -0.0755
11185TIP3    H254971   6.021   6.222   3.180 -2.7788 -0.6832 -0.3705
11186TIP3   OH254972   3.612   1.191  15.642  0.4909  0.0787  0.0452
11186TIP3    H154973   3.682   1.150  15.591  2.6998  1.2560  2.0273
11186TIP3    H254974   3.581   1.122  15.700  0.6356 -0.1824 -0.1814
11187TIP3   OH254975   3.313   4.861  15.426  0.0777  0.0387 -0.1737
11187TIP3    H154976   3.370   4.898  15.358  1.9118 -0.5703  0.9819
11187TIP3    H254977   3.331   4.915  15.503 -0.9004 -0.1933  0.2194
11188TIP3   OH254978   5.310   3.491  11.716 -0.1376  0.1870 -0.2763
11188TIP3    H154979   5.320   3.540  11.798 -1.1918  0.1302 -0.1071
11188TIP3    H254980   5.292   3.559  11.651  0.3178  0.1974 -0.3910
11189TIP3   OH254981   6.676   0.201  15.404  0.2690  0.0952  0.7134
11189TIP3    H154982   6.754   0.255  15.389  0.0263  0.3593  0.3721
11189TIP3    H254983   6.613   0.261  15.444 -0.7441  0.6363 -1.6150
11190TIP3   OH254984   6.588   3.918   3.895  0.0783 -0.2146  0.0449
11190TIP3    H154985   6.507   3.913   3.845  0.1867  0.4601 -0.2025
11190TIP3    H254986   6.635   3.838   3.873 -0.2919 -0.3638 -0.2075
11191TIP3   OH254987   2.216   1.581   0.573  0.3646  0.1940  0.2142
11191TIP3    H154988   2.203   1.655   0.514  1.9560 -0.5218 -1.0743
11191TIP3    H254989   2.270   1.520   0.523  0.0202 -1.3394  1.6730
11192TIP3   OH254990   2.958   6.721  16.433 -0.0060 -0.3622 -0.6458
11192TIP3    H154991   2.892   6.652  16.437 -0.7654  0.2740 -1.9856
11192TIP3    H254992   2.956   6.751  16.342  1.4508  0.3287 -0.4686
11193TIP3   OH254993   5.531   5.382  11.251 -0.1405 -0.3859 -0.0094
11193TIP3    H154994   5.523   5.317  11.181 -1.6862 -0.5572  0.2964
11193TIP3    H254995   5.474   5.453  11.223 -1.3681 -0.7825  1.4159
11194TIP3   OH254996   4.930   3.341  15.597 -0.0902 -0.2712  0.0799
11194TIP3    H154997   4.865   3.274  15.575 -1.5063  1.2814 -0.6081
11194TIP3    H254998   4.959   3.374  15.512  0.7228 -0.1259  0.4140
11195TIP3   OH254999   3.571   1.633  16.148 -0.2791  0.2028  0.0565
11195TIP3    H155000   3.559   1.562  16.084  0.8495 -0.9794  1.1402
11195TIP3    H255001   3.659   1.666  16.131 -1.0997  1.9162 -0.9841
11196TIP3   OH255002   4.418   3.066  10.233  0.1354 -0.0516  0.6605
11196TIP3    H155003   4.357   3.097  10.167 -0.4331  0.6708  1.5081
11196TIP3    H255004   4.494   3.124  10.225  1.0653 -1.4651 -0.9377
11197TIP3   OH255005   5.324   2.041  12.863  0.2933  0.1968 -0.1044
11197TIP3    H155006   5.350   2.061  12.773 -1.3735 -2.1716 -1.1801
11197TIP3    H255007   5.239   1.997  12.854 -0.6251  1.2801  2.7505
11198TIP3   OH255008   3.947   3.792   1.080 -0.2815 -0.1518  0.3532
11198TIP3    H155009   3.876   3.739   1.043  0.8429 -0.6845 -1.0773
11198TIP3    H255010   3.965   3.752   1.165 -0.4365 -1.1575 -0.0819
11199TIP3   OH255011   2.489   3.612   1.973  0.4018 -0.3472  0.0239
11199TIP3    H155012   2.479   3.517   1.979  2.0494 -0.4683  1.0878
11199TIP3    H255013   2.583   3.627   1.976  0.2104  1.2535 -1.4032
11200TIP3   OH255014   0.847   0.132  12.857  0.7914  0.3795  0.2586
11200TIP3    H155015   0.858   0.136  12.952  0.0614 -0.6007  0.3938
11200TIP3    H255016   0.757   0.102  12.844  1.3260 -0.8593 -0.7308
11201TIP3   OH255017   6.032   4.395  16.605 -0.1647 -0.4796  0.3095
11201TIP3    H155018   5.976   4.396  16.528 -0.0579  1.7945  0.2399
11201TIP3    H255019   5.974   4.420  16.677  0.2016 -0.5953  0.6447
11202TIP3   OH255020   4.228   2.698  10.441 -0.4017 -0.0464  0.2010
11202TIP3    H155021   4.300   2.720  10.381  1.2478 -2.1939  1.3193
11202TIP3    H255022   4.179   2.630  10.395 -0.4504 -0.1241  0.3696
11203TIP3   OH255023   2.525   6.007   3.422 -0.0547  0.6527 -0.1142
11203TIP3    H155024   2.478   6.062   3.485 -0.0507  0.4491  0.0661
11203TIP3    H255025   2.561   5.936   3.475 -1.2279 -0.2824 -0.5569
11204TIP3   OH255026   6.587   3.976  14.675  0.1120  0.0859 -0.6421
11204TIP3    H155027   6.560   4.018  14.593 -0.1259 -0.4590 -0.8421
11204TIP3    H255028   6.532   4.018  14.742  1.0941  1.3318 -0.5990
11205TIP3   OH255029   6.051   0.933  12.627  0.2198 -0.5714  0.2492
11205TIP3    H155030   6.080   0.986  12.553  1.5626 -2.3639 -0.5268
11205TIP3    H255031   5.971   0.891  12.598  0.1764 -0.4549  0.2010
11206TIP3   OH255032   0.144   4.398  11.136  0.0044  0.6075 -0.1546
11206TIP3    H155033   0.065   4.344  11.145 -1.1473  2.5189  1.6626
11206TIP3    H255034   0.156   4.406  11.041  0.4604 -3.1154 -0.4811
11207TIP3   OH255035   4.072   2.091   1.404 -0.1976  0.3389 -0.6084
11207TIP3    H155036   4.011   2.045   1.461  0.8833  0.1206  0.3785
11207TIP3    H255037   4.055   2.184   1.421  0.3836  0.2741  0.3667
11208TIP3   OH255038   3.813   1.487  15.871  0.3971 -0.6085  0.1915
11208TIP3    H155039   3.725   1.502  15.837  0.4632 -1.5998 -0.4419
11208TIP3    H255040   3.831   1.564  15.926 -0.2863  0.3002 -0.8371
11209TIP3   OH255041   1.373   2.940   5.149  0.2138 -0.0076 -0.0572
11209TIP3    H155042   1.302   2.885   5.181  1.6395 -1.2980  0.9376
11209TIP3    H255043   1.396   2.902   5.064 -0.3375  0.4893 -0.4407
11210TIP3   OH255044   2.847   5.566  16.250 -0.1019 -0.5064  0.0768
11210TIP3    H155045   2.919   5.507  16.229  0.0179 -0.8849  1.4813
11210TIP3    H255046   2.825   5.608  16.167 -0.2375 -2.5722 -0.9624
11211TIP3   OH255047   1.290   0.986   2.820 -0.0855  0.1514  0.5749
11211TIP3    H155048   1.282   0.892   2.802  1.4723  0.0386  0.3530
11211TIP3    H255049   1.208   1.009   2.864 -1.4578 -0.8216 -1.4006
11212TIP3   OH255050   1.828   6.596  16.431 -0.7076  0.0457 -0.0569
11212TIP3    H155051   1.744   6.562  16.400 -0.3042 -0.3082 -0.7932
11212TIP3    H255052   1.865   6.640  16.354 -0.9435  1.6016  0.7102
11213TIP3   OH255053   0.029   5.290   4.917 -0.4540 -0.3085  0.3953
11213TIP3    H155054   0.083   5.353   4.965 -1.3760  1.2121 -0.5130
11213TIP3    H255055   0.002   5.226   4.983  2.3644 -1.0856  0.8914
11214TIP3   OH255056   2.724   4.317   0.923 -0.0918  0.0231  0.1611
11214TIP3    H155057   2.666   4.268   0.981  0.2900 -1.1006 -0.4059
11214TIP3    H255058   2.812   4.295   0.952  0.1049 -0.5928 -0.8867
11215TIP3   OH255059   3.683   4.695  11.305  0.1121  0.2857 -0.2199
11215TIP3    H155060   3.653   4.780  11.272  0.3160  0.1345 -0.8058
11215TIP3    H255061   3.755   4.671  11.246 -1.0453 -1.0939 -1.0952
11216TIP3   OH255062   6.198   0.447   5.143 -0.0175  0.3558 -0.5993
11216TIP3    H155063   6.129   0.491   5.093  0.4831  2.1552  0.2508
11216TIP3    H255064   6.273   0.444   5.083  0.0348  0.9128 -0.5612
11217TIP3   OH255065   5.801   1.884  13.872 -0.2488  0.2580  0.1683
11217TIP3    H155066   5.766   1.817  13.930 -0.8834  0.6269  0.2199
11217TIP3    H255067   5.724   1.916  13.824  0.4597 -1.0991 -1.9604
11218TIP3   OH255068   5.091   6.241   3.979  0.3622  0.1336  0.0948
11218TIP3    H155069   5.004   6.221   4.013  0.1858  0.4565 -0.1652
11218TIP3    H255070   5.088   6.219   3.887  0.4139  0.5742 -0.0166
11219TIP3   OH255071   1.134   0.308   0.030 -0.0397 -0.2964  0.2490
11219TIP3    H155072   1.100   0.370  -0.034 -1.7192 -2.1350 -0.6828
11219TIP3    H255073   1.084   0.326   0.110 -1.2433 -1.0646 -0.3046
11220TIP3   OH255074   2.279   3.227  14.761 -0.6767 -0.6084  0.6564
11220TIP3    H155075   2.215   3.264  14.822 -1.6539 -1.4092  0.1136
11220TIP3    H255076   2.245   3.140  14.739  0.7214 -1.1464  0.5664
11221TIP3   OH255077   0.808   4.109  12.565 -0.0468 -0.2725  0.1049
11221TIP3    H155078   0.786   4.197  12.597  0.8137  0.0895 -0.2947
11221TIP3    H255079   0.903   4.104  12.570 -0.0917 -1.2145  0.1891
11222TIP3   OH255080   1.148   5.547   6.326  0.3808 -0.2228 -0.1885
11222TIP3    H155081   1.126   5.454   6.326  0.7378 -0.3299  1.3166
11222TIP3    H255082   1.223   5.554   6.386  1.1415  0.8595 -1.2350
11223TIP3   OH255083   4.261   2.592   6.260 -0.3901 -0.0680  0.1042
11223TIP3    H155084   4.221   2.595   6.347  1.6738 -0.5640  1.0961
11223TIP3    H255085   4.251   2.501   6.232  4.2766 -1.4887  2.4780
11224TIP3   OH255086   3.408   3.942   3.197 -0.3565 -0.6925  0.0475
11224TIP3    H155087   3.346   4.002   3.156  0.2804  0.0913  0.2215
11224TIP3    H255088   3.456   3.903   3.123 -1.6267 -1.9545 -0.1390
11225TIP3   OH255089   5.221   4.347  15.403 -0.2064  0.5444 -0.3529
11225TIP3    H155090   5.313   4.362  15.382 -0.3056 -0.3461 -1.4956
11225TIP3    H255091   5.203   4.258  15.373 -1.4830  0.7717 -0.3246
11226TIP3   OH255092   6.541   2.543  10.680 -0.3601 -0.0923  0.4535
11226TIP3    H155093   6.464   2.494  10.711 -0.8061 -1.7710 -2.9707
11226TIP3    H255094   6.504   2.614  10.628  0.3761 -0.3760 -0.4744
11227TIP3   OH255095   4.346   3.237  14.504 -0.0779 -0.1315 -0.2792
11227TIP3    H155096   4.287   3.208  14.573 -0.8687  0.2714 -0.7844
11227TIP3    H255097   4.359   3.330  14.520  1.7573 -0.5521  0.8127
11228TIP3   OH255098   6.436   6.150  15.880  0.4254 -0.1267 -0.3404
11228TIP3    H155099   6.391   6.203  15.815 -1.8312 -1.2962  0.2180
11228TIP3    H255100   6.518   6.124  15.838  0.0129  0.9735 -1.8566
11229TIP3   OH255101   6.590   1.465   6.420 -0.1850  0.3181 -0.2787
11229TIP3    H155102   6.593   1.390   6.361  0.4702  1.2942 -1.5187
11229TIP3    H255103   6.636   1.436   6.499 -1.2230 -1.0553 -0.1578
11230TIP3   OH255104   4.905   1.575  10.566  0.1210  0.3142  0.0541
11230TIP3    H155105   4.819   1.615  10.566 -0.4388 -0.8768  1.2395
11230TIP3    H255106   4.901   1.510  10.495  0.3511  0.8745 -0.4827
11231TIP3   OH255107   6.082   1.285  16.335 -0.1459 -0.3829 -0.1148
11231TIP3    H155108   6.175   1.266  16.319 -0.2033  0.4424 -1.4995
11231TIP3    H255109   6.035   1.209  16.301 -0.0366 -0.4376 -0.1419
11232TIP3   OH255110   2.177   5.074   6.284 -0.3594 -0.0387 -0.0547
11232TIP3    H155111   2.177   5.010   6.356  1.4812 -0.5302 -0.4825
11232TIP3    H255112   2.084   5.094   6.271 -0.8690 -1.5808  1.0069
11233TIP3   OH255113   2.442   6.493   5.770 -0.2023 -0.0174 -0.4705
11233TIP3    H155114   2.390   6.480   5.849  0.5912  1.3474  0.2878
11233TIP3    H255115   2.487   6.410   5.757 -0.9377 -0.5086  0.0623
11234TIP3   OH255116   6.166   3.687   0.055 -0.0188 -0.3035  0.7793
11234TIP3    H155117   6.129   3.599   0.044  0.4237 -0.3610 -0.2873
11234TIP3    H255118   6.258   3.677   0.031 -0.1286  0.6072 -0.0649
11235TIP3   OH255119   4.803   1.986  10.596 -0.1397  0.3521 -0.6719
11235TIP3    H155120   4.758   1.981  10.512  0.9436  1.9693 -1.3514
11235TIP3    H255121   4.733   2.004  10.659 -0.9933 -1.1580 -1.1456
11236TIP3   OH255122   2.570   5.512   0.704 -0.1706  0.0282 -0.0380
11236TIP3    H155123   2.498   5.467   0.749  0.1542  1.3608  1.8865
11236TIP3    H255124   2.559   5.604   0.728  2.1684  0.2494  0.2977
11237TIP3   OH255125   2.343   2.788  14.100  0.0269  0.3126  0.1768
11237TIP3    H155126   2.376   2.707  14.062 -1.1393 -0.0944  0.0180
11237TIP3    H255127   2.415   2.850  14.089  1.2459 -0.9085  1.0416
11238TIP3   OH255128   4.339   4.034   4.058  0.3840 -0.3317  0.2618
11238TIP3    H155129   4.334   3.940   4.076 -2.2489 -0.5419 -1.3357
11238TIP3    H255130   4.268   4.072   4.110  1.1567  0.7255  0.5572
11239TIP3   OH255131   2.855   5.089  13.251  0.4787 -0.6987  0.2873
11239TIP3    H155132   2.831   5.000  13.227  1.5984 -0.5377 -1.4736
11239TIP3    H255133   2.839   5.141  13.172  1.6608  0.3063  0.6823
11240TIP3   OH255134   1.757   1.220  13.323 -0.6816  0.8373  0.0692
11240TIP3    H155135   1.817   1.228  13.249 -2.4265  1.3614 -1.3083
11240TIP3    H255136   1.690   1.158  13.293 -0.1218 -0.8178  2.0833
11241TIP3   OH255137   1.170   3.681  11.929 -0.2640  1.2693 -0.5958
11241TIP3    H155138   1.260   3.655  11.910 -0.1409  0.8706  0.4871
11241TIP3    H255139   1.177   3.733  12.008 -1.0040  1.1314 -0.4432
11242TIP3   OH255140   6.481   0.105   6.368  0.2196 -0.3273 -0.2472
11242TIP3    H155141   6.537   0.034   6.399  0.2623 -0.3588 -0.3976
11242TIP3    H255142   6.541   0.164   6.321 -0.0676 -0.9111 -1.3388
11243TIP3   OH255143   5.303   0.644   4.669 -0.4824 -0.1562  0.2006
11243TIP3    H155144   5.311   0.552   4.645  0.0140 -0.2156  0.5776
11243TIP3    H255145   5.363   0.654   4.743 -0.5247  0.4729  0.1490
11244TIP3   OH255146   0.517   2.930   1.303  0.5611 -0.3084 -0.0007
11244TIP3    H155147   0.606   2.902   1.280  0.0283 -0.6884 -1.7371
11244TIP3    H255148   0.470   2.929   1.219 -0.1423  3.3751  0.2789
11245TIP3   OH255149   6.033   2.378  14.400 -0.6134  0.1674 -0.1320
11245TIP3    H155150   6.020   2.410  14.489 -1.9654  0.7066 -0.5100
11245TIP3    H255151   6.074   2.451  14.354 -2.4284  0.8821 -0.6417
11246TIP3   OH255152   6.537   1.024   1.066  0.2776 -0.0757 -0.1414
11246TIP3    H155153   6.492   0.944   1.094  0.0688 -0.0291 -0.3404
11246TIP3    H255154   6.520   1.029   0.972  0.1425  0.3001 -0.0971
11247TIP3   OH255155   2.222   5.477  15.741 -0.1144  0.2538  0.1660
11247TIP3    H155156   2.263   5.483  15.828  0.8424  2.4972 -0.3969
11247TIP3    H255157   2.220   5.568  15.710  1.4263 -0.7338 -3.0158
11248TIP3   OH255158   0.157   3.250   6.303  0.1215 -0.5296 -0.4539
11248TIP3    H155159   0.245   3.215   6.319  0.5493  0.0321 -1.5631
11248TIP3    H255160   0.137   3.300   6.383  1.1256 -0.0273 -0.5034
11249TIP3   OH255161   6.153   3.348  16.624  0.1533 -0.3659 -0.0932
11249TIP3    H155162   6.175   3.259  16.652 -0.1307 -0.2943  0.3628
11249TIP3    H255163   6.129   3.393  16.705 -1.9559 -0.5201 -0.6249
11250TIP3   OH255164   0.500   1.769  11.557 -0.2624  0.6571  0.2799
11250TIP3    H155165   0.483   1.812  11.473 -1.0088  1.7312  0.9665
11250TIP3    H255166   0.457   1.684  11.549 -0.4165  0.7925 -0.3894
11251TIP3   OH255167   3.325   0.642   4.677  0.7348  0.1624  0.0010
11251TIP3    H155168   3.237   0.605   4.686  0.2325  1.6206  1.2461
11251TIP3    H255169   3.311   0.730   4.642  1.6380  0.6721  0.8939
11252TIP3   OH255170   0.055   4.018  13.090  0.2841  0.3365  0.0841
11252TIP3    H155171  -0.015   4.058  13.038  1.1279  1.5419 -0.1593
11252TIP3    H255172   0.018   4.007  13.177 -0.0244  1.4744  0.0976
11253TIP3   OH255173   3.983   2.806  11.789 -0.7171  0.0952  0.0090
11253TIP3    H155174   3.955   2.896  11.799 -0.9399  0.1628 -1.1272
11253TIP3    H255175   3.905   2.759  11.762 -0.1969 -0.0790 -1.2430
11254TIP3   OH255176   5.220   2.008   1.137  0.2710 -0.1741 -0.0672
11254TIP3    H155177   5.261   2.080   1.089  2.6994 -1.5082 -0.0607
11254TIP3    H255178   5.236   2.029   1.230  0.0253 -0.1772 -0.0240
11255TIP3   OH255179   0.721   1.686   2.911 -0.2916  0.2092 -0.0732
11255TIP3    H155180   0.650   1.639   2.866 -0.4768  1.1867 -0.8226
11255TIP3    H255181   0.798   1.632   2.896 -0.5687 -0.0364 -0.6499
11256TIP3   OH255182   0.155   0.292  11.095  0.2393  0.4967  0.6533
11256TIP3    H155183   0.067   0.329  11.102 -0.1986 -0.5542  0.7287
11256TIP3    H255184   0.149   0.228  11.024  0.8648  0.1938  0.8653
11257TIP3   OH255185   2.728   2.713   6.262 -0.6031 -0.8830 -0.3600
11257TIP3    H155186   2.774   2.712   6.178  0.4694 -0.1774  0.2199
11257TIP3    H255187   2.642   2.675   6.242 -0.9229  0.6655 -2.0890
11258TIP3   OH255188   0.432   1.838   0.764 -0.3497 -0.0740 -0.2176
11258TIP3    H155189   0.388   1.855   0.847 -1.3132 -0.3769 -0.6605
11258TIP3    H255190   0.385   1.892   0.701 -0.6055 -1.0218 -0.8398
11259TIP3   OH255191   4.857   6.231  13.369  0.4976 -0.4133 -0.0387
11259TIP3    H155192   4.914   6.176  13.316  2.5073 -0.1437  1.7668
11259TIP3    H255193   4.825   6.297  13.308  2.1844 -0.5290 -1.1017
11260TIP3   OH255194   3.077   1.376  15.057 -0.0302 -0.7427  0.0198
11260TIP3    H155195   3.060   1.387  15.151 -0.5283  0.6749 -0.2141
11260TIP3    H255196   3.152   1.433  15.040 -2.4226  2.1576 -1.1886
11261TIP3   OH255197   4.887   1.515   0.977 -0.5743 -0.1201  0.4501
11261TIP3    H155198   4.955   1.524   1.044  0.3058  1.5599 -0.6381
11261TIP3    H255199   4.902   1.428   0.939  0.8777  0.1571  0.3490
11262TIP3   OH255200   2.454   5.484  15.957 -0.5817  0.0265 -0.0300
11262TIP3    H155201   2.400   5.461  16.033 -1.5554  0.7471 -0.4858
11262TIP3    H255202   2.501   5.563  15.983 -1.9181  1.0413 -0.6184
11263TIP3   OH255203   4.256   0.017  16.668  0.1253  0.1459  0.4227
11263TIP3    H155204   4.186  -0.046  16.685 -1.8158  2.3204  0.8534
11263TIP3    H255205   4.233   0.054  16.582  1.0276  0.5341  0.3476
11264TIP3   OH255206   2.480   2.769  11.953  0.3412  0.2782  0.1858
11264TIP3    H155207   2.565   2.729  11.935 -2.0007 -4.6672 -0.8794
11264TIP3    H255208   2.450   2.802  11.869  0.5569  0.6243  0.2471
11265TIP3   OH255209   0.360   2.449   5.634  0.3033 -1.0576  0.0550
11265TIP3    H155210   0.430   2.385   5.649  1.2063  0.0573  0.6176
11265TIP3    H255211   0.403   2.534   5.642 -0.7980 -0.3740 -1.1447
11266TIP3   OH255212   4.878   0.533   3.429  0.0123 -0.4403 -0.1682
11266TIP3    H155213   4.884   0.623   3.398 -0.1250 -1.0428 -2.0333
11266TIP3    H255214   4.791   0.526   3.468 -0.3580 -0.0264 -0.9100
11267TIP3   OH255215   3.892   0.298   0.949 -0.2102  0.3891  0.8521
11267TIP3    H155216   3.925   0.371   1.001  0.5944  1.4083 -1.0552
11267TIP3    H255217   3.954   0.227   0.967  1.1936  1.3225 -0.1955
11268TIP3   OH255218   4.502   4.351   2.246 -0.4699  0.3307  0.3266
11268TIP3    H155219   4.568   4.344   2.177  2.1808  0.2987  2.7624
11268TIP3    H255220   4.478   4.260   2.265 -1.6409  0.3713 -0.9579
11269TIP3   OH255221   2.199   5.645   4.838 -0.6339  0.8405 -0.0687
11269TIP3    H155222   2.164   5.657   4.926  0.6245  0.9472  0.4285
11269TIP3    H255223   2.193   5.732   4.797 -0.2278  1.0318  0.2802
11270TIP3   OH255224   5.763   2.791  13.527  0.5243  0.0152  0.2894
11270TIP3    H155225   5.789   2.858  13.591  1.5986  1.0332 -1.2024
11270TIP3    H255226   5.766   2.835  13.443 -2.7758 -0.7721 -0.3160
11271TIP3   OH255227   5.146   3.931  14.028  0.2029  0.0462  0.1714
11271TIP3    H155228   5.179   3.844  14.046  0.9975  0.4762  0.8306
11271TIP3    H255229   5.072   3.942  14.088 -0.5613 -0.5621 -0.6494
11272TIP3   OH255230   3.816   4.228   2.146 -0.5455 -0.3048  0.1229
11272TIP3    H155231   3.795   4.321   2.159 -0.1293 -0.0919 -0.6764
11272TIP3    H255232   3.809   4.215   2.051 -1.1389 -1.2278  0.2850
11273TIP3   OH255233   4.926   2.788   5.426 -0.4502 -0.0530 -0.0570
11273TIP3    H155234   4.902   2.870   5.382 -1.0140  0.2978  0.8911
11273TIP3    H255235   4.953   2.730   5.355 -4.3542 -0.5720 -1.2469
11274TIP3   OH255236   5.744   0.296  14.592 -0.2034 -0.2466 -0.1789
11274TIP3    H155237   5.718   0.218  14.544 -0.5682 -0.2167 -0.0280
11274TIP3    H255238   5.824   0.326  14.548  1.1800 -1.9389  1.1037
11275TIP3   OH255239   0.791   4.371  14.555  0.2894 -0.0911  0.1091
11275TIP3    H155240   0.706   4.328  14.549  1.0694 -1.5349 -0.9745
11275TIP3    H255241   0.796   4.402  14.646 -1.9768  1.3131 -0.2119
11276TIP3   OH255242   5.939   1.945   4.611  0.0711 -0.4980  0.0335
11276TIP3    H155243   6.021   1.919   4.570  0.6833  0.3704  0.6794
11276TIP3    H255244   5.923   1.879   4.678  0.7555 -0.1089  0.5725
11277TIP3   OH255245   3.184   0.303  15.153  0.1317  0.3797  0.1037
11277TIP3    H155246   3.092   0.302  15.179  0.6078  0.7565  1.8590
11277TIP3    H255247   3.190   0.371  15.086 -1.2559 -1.0907 -1.5532
11278TIP3   OH255248   0.347   4.374  12.143 -0.5090 -0.0475  0.1005
11278TIP3    H155249   0.422   4.391  12.086 -0.4312  0.1673  0.2626
11278TIP3    H255250   0.300   4.457  12.146 -0.1630  0.1291  0.8526
11279TIP3   OH255251   0.047   3.311  12.310  0.1051  0.5701 -0.7477
11279TIP3    H155252   0.063   3.378  12.244 -0.0114  0.9156 -0.4234
11279TIP3    H255253   0.081   3.347  12.391  1.9267 -0.6085 -0.9559
11280TIP3   OH255254   5.886   1.127  11.510 -0.1907 -0.1690  0.3544
11280TIP3    H155255   5.970   1.165  11.482 -0.7660  0.2417 -0.8538
11280TIP3    H255256   5.907   1.037  11.533  0.8070  0.2772  1.2193
11281TIP3   OH255257   0.697   0.610   2.968  0.2859  0.9338  0.4105
11281TIP3    H155258   0.632   0.566   3.024 -0.2882 -0.8954 -1.6214
11281TIP3    H255259   0.730   0.682   3.022 -2.1836  0.8612  2.1163
11282TIP3   OH255260   5.493   0.756   2.669  0.3113 -0.0541  0.4829
11282TIP3    H155261   5.539   0.787   2.591 -0.4602  0.5530  0.2696
11282TIP3    H255262   5.521   0.665   2.678  1.0877  0.1326  0.0062
11283TIP3   OH255263   4.484   5.591   5.484  0.2208  0.0284  0.3872
11283TIP3    H155264   4.544   5.593   5.410 -0.3164  1.3308 -0.0154
11283TIP3    H255265   4.403   5.554   5.448  0.8411 -1.9852  0.9924
11284TIP3   OH255266   3.051   0.886  14.871  0.7620 -0.6288 -0.5859
11284TIP3    H155267   3.115   0.818  14.892  0.5736 -0.4906  0.4770
11284TIP3    H255268   3.102   0.967  14.871  0.7241 -0.6054 -0.4810
11285TIP3   OH255269   3.328   1.463   3.705  0.0549  0.0831 -0.3215
11285TIP3    H155270   3.272   1.468   3.783  1.5713 -0.0997  0.7868
11285TIP3    H255271   3.304   1.540   3.653 -1.0100  0.1628  0.2712
11286TIP3   OH255272   4.462   6.522   2.398 -0.1688 -0.0248 -0.6282
11286TIP3    H155273   4.368   6.524   2.385 -0.4934 -0.8380  1.4048
11286TIP3    H255274   4.499   6.545   2.313 -2.1845 -0.4816 -1.6444
11287TIP3   OH255275   6.116   6.506  15.275 -0.0230 -0.1091  0.3806
11287TIP3    H155276   6.148   6.558  15.348 -1.7620  0.5853  0.6606
11287TIP3    H255277   6.033   6.547  15.250 -0.5194 -1.6336 -0.5645
11288TIP3   OH255278   0.677   5.339   1.923  0.0093 -0.0216 -0.1532
11288TIP3    H155279   0.712   5.323   1.836  0.4695  1.9286 -0.3418
11288TIP3    H255280   0.649   5.253   1.954  0.8573 -0.8931 -1.7776
11289TIP3   OH255281   6.172   3.428  14.477  0.2584 -0.6633 -0.0798
11289TIP3    H155282   6.260   3.435  14.514 -0.2014 -1.3065  1.1707
11289TIP3    H255283   6.115   3.466  14.544 -0.5378 -1.4219 -0.3168
11290TIP3   OH255284   4.781   5.227  11.566  0.5268 -0.8452 -0.2602
11290TIP3    H155285   4.854   5.280  11.598 -0.7732  1.4719 -1.0039
11290TIP3    H255286   4.770   5.255  11.475 -1.5104 -0.9061 -0.0499
11291TIP3   OH255287   4.561   6.433  14.072  0.2700 -0.5136  0.2592
11291TIP3    H155288   4.593   6.481  13.995  0.4260 -0.2831  0.4693
11291TIP3    H255289   4.490   6.378  14.038 -0.9089  0.9586  0.2893
11292TIP3   OH255290   6.246   4.886  15.339  0.1778 -0.1363  0.7245
11292TIP3    H155291   6.275   4.922  15.256  0.4198  0.2263  0.9617
11292TIP3    H255292   6.150   4.883  15.333  0.2604 -1.6634 -0.1932
11293TIP3   OH255293   3.742   0.016   6.497 -0.1491  0.6225 -0.1999
11293TIP3    H155294   3.793   0.077   6.550  0.8904  0.3817 -0.9086
11293TIP3    H255295   3.802  -0.010   6.427 -0.6368 -1.1138  0.0196
11294TIP3   OH255296   1.919   5.033   4.687 -0.1752 -0.2842 -0.1748
11294TIP3    H155297   1.833   4.990   4.690 -0.3505 -0.1063 -1.7835
11294TIP3    H255298   1.981   4.961   4.681 -0.1671 -0.4293  1.4591
11295TIP3   OH255299   0.604   5.760   0.770 -0.4088  0.5746 -0.1682
11295TIP3    H155300   0.526   5.802   0.734  0.6758  1.7224 -1.2182
11295TIP3    H255301   0.619   5.683   0.714 -0.4555  0.6750 -0.3169
11296TIP3   OH255302   5.973   2.792   0.568  0.6843 -0.2710  0.0991
11296TIP3    H155303   6.020   2.709   0.558  1.9899  0.6945 -2.1770
11296TIP3    H255304   6.019   2.837   0.639  1.7201 -0.3691 -0.4898
11297TIP3   OH255305   2.042   0.849   4.899  0.0357  0.0592  0.6831
11297TIP3    H155306   2.068   0.806   4.818  2.6997  1.6014  0.6648
11297TIP3    H255307   2.098   0.811   4.966 -1.5153 -0.5403  1.6788
11298TIP3   OH255308   3.126   0.214  15.772 -0.1317 -0.9135  0.0563
11298TIP3    H155309   3.105   0.207  15.679  0.5492 -3.2679  0.0680
11298TIP3    H255310   3.041   0.206  15.816 -0.3337 -0.7716 -0.3019
11299TIP3   OH255311   6.487   1.213  15.885 -0.0412 -0.4591  0.5857
11299TIP3    H155312   6.492   1.287  15.826 -1.5262 -0.1023  0.8728
11299TIP3    H255313   6.568   1.216  15.936 -0.4183  1.4290  1.1209
11300TIP3   OH255314   0.736   0.729  10.696 -0.2347  0.2619  0.3355
11300TIP3    H155315   0.759   0.673  10.770  0.7598 -0.8191 -0.7674
11300TIP3    H255316   0.780   0.688  10.621 -0.1236  2.0992 -0.6144
11301TIP3   OH255317   3.146   4.402   3.309 -0.3793 -0.0285 -0.2353
11301TIP3    H155318   3.107   4.483   3.343  1.7936  1.2599 -0.6787
11301TIP3    H255319   3.106   4.391   3.223 -0.9146  0.4290 -0.0495
11302TIP3   OH255320   1.652   6.541  16.074  0.6222  0.0395 -0.0290
11302TIP3    H155321   1.720   6.474  16.080  1.4931  0.9278  0.2009
11302TIP3    H255322   1.682   6.599  16.004 -0.3604 -0.0603 -0.5497
11303TIP3   OH255323   1.334   5.703  12.422  0.1996 -0.2786 -0.0731
11303TIP3    H155324   1.423   5.732  12.401  0.6822 -2.0205 -0.5397
11303TIP3    H255325   1.300   5.770  12.481  1.1445  1.3611 -1.3609
11304TIP3   OH255326   5.853   4.895  15.598 -0.1379 -0.6871 -0.5780
11304TIP3    H155327   5.828   4.888  15.691  0.6320 -2.9191 -0.4847
11304TIP3    H255328   5.770   4.893  15.551 -0.5161  0.0142  0.0468
11305TIP3   OH255329   0.011   0.703  15.910  0.3885  0.8224  0.1175
11305TIP3    H155330   0.061   0.666  15.983  0.9310  0.9497 -0.1817
11305TIP3    H255331   0.077   0.746  15.855  0.0607  0.2737 -0.7232
11306TIP3   OH255332   5.640   0.604  11.018 -0.0282  0.1962  0.4968
11306TIP3    H155333   5.611   0.587  10.928 -0.5851 -2.6214  1.1354
11306TIP3    H255334   5.580   0.671  11.050 -0.8095  0.1136 -0.7335
11307TIP3   OH255335   5.919   6.246  13.221 -0.6027 -0.0014 -0.3776
11307TIP3    H155336   5.919   6.173  13.159  0.7096 -0.0597 -0.3047
11307TIP3    H255337   5.984   6.222  13.287 -0.5806  0.9705 -0.0368
11308TIP3   OH255338   5.149   6.771  14.862 -0.1236  0.2016 -0.2626
11308TIP3    H155339   5.183   6.788  14.774  1.5671  0.1072  0.3572
11308TIP3    H255340   5.207   6.820  14.920 -1.0291 -0.0102  0.8283
11309TIP3   OH255341   4.000   6.040  11.717  0.4895 -1.1913 -0.0510
11309TIP3    H155342   4.014   6.049  11.623 -0.1685 -0.5967 -0.0953
11309TIP3    H255343   4.075   6.085  11.757 -0.8369  1.3033 -0.2850
11310TIP3   OH255344   3.314   5.835  12.801  0.8191 -0.1951  0.4357
11310TIP3    H155345   3.279   5.773  12.737 -0.8315  1.6170 -0.4870
11310TIP3    H255346   3.271   5.811  12.883  2.4035 -2.0730  0.7699
11311TIP3   OH255347   0.311   4.578   4.108  0.3921  0.3688  0.0900
11311TIP3    H155348   0.253   4.506   4.083  1.4459 -1.1661  1.9005
11311TIP3    H255349   0.255   4.636   4.160 -0.7640  1.5312 -2.3466
11312TIP3   OH255350   1.590   3.154  11.656 -0.2000 -0.4706 -0.4122
11312TIP3    H155351   1.625   3.241  11.676  0.4691 -0.8473  0.0853
11312TIP3    H255352   1.668   3.099  11.644 -0.6140 -1.1345 -0.1007
11313TIP3   OH255353   5.373   5.708  13.130 -0.2501 -0.0711  0.0418
11313TIP3    H155354   5.458   5.738  13.097 -0.6958 -0.6631 -1.6607
11313TIP3    H255355   5.360   5.759  13.210  1.9005 -0.2837  0.5569
11314TIP3   OH255356   2.877   4.263  16.657  0.1747 -0.1572  0.1255
11314TIP3    H155357   2.786   4.257  16.626  0.2780 -0.7240 -0.0649
11314TIP3    H255358   2.870   4.250  16.752  0.0618 -0.2149  0.1099
11315TIP3   OH255359   1.908   2.321  12.872 -0.3051 -0.7861 -0.0402
11315TIP3    H155360   1.935   2.402  12.829 -1.4127 -0.1344  0.4681
11315TIP3    H255361   1.962   2.253  12.831 -1.3067 -0.1890 -2.4408
11316TIP3   OH255362   2.395   3.339   4.208  0.1210 -0.2800 -0.2669
11316TIP3    H155363   2.478   3.297   4.184  0.6980  0.4850  0.3460
11316TIP3    H255364   2.333   3.267   4.216  0.9264 -0.9415  0.1008
11317TIP3   OH255365   3.375   0.759   2.175 -0.4757  0.2218  0.5602
11317TIP3    H155366   3.463   0.728   2.196 -0.5001 -0.1284  0.1612
11317TIP3    H255367   3.319   0.719   2.241 -0.6408 -1.3923 -0.5092
11318TIP3   OH255368   0.705   6.585   1.556  0.5813 -0.0621 -0.1975
11318TIP3    H155369   0.686   6.643   1.629  1.8924  0.3605 -0.1833
11318TIP3    H255370   0.619   6.562   1.521  0.0066  0.9156  0.5437
11319TIP3   OH255371   0.407   2.653   3.170 -0.7250 -0.0292 -0.1498
11319TIP3    H155372   0.320   2.650   3.209 -0.6639  0.5904  0.0321
11319TIP3    H255373   0.440   2.564   3.179 -0.9016 -0.0054  0.7761
11320TIP3   OH255374   3.647   3.959  15.442 -0.0104  0.1688  0.1303
11320TIP3    H155375   3.702   3.882  15.431  1.4315  1.3634 -1.1496
11320TIP3    H255376   3.646   3.975  15.536  1.2687 -0.2746  0.2207
11321TIP3   OH255377   1.780   0.043   5.846 -0.3283 -0.3557  0.2929
11321TIP3    H155378   1.836   0.005   5.779 -1.3639  0.1560 -0.8807
11321TIP3    H255379   1.776  -0.024   5.915 -0.2463 -1.3812 -0.6942
11322TIP3   OH255380   1.991   4.882   6.137 -0.0013 -0.1189  0.0164
11322TIP3    H155381   1.967   4.966   6.176  1.7584 -0.2275  1.4543
11322TIP3    H255382   1.933   4.872   6.062 -0.1506  2.4344 -0.2498
11323TIP3   OH255383   6.550   5.600   1.858  0.0236  0.3398 -0.1083
11323TIP3    H155384   6.548   5.695   1.870 -1.6101  0.5032 -1.5170
11323TIP3    H255385   6.460   5.572   1.870  0.1375 -0.7697 -1.6730
11324TIP3   OH255386   3.043   0.717  15.663  0.5287  0.2738 -0.0907
11324TIP3    H155387   3.132   0.753  15.671  0.9391 -1.0208  1.4082
11324TIP3    H255388   3.053   0.644  15.602  0.8427 -0.9507  1.4056
11325TIP3   OH255389   1.667   5.889  15.099 -0.5397  0.4882  0.3324
11325TIP3    H155390   1.716   5.809  15.080 -0.7728  0.2363  0.7920
11325TIP3    H255391   1.592   5.860  15.151 -0.2625  1.0866  1.0744
11326TIP3   OH255392   1.922   2.301   2.060 -0.1183  0.2535 -0.0464
11326TIP3    H155393   1.834   2.267   2.077 -0.5099  1.1940 -0.1839
11326TIP3    H255394   1.919   2.329   1.969  0.3888  0.1173 -0.1065
11327TIP3   OH255395   2.726   4.439   6.482  0.0248  0.2093 -0.1962
11327TIP3    H155396   2.704   4.530   6.499  1.3430  0.8132 -1.5617
11327TIP3    H255397   2.714   4.395   6.566 -0.8944  1.5784  0.4040
11328TIP3   OH255398   3.329   3.414   1.326 -0.3675 -0.0292 -0.2665
11328TIP3    H155399   3.332   3.355   1.251  0.1714 -0.1853 -0.1242
11328TIP3    H255400   3.411   3.464   1.321 -1.0282  1.0420 -0.6573
11329TIP3   OH255401   3.493   4.390  11.735 -0.0943 -0.3842 -0.0659
11329TIP3    H155402   3.411   4.357  11.698 -1.1263 -0.8306  2.4625
11329TIP3    H255403   3.478   4.388  11.830  2.2006  1.2492  0.3671
11330TIP3   OH255404   0.412   0.145   4.512  0.7308  0.2745 -0.5234
11330TIP3    H155405   0.423   0.065   4.563  0.7110  0.4399 -0.2553
11330TIP3    H255406   0.494   0.193   4.525  0.9481  0.0632 -1.0998
11331TIP3   OH255407   5.058   2.255   2.787  0.3852  0.4534  0.2384
11331TIP3    H155408   5.035   2.173   2.744  0.6645  1.5830 -2.1867
11331TIP3    H255409   5.152   2.249   2.802  0.4847  0.4665 -0.3360
11332TIP3   OH255410   2.247   4.137   4.249  0.2109 -0.1103  0.1208
11332TIP3    H155411   2.237   4.230   4.229  0.3709 -0.4042 -1.4098
11332TIP3    H255412   2.175   4.094   4.202  0.6263 -0.8310  0.1332
11333TIP3   OH255413   4.567   3.410  15.603 -0.4833 -0.3933 -0.0428
11333TIP3    H155414   4.496   3.355  15.636 -0.3111 -1.1705 -0.9540
11333TIP3    H255415   4.587   3.470  15.676 -2.2277 -0.0007  0.1220
11334TIP3   OH255416   4.787   0.629  12.906  0.6544 -0.7018 -0.0379
11334TIP3    H155417   4.775   0.569  12.979  0.6102  0.7842  1.1927
11334TIP3    H255418   4.727   0.597  12.839 -0.0951 -1.4315  0.9670
11335TIP3   OH255419   3.221   6.080   0.720  0.2189  0.0360 -0.3457
11335TIP3    H155420   3.164   6.004   0.704  1.9857 -1.4491  0.2093
11335TIP3    H255421   3.161   6.154   0.729 -1.4997 -1.1844 -1.5595
11336TIP3   OH255422   2.714   2.503  15.875  0.1770 -0.1949  0.1154
11336TIP3    H155423   2.745   2.572  15.816  0.9439 -0.1098  0.6101
11336TIP3    H255424   2.706   2.426  15.819 -1.8684  0.5842 -0.6978
11337TIP3   OH255425   6.239   3.161   3.107  0.5359 -0.5272  0.5865
11337TIP3    H155426   6.192   3.219   3.167 -0.6743 -2.5024  1.5907
11337TIP3    H255427   6.322   3.142   3.152  0.9114  0.3493  0.2815
11338TIP3   OH255428   2.787   0.292  10.662  0.1956 -0.6285  0.2616
11338TIP3    H155429   2.734   0.214  10.679 -1.0641 -0.1513 -1.3381
11338TIP3    H255430   2.737   0.364  10.699  0.9153 -0.4660  0.9242
11339TIP3   OH255431   2.714   1.229   2.648 -0.3035  0.2754 -0.0449
11339TIP3    H155432   2.790   1.278   2.617  0.6640 -1.2103 -0.1205
11339TIP3    H255433   2.723   1.143   2.608 -1.9067 -0.0044  0.1564
11340TIP3   OH255434   5.345   1.483   1.846 -0.2555  0.4795 -0.2855
11340TIP3    H155435   5.290   1.445   1.778  1.1396 -0.9326 -0.6642
11340TIP3    H255436   5.418   1.523   1.798  0.4882 -0.1127  0.3319
11341TIP3   OH255437   2.506   4.521  12.902  0.2450  0.4583 -0.2378
11341TIP3    H155438   2.427   4.511  12.848 -0.5989  0.6982  0.9236
11341TIP3    H255439   2.578   4.506  12.842 -0.7115 -0.6150 -1.1437
11342TIP3   OH255440   2.888   0.493   3.677 -0.1674 -0.1628  0.3180
11342TIP3    H155441   2.890   0.575   3.627  0.7712  1.5657  3.1256
11342TIP3    H255442   2.979   0.479   3.705 -0.6577 -1.1559  1.4609
11343TIP3   OH255443   4.809   0.634   1.326  0.3613  0.3565  0.2099
11343TIP3    H155444   4.871   0.665   1.393  0.2378 -0.9768  0.9541
11343TIP3    H255445   4.729   0.614   1.374 -0.4343  1.4139 -0.6582
11344TIP3   OH255446   0.119   3.450  16.267 -0.2502 -0.1905 -0.4718
11344TIP3    H155447   0.135   3.398  16.345 -0.6836 -1.1159 -0.9945
11344TIP3    H255448   0.158   3.536  16.287  1.6780 -1.1250 -0.1285
11345TIP3   OH255449   4.843   5.651   4.104  0.3697  0.2754  0.4889
11345TIP3    H155450   4.817   5.611   4.187  1.5863 -1.7760 -0.0947
11345TIP3    H255451   4.880   5.580   4.053 -0.6721  1.4333 -1.9889
11346TIP3   OH255452   3.161   0.629   1.235  0.0205  0.3874  0.0305
11346TIP3    H155453   3.130   0.539   1.223  0.3967  0.2247  0.2541
11346TIP3    H255454   3.254   0.625   1.213 -0.2280  0.9779 -1.1457
11347TIP3   OH255455   0.596   5.470   2.268 -0.3896 -0.4550 -0.1299
11347TIP3    H155456   0.630   5.444   2.354  1.1950  1.0069 -0.2858
11347TIP3    H255457   0.662   5.439   2.206  0.2930  1.6713 -0.5076
11348TIP3   OH255458   6.602   4.174   1.496 -0.3263  0.2865 -0.1233
11348TIP3    H155459   6.570   4.145   1.581  0.1347  1.8979  0.6326
11348TIP3    H255460   6.691   4.140   1.492 -0.2045  0.5431  0.2432
11349TIP3   OH255461   3.461   4.616   3.382  0.0494  0.0922 -0.4958
11349TIP3    H155462   3.519   4.692   3.378  0.4287 -0.0262  2.0745
11349TIP3    H255463   3.426   4.617   3.471 -2.2505 -1.0705 -1.3380
11350TIP3   OH255464   2.442   0.908   2.459 -0.9149  0.3389  0.2860
11350TIP3    H155465   2.395   0.824   2.462 -1.7831  0.7058 -1.7889
11350TIP3    H255466   2.374   0.974   2.476 -0.3996  0.6656  1.0730
11351TIP3   OH255467   1.656   1.042   5.262 -0.0491 -0.2081 -0.6130
11351TIP3    H155468   1.684   1.014   5.175  2.0558 -0.8965  0.2433
11351TIP3    H255469   1.727   1.013   5.320 -1.0153  0.9995  1.2127
11352TIP3   OH255470   1.405   2.343  13.028 -0.4291  0.3543  0.3312
11352TIP3    H155471   1.418   2.283  12.954 -1.1040  0.6586 -0.0338
11352TIP3    H255472   1.480   2.326  13.085 -0.0537 -0.0900 -0.2805
11353TIP3   OH255473   3.111   6.276  14.383  0.3281 -0.1825  0.6582
11353TIP3    H155474   3.160   6.257  14.303 -0.6838  1.0414 -0.2817
11353TIP3    H255475   3.154   6.225  14.451  0.8218 -1.7347 -0.7933
11354TIP3   OH255476   3.824   3.571  13.652 -0.4817  0.5391 -0.9010
11354TIP3    H155477   3.886   3.630  13.610 -1.3258  3.0507  1.2332
11354TIP3    H255478   3.774   3.627  13.711 -3.8794 -1.6318 -1.5550
11355TIP3   OH255479   0.698   3.278  13.651  0.6505 -0.3609 -0.0958
11355TIP3    H155480   0.792   3.286  13.668  0.8513  0.9721 -1.7959
11355TIP3    H255481   0.675   3.192  13.686  2.2660 -0.2208  1.3588
11356TIP3   OH255482   0.309   1.043   2.589 -0.1742 -0.2336 -0.0155
11356TIP3    H155483   0.400   1.065   2.609 -0.2900 -0.5279  0.8662
11356TIP3    H255484   0.264   1.047   2.674 -0.5347 -2.2428 -0.0901
11357TIP3   OH255485   4.974   0.763  14.794  0.1290  0.5654  0.0766
11357TIP3    H155486   5.035   0.815  14.742  1.0194 -1.5341 -1.0314
11357TIP3    H255487   4.887   0.794  14.768  0.6558  1.5282 -0.5411
11358TIP3   OH255488   3.561   4.943  13.759 -0.2445 -0.7395 -0.8240
11358TIP3    H155489   3.539   4.899  13.841  0.2955  3.2881  1.6053
11358TIP3    H255490   3.650   4.914  13.739  0.9047  0.7287  1.8492
11359TIP3   OH255491   4.325   5.974   4.687 -0.2927 -0.3058 -0.9233
11359TIP3    H155492   4.417   5.982   4.661  0.0165  1.8429  0.7336
11359TIP3    H255493   4.282   6.049   4.647 -0.6137  0.7019  1.2701
11360TIP3   OH255494   3.818   6.758  12.108  0.0583 -0.2362  0.3192
11360TIP3    H155495   3.741   6.806  12.139 -0.6208 -1.2660  0.2244
11360TIP3    H255496   3.808   6.670  12.145  1.9460  0.0321  1.5630
11361TIP3   OH255497   2.601   3.528   4.231  0.5677 -0.0256  0.4341
11361TIP3    H155498   2.626   3.592   4.165 -0.3048 -0.0933  0.0321
11361TIP3    H255499   2.532   3.475   4.189 -0.0335 -0.0329  1.4027
11362TIP3   OH255500   4.619   4.359   0.322  0.1226  0.8673  0.2161
11362TIP3    H155501   4.601   4.299   0.395  2.0900  0.3457  0.3031
11362TIP3    H255502   4.681   4.311   0.267 -0.7603  1.5661 -1.4154
11363TIP3   OH255503   0.075   5.931  14.487 -0.2480  0.8553 -0.4753
11363TIP3    H155504   0.119   5.902  14.406  0.5606  2.7722 -0.7419
11363TIP3    H255505   0.111   5.875  14.555 -1.5843 -1.3933 -1.5506
11364TIP3   OH255506   6.779   2.803   2.639  0.8293  0.5847 -0.0514
11364TIP3    H155507   6.840   2.853   2.585 -0.1113  0.9194 -0.8279
11364TIP3    H255508   6.781   2.715   2.602  2.6626 -0.0263  1.4648
11365TIP3   OH255509   5.202   0.033  17.195  0.0130 -0.3559  0.2403
11365TIP3    H155510   5.218   0.012  17.103  0.7095  0.2249  0.2223
11365TIP3    H255511   5.288   0.026  17.236 -0.4207 -1.3420  1.0041
11366TIP3   OH255512   6.179   1.113   3.112  0.0819  0.1310  0.6033
11366TIP3    H155513   6.164   1.131   3.204  2.1432  1.5055  0.6944
11366TIP3    H255514   6.192   1.199   3.071  1.6175 -0.5824 -0.4918
11367TIP3   OH255515   1.005   0.022   5.035  0.0911  0.2977 -0.0352
11367TIP3    H155516   0.911   0.018   5.054  0.1240 -1.7945 -0.2218
11367TIP3    H255517   1.047   0.008   5.120  0.2329  0.5034 -0.0707
11368TIP3   OH255518   0.613   2.036   1.134  0.0987 -0.4199 -0.0264
11368TIP3    H155519   0.633   1.958   1.187  1.4346 -0.2504 -0.2618
11368TIP3    H255520   0.626   2.008   1.044 -0.4915 -0.2212 -0.1769
11369TIP3   OH255521   3.466   3.963  10.289  0.0454 -0.0392 -0.0226
11369TIP3    H155522   3.397   3.940  10.226 -2.4719  1.9136  1.9006
11369TIP3    H255523   3.462   3.892  10.354 -0.5310  0.3528  0.3732
11370TIP3   OH255524   2.273   1.683   0.834 -0.1127 -0.5761 -0.1746
11370TIP3    H155525   2.238   1.659   0.748  0.8446 -1.6862 -0.2610
11370TIP3    H255526   2.327   1.608   0.860 -0.6553 -0.3941  1.5435
11371TIP3   OH255527   1.173   0.814   1.388 -0.7089  0.6614 -0.4847
11371TIP3    H155528   1.219   0.731   1.376 -0.2475  0.2300  3.4937
11371TIP3    H255529   1.087   0.789   1.422 -0.4579  1.7914  1.0254
11372TIP3   OH255530   5.694   3.441  17.181  0.1654 -0.0723 -0.5560
11372TIP3    H155531   5.716   3.354  17.215 -0.7114  0.1795  0.6680
11372TIP3    H255532   5.689   3.429  17.086 -0.2192 -1.4182 -0.3774
11373TIP3   OH255533   4.163   3.221   2.656 -0.3545 -0.4768  0.2380
11373TIP3    H155534   4.256   3.241   2.643 -0.2931 -0.4152  0.7488
11373TIP3    H255535   4.119   3.261   2.581  0.1145 -1.1876 -0.4208
11374TIP3   OH255536   1.300   4.667  13.427 -0.2808  0.0094  0.3569
11374TIP3    H155537   1.207   4.646  13.431 -0.5144  1.3343  2.1230
11374TIP3    H255538   1.344   4.588  13.457 -0.9104 -0.0477  1.1366
11375TIP3   OH255539   0.419   6.129   5.722  0.3971 -0.1774 -0.4849
11375TIP3    H155540   0.378   6.102   5.804 -0.6607 -2.4495 -1.7127
11375TIP3    H255541   0.433   6.223   5.732  0.7267 -0.4783  2.4698
11376TIP3   OH255542   5.464   3.314  12.890  0.6462 -0.4667  0.1581
11376TIP3    H155543   5.559   3.312  12.900  0.9166 -0.0393 -2.0830
11376TIP3    H255544   5.444   3.239  12.834 -0.1964  0.1998 -0.4468
11377TIP3   OH255545   2.237   6.495   0.743  0.1865  0.1663  0.2559
11377TIP3    H155546   2.225   6.522   0.834  1.1180  0.3276  0.3347
11377TIP3    H255547   2.178   6.421   0.732  1.0429 -0.7009  1.3747
11378TIP3   OH255548   2.790   1.104  13.283  0.2151  0.1514  0.1951
11378TIP3    H155549   2.698   1.079  13.298 -0.1074  1.3298  0.2534
11378TIP3    H255550   2.793   1.126  13.190  0.1376  1.3408  0.4720
11379TIP3   OH255551   5.313   0.917  13.953 -0.3872  0.0643 -0.6313
11379TIP3    H155552   5.288   1.005  13.926  0.4199  1.2346  2.2569
11379TIP3    H255553   5.407   0.922  13.968 -0.1258 -1.6247 -1.5181
11380TIP3   OH255554   1.311   2.765  12.225  0.0557 -0.5731  0.1135
11380TIP3    H155555   1.317   2.786  12.319  0.2679 -1.6509  0.3430
11380TIP3    H255556   1.241   2.822  12.193 -1.4856 -1.6882  1.3847
11381TIP3   OH255557   0.530   1.196  14.059  0.2115  0.1098  0.1781
11381TIP3    H155558   0.577   1.208  13.976 -1.0156 -0.1243 -0.5758
11381TIP3    H255559   0.592   1.223  14.126  1.5249 -0.4990 -0.7622
11382TIP3   OH255560   0.197   1.054  15.703  0.4462  0.0891 -0.0244
11382TIP3    H155561   0.281   1.058  15.749 -0.3465  0.3140  1.4583
11382TIP3    H255562   0.132   1.064  15.773 -0.8264 -0.9299 -1.0458
11383TIP3   OH255563   3.120   2.043  16.799  0.4392 -0.2759 -0.1196
11383TIP3    H155564   3.114   2.132  16.835  0.0651  0.2344 -1.4416
11383TIP3    H255565   3.166   1.993  16.867  2.0431  1.2876 -0.0262
11384TIP3   OH255566   0.330   1.636  11.187  0.3977  0.1754  0.6428
11384TIP3    H155567   0.383   1.559  11.208 -1.0026 -0.7542  0.8169
11384TIP3    H255568   0.321   1.634  11.092 -0.7919 -0.6543  0.7684
11385TIP3   OH255569   0.567   6.684   6.074 -0.1486  0.5143  0.7606
11385TIP3    H155570   0.520   6.607   6.042  0.2786  1.1435 -1.4476
11385TIP3    H255571   0.591   6.661   6.164  0.3287 -2.1054  0.0301
11386TIP3   OH255572   4.354   0.533  17.006 -0.2312  0.0824 -0.1156
11386TIP3    H155573   4.406   0.606  17.040  2.0197 -1.6954  0.3706
11386TIP3    H255574   4.279   0.528  17.066 -0.2697  1.7953  0.0085
11387TIP3   OH255575   4.321   6.749   4.871  0.1966 -0.0280  0.3840
11387TIP3    H155576   4.413   6.742   4.846  0.3351 -0.3497  0.9736
11387TIP3    H255577   4.321   6.815   4.940 -0.0819  0.3205  0.0503
11388TIP3   OH255578   3.637   1.190  11.232 -0.0660 -0.3265 -0.3569
11388TIP3    H155579   3.711   1.157  11.181  0.5326  0.2684  0.1121
11388TIP3    H255580   3.577   1.116  11.239  1.5179 -1.4981  1.1759
11389TIP3   OH255581   5.287   3.658  14.044 -0.0217  0.0073 -0.2890
11389TIP3    H155582   5.321   3.603  14.115  0.2870 -0.1711 -0.5772
11389TIP3    H255583   5.349   3.646  13.972 -0.4065  0.0907 -0.6346
11390TIP3   OH255584   0.230   4.308  15.223  0.4452  0.3018  0.4713
11390TIP3    H155585   0.264   4.393  15.252  0.5843 -0.1730  1.7464
11390TIP3    H255586   0.140   4.306  15.255  0.7760 -0.4624  1.3719
11391TIP3   OH255587   0.559   5.077   0.330 -0.3271  0.2688 -0.1377
11391TIP3    H155588   0.536   5.026   0.253 -0.0929 -0.4218  0.2476
11391TIP3    H255589   0.643   5.117   0.309  0.1159 -0.5486  0.0592
11392TIP3   OH255590   5.770   3.143  15.304  0.6506  0.0250 -0.3873
11392TIP3    H155591   5.746   3.168  15.215  0.2609  1.3464  0.0703
11392TIP3    H255592   5.865   3.131  15.300  0.6457  0.1413 -0.9656
11393TIP3   OH255593   3.414   0.289   5.813  0.4693 -0.1015 -0.7753
11393TIP3    H155594   3.377   0.344   5.744 -0.0499 -1.6340 -1.7272
11393TIP3    H255595   3.343   0.280   5.877 -0.1048 -1.2924 -1.5768
11394TIP3   OH255596   4.036   0.359  13.363  0.5107  0.0891  0.1591
11394TIP3    H155597   4.021   0.308  13.443 -3.1648 -1.7683 -1.5795
11394TIP3    H255598   4.080   0.298  13.304  2.3822  1.1725  0.3933
11395TIP3   OH255599   4.382   4.896  14.395  0.3455 -0.1516  0.1661
11395TIP3    H155600   4.374   4.990  14.378 -0.4685 -0.1608  0.4677
11395TIP3    H255601   4.296   4.860  14.371  0.5686 -0.7774  0.2981
11396TIP3   OH255602   1.990   2.147   4.107  0.1623  0.1315 -0.0840
11396TIP3    H155603   1.959   2.190   4.186  1.3345 -1.0535  1.0481
11396TIP3    H255604   1.936   2.184   4.037 -0.6244  1.4813  1.1995
11397TIP3   OH255605   3.058   5.224   4.708  0.3819 -0.3811 -0.3872
11397TIP3    H155606   3.094   5.310   4.729 -1.3189  0.2878 -0.2065
11397TIP3    H255607   3.041   5.183   4.793  1.8814 -1.2057 -0.4661
11398TIP3   OH255608   3.800   5.439   2.169 -0.4943  0.2977  0.7807
11398TIP3    H155609   3.811   5.394   2.086 -2.6314  2.6057 -0.8335
11398TIP3    H255610   3.760   5.374   2.227 -2.4785 -0.2612 -1.1499
11399TIP3   OH255611   2.531   6.373  15.136  0.2570 -0.6093 -0.3034
11399TIP3    H155612   2.529   6.431  15.060  1.9006  1.8628  1.4282
11399TIP3    H255613   2.623   6.349  15.146  0.2094 -0.1583  1.3827
11400TIP3   OH255614   6.284   5.167   5.704  0.2267  0.1261 -0.6511
11400TIP3    H155615   6.191   5.177   5.686  0.4263 -0.0056 -1.8292
11400TIP3    H255616   6.319   5.256   5.701  0.2785  0.0927 -1.0219
11401TIP3   OH255617   1.860   0.081  17.201 -0.5485 -0.1850 -0.0110
11401TIP3    H155618   1.796   0.149  17.218 -2.0815 -1.1911 -1.5085
11401TIP3    H255619   1.895   0.103  17.114  1.2273  0.4212  0.8469
11402TIP3   OH255620   1.222   5.508  11.962  0.0048 -0.3860  0.2947
11402TIP3    H155621   1.258   5.421  11.942 -0.8585 -0.7456  0.2714
11402TIP3    H255622   1.190   5.540  11.878  1.6595  0.6038  0.0132
11403TIP3   OH255623   4.232   5.651  14.753  0.0037  0.2812  0.1789
11403TIP3    H155624   4.307   5.683  14.703  0.1853 -0.3497  0.0398
11403TIP3    H255625   4.156   5.669  14.697  0.0757  0.6969  0.2137
11404TIP3   OH255626   2.682   5.268  12.126  0.1208  0.2996  0.2164
11404TIP3    H155627   2.688   5.175  12.103  0.2217 -0.0916  1.7826
11404TIP3    H255628   2.606   5.274  12.183  0.7969  0.9742  1.0627
11405TIP3   OH255629   5.379   1.461  15.890  0.2764  0.2732  0.0045
11405TIP3    H155630   5.434   1.451  15.968  0.3192  0.2713 -0.0260
11405TIP3    H255631   5.358   1.372  15.864 -1.1592  0.3119  1.0214
11406TIP3   OH255632   4.902   2.156  13.641 -0.5667 -0.5965  0.0188
11406TIP3    H155633   4.867   2.215  13.708  0.8355  1.4430 -0.9954
11406TIP3    H255634   4.850   2.176  13.563  0.6095  0.0859 -0.6058
11407TIP3   OH255635   5.940   4.962  16.319  0.5006  0.1533 -0.6293
11407TIP3    H155636   5.939   5.027  16.249  2.4044  0.5756 -0.3191
11407TIP3    H255637   5.912   4.881  16.277 -0.3710  0.8456 -1.3963
11408TIP3   OH255638   6.185   5.344  11.286  0.6398 -0.3084 -0.3388
11408TIP3    H155639   6.135   5.412  11.241  0.3842  0.1936  0.6762
11408TIP3    H255640   6.158   5.262  11.245 -1.7777 -0.1471  0.8201
11409TIP3   OH255641   3.037   0.384   1.184  0.2034  0.0184  0.3158
11409TIP3    H155642   2.964   0.365   1.125  0.4736  0.4035 -0.1464
11409TIP3    H255643   3.099   0.313   1.168  1.0511  1.0487 -1.1469
11410TIP3   OH255644   3.701   6.143   4.651 -0.5589 -0.3791 -0.2355
11410TIP3    H155645   3.731   6.210   4.713 -0.7378  1.0866 -1.6830
11410TIP3    H255646   3.608   6.134   4.668 -0.7057  0.3802 -0.5898
11411TIP3   OH255647   0.192   1.365  13.405 -0.1411 -0.1367  0.1434
11411TIP3    H155648   0.122   1.317  13.449 -0.9199  0.0594 -0.8448
11411TIP3    H255649   0.170   1.358  13.312  0.1899  1.4338 -0.0636
11412TIP3   OH255650   3.999   3.300  11.895 -0.2205 -0.3986  0.5428
11412TIP3    H155651   3.908   3.329  11.888  0.1770  0.3624 -2.1404
11412TIP3    H255652   3.999   3.211  11.860 -0.0421 -0.6004  1.0597
11413TIP3   OH255653   3.248   2.351   5.862  0.0673 -0.3758  0.3278
11413TIP3    H155654   3.300   2.275   5.838 -0.4210 -1.3068  2.1788
11413TIP3    H255655   3.308   2.407   5.911  0.3249  0.2980 -0.7241
11414TIP3   OH255656   5.511   2.742  16.290  0.2386 -0.0012  0.3353
11414TIP3    H155657   5.419   2.762  16.274  0.3905  0.1405 -0.3770
11414TIP3    H255658   5.558   2.786  16.219  1.0424  1.6400  1.8520
11415TIP3   OH255659   4.142   3.439  15.492 -0.3663  0.3660  0.4179
11415TIP3    H155660   4.148   3.375  15.564 -0.4312 -1.1213 -0.8693
11415TIP3    H255661   4.161   3.523  15.533 -1.5201 -0.3109  2.4041
11416TIP3   OH255662   1.112   4.618  12.602 -0.3573  0.9580 -0.5438
11416TIP3    H155663   1.162   4.549  12.644 -0.6537  1.2243  0.2521
11416TIP3    H255664   1.171   4.694  12.602 -0.8939  1.3938  0.7772
11417TIP3   OH255665   3.853   1.951  12.708  1.1219  0.2131  0.0547
11417TIP3    H155666   3.931   1.971  12.657 -0.6983  1.2963 -2.3585
11417TIP3    H255667   3.839   1.857  12.694  2.2771 -0.1197  0.9799
11418TIP3   OH255668   0.593   1.809  16.208  0.1209 -0.7119  0.4294
11418TIP3    H155669   0.540   1.880  16.242  1.3367  0.0259  0.8234
11418TIP3    H255670   0.531   1.737  16.194 -1.0722  0.3452  0.2362
11419TIP3   OH255671   0.188   5.278   0.908 -0.2450  0.4571 -0.7344
11419TIP3    H155672   0.178   5.301   0.816 -0.6780 -0.1980 -0.8571
11419TIP3    H255673   0.232   5.193   0.906  1.7032  1.4186 -0.2833
11420TIP3   OH255674   2.089   2.716  16.265  0.1630  0.2728 -0.2391
11420TIP3    H155675   2.137   2.650  16.314 -0.3207 -0.8005 -1.1839
11420TIP3    H255676   2.103   2.693  16.173 -2.2820 -0.1679 -0.5334
11421TIP3   OH255677   0.122   1.984   5.166  0.1857 -0.5115  0.0545
11421TIP3    H155678   0.170   1.945   5.093  0.0211 -0.6572  0.0252
11421TIP3    H255679   0.133   2.078   5.154 -0.9459 -0.4986 -0.8939
11422TIP3   OH255680   0.147   3.204   1.670  0.4499 -0.5398 -0.7006
11422TIP3    H155681   0.214   3.145   1.705 -0.0244 -0.9895 -0.5514
11422TIP3    H255682   0.192   3.288   1.662  1.3566 -1.0873 -1.6473
11423TIP3   OH255683   2.548   5.150   5.708 -0.3571  0.0351  0.1175
11423TIP3    H155684   2.633   5.114   5.733 -0.4341 -0.5955 -0.5313
11423TIP3    H255685   2.511   5.184   5.790  0.3398 -0.0605  0.4690
11424TIP3   OH255686   2.457   6.292   4.408  0.0682 -0.3757 -0.0886
11424TIP3    H155687   2.423   6.324   4.325 -1.9232 -2.0716  0.0343
11424TIP3    H255688   2.483   6.371   4.456 -2.2773  0.8787 -0.8243
11425TIP3   OH255689   0.224   6.222   4.874  0.4112 -0.0354  0.0418
11425TIP3    H155690   0.176   6.304   4.879 -0.2021 -0.3162 -1.2118
11425TIP3    H255691   0.163   6.156   4.907 -0.4358 -0.5336 -2.4099
11426TIP3   OH255692   0.175   5.587   5.472 -0.0637 -0.1197  0.4107
11426TIP3    H155693   0.186   5.681   5.487  1.8542 -0.2991  0.3049
11426TIP3    H255694   0.265   5.554   5.463 -0.8281 -1.2917 -3.6576
11427TIP3   OH255695   3.525   3.639  13.401  0.1704 -0.3212  0.0547
11427TIP3    H155696   3.465   3.612  13.332  0.5306 -1.1029  0.0372
11427TIP3    H255697   3.612   3.638  13.360  0.2416  0.3697  0.1963
11428TIP3   OH255698   6.122   5.592  14.410 -0.1751 -0.0933 -0.3116
11428TIP3    H155699   6.215   5.574  14.401 -0.4893 -1.9075 -0.0164
11428TIP3    H255700   6.095   5.625  14.325  0.7941  0.7391 -0.3047
11429TIP3   OH255701   4.027   5.978  15.614 -0.0209  0.2853  0.5237
11429TIP3    H155702   4.063   5.924  15.544 -0.9941  1.5679 -1.0017
11429TIP3    H255703   3.999   5.915  15.681 -1.1229 -1.1151 -1.2043
11430TIP3   OH255704   6.062   6.580   2.848 -0.6303  0.3795 -0.2728
11430TIP3    H155705   6.024   6.495   2.868  0.5142  0.2168  1.3194
11430TIP3    H255706   6.133   6.560   2.787 -0.5698  0.2216 -0.1528
11431TIP3   OH255707   1.324   1.803   3.457  0.1756  0.7088  0.2186
11431TIP3    H155708   1.274   1.868   3.409  1.7077  1.3826 -0.4819
11431TIP3    H255709   1.320   1.831   3.548 -0.2439  1.0757  0.0842
11432TIP3   OH255710   5.446   6.467  13.333  0.2628 -0.0099 -0.0841
11432TIP3    H155711   5.355   6.458  13.302 -0.2762  0.6157  1.2711
11432TIP3    H255712   5.464   6.384  13.377  0.6811 -0.5024 -1.1694
11433TIP3   OH255713   2.488   0.512  14.622  0.0624 -0.3649 -0.4182
11433TIP3    H155714   2.451   0.434  14.580 -2.8644  1.5774 -1.5935
11433TIP3    H255715   2.458   0.508  14.713 -1.4056  0.1443 -0.8618
11434TIP3   OH255716   2.501   0.603   6.297  0.4545 -0.1706 -0.2146
11434TIP3    H155717   2.468   0.597   6.387 -1.4327 -0.3541 -0.8985
11434TIP3    H255718   2.470   0.523   6.255  0.5191  0.3632 -1.2805
11435TIP3   OH255719   2.178   3.439  17.017 -0.4755 -0.0718 -0.1547
11435TIP3    H155720   2.202   3.485  17.098  0.9310 -2.7128  1.0229
11435TIP3    H255721   2.085   3.418  17.029 -0.3532 -0.1857  0.6848
11436TIP3   OH255722   6.111   2.130  14.345 -0.0835  0.0641  0.4483
11436TIP3    H155723   6.147   2.104  14.430 -1.3040 -0.4352  0.8355
11436TIP3    H255724   6.076   2.218  14.360 -1.2724 -0.4556  0.7698
11437TIP3   OH255725   2.123   6.429  15.357  0.0013 -0.4380  0.1853
11437TIP3    H155726   2.082   6.506  15.398 -0.2293  0.6712 -2.0469
11437TIP3    H255727   2.053   6.364  15.353 -0.2690 -0.1718  0.5404
11438TIP3   OH255728   2.353   0.680  11.550 -0.0670 -0.1409  0.4278
11438TIP3    H155729   2.321   0.648  11.634  1.0894  1.7665  1.6391
11438TIP3    H255730   2.321   0.771  11.545  2.4798  0.7900  0.2509
11439TIP3   OH255731   5.794   6.120   1.307 -0.8624 -0.3735 -0.5671
11439TIP3    H155732   5.766   6.050   1.366 -1.3811  1.7548  1.8067
11439TIP3    H255733   5.719   6.179   1.302 -0.5957 -0.1832 -2.8818
11440TIP3   OH255734   2.214   0.469  10.982  0.0765 -0.3352  0.8663
11440TIP3    H155735   2.284   0.471  10.916 -0.4482 -1.3864  0.2642
11440TIP3    H255736   2.246   0.527  11.052  0.1036  1.8194 -0.8454
11441TIP3   OH255737   5.007   0.063   4.407  0.7887 -0.1238 -0.1037
11441TIP3    H155738   5.034  -0.028   4.395 -1.6149 -0.7574 -1.0248
11441TIP3    H255739   4.975   0.091   4.321  0.8248  1.3698  0.3449
11442TIP3   OH255740   5.288   1.947   2.249  0.0638  0.2530  0.3523
11442TIP3    H155741   5.356   1.957   2.316  0.6076 -0.3662 -0.0963
11442TIP3    H255742   5.331   1.897   2.179 -1.3851 -1.7130  0.8322
11443TIP3   OH255743   2.948   1.753   4.307 -0.2435 -0.2882 -0.3906
11443TIP3    H155744   2.920   1.687   4.243  0.4505 -0.6929 -0.2798
11443TIP3    H255745   2.870   1.769   4.360 -0.3655 -1.1712 -0.2885
11444TIP3   OH255746   5.662   3.694   1.135  0.1723 -0.0901  0.3532
11444TIP3    H155747   5.570   3.680   1.156 -0.4354  1.7911 -0.8492
11444TIP3    H255748   5.676   3.644   1.055  0.0673 -0.0630  0.3176
11445TIP3   OH255749   4.014   5.576  12.863 -0.2734 -0.1562 -0.5774
11445TIP3    H155750   3.955   5.506  12.833 -0.1148 -1.1109  1.2407
11445TIP3    H255751   3.956   5.648  12.886 -0.7574 -1.0568  1.1058
11446TIP3   OH255752   2.302   6.292  16.389 -0.2107 -0.1966 -0.0900
11446TIP3    H155753   2.228   6.284  16.450  0.4644  0.2930  0.7990
11446TIP3    H255754   2.305   6.385  16.367 -0.3619 -0.3473 -0.7707
11447TIP3   OH255755   6.126   1.396  12.902  0.7581 -0.2065 -0.0195
11447TIP3    H155756   6.092   1.317  12.860  2.4303 -1.0756  0.2229
11447TIP3    H255757   6.177   1.440  12.834 -0.8989  1.1731 -0.4243
11448TIP3   OH255758   4.858   2.357  16.473 -0.0386 -0.3272  0.3605
11448TIP3    H155759   4.944   2.334  16.509 -0.8373 -1.0730  1.8639
11448TIP3    H255760   4.832   2.434  16.523  1.4135  2.3088 -2.7670
11449TIP3   OH255761   4.538   0.189  13.446  0.3978  0.2444  0.5521
11449TIP3    H155762   4.554   0.114  13.505 -0.2660  0.8034  1.4627
11449TIP3    H255763   4.488   0.251  13.500 -0.5015  0.6259 -0.7076
11450TIP3   OH255764   5.072   1.027  16.574  0.5974  0.4626  0.4382
11450TIP3    H155765   5.160   1.046  16.605 -0.1170  0.6996  2.3728
11450TIP3    H255766   5.032   1.112  16.560  0.0477  0.3715  1.4141
11451TIP3   OH255767   5.070   3.606   1.124 -0.2743 -0.3443  0.4504
11451TIP3    H155768   5.105   3.518   1.109 -0.4385 -0.4024  0.4061
11451TIP3    H255769   4.975   3.595   1.119 -0.3716 -0.4875  2.2235
11452TIP3   OH255770   6.519   6.321   2.896  0.0781 -0.0168 -0.0224
11452TIP3    H155771   6.522   6.229   2.925  0.4343 -0.2199 -0.7057
11452TIP3    H255772   6.586   6.364   2.949 -0.8201  0.0708  1.0647
11453TIP3   OH255773   5.066   0.551   0.833 -0.2057 -0.4579 -0.1004
11453TIP3    H155774   5.134   0.529   0.769 -2.2296 -1.2897 -1.9986
11453TIP3    H255775   5.053   0.470   0.882 -0.8322 -0.7146 -0.6872
11454TIP3   OH255776   1.021   2.034   1.936  0.2749 -0.3083 -0.0836
11454TIP3    H155777   1.043   1.977   2.009 -1.2369 -1.9200 -0.8267
11454TIP3    H255778   0.928   2.017   1.920  0.1394  1.3489 -1.2307
11455TIP3   OH255779   0.359   4.520  16.076 -0.1969 -0.0119 -0.0455
11455TIP3    H155780   0.279   4.558  16.111 -0.7195 -0.0824 -1.1564
11455TIP3    H255781   0.429   4.579  16.106 -0.7532  0.5123  0.2155
11456TIP3   OH255782   2.338   1.561  14.760  0.0412 -0.1874 -0.8782
11456TIP3    H155783   2.398   1.503  14.713  0.2332  0.0335 -0.9088
11456TIP3    H255784   2.319   1.631  14.697  0.1432  0.0049 -0.6996
11457TIP3   OH255785   3.534   3.732  15.247 -0.4881 -0.0491 -0.0331
11457TIP3    H155786   3.570   3.814  15.213 -0.6258  0.1711  0.3363
11457TIP3    H255787   3.554   3.667  15.180  0.8528  0.0035  0.3039
11458TIP3   OH255788   2.598   3.714  16.094 -0.0035 -0.1805 -0.1500
11458TIP3    H155789   2.563   3.780  16.034  0.9986  0.3129 -0.1993
11458TIP3    H255790   2.566   3.630  16.058 -0.6529  0.2186 -0.5131
11459TIP3   OH255791   0.234   2.417  15.758  0.0301 -0.1095  0.5295
11459TIP3    H155792   0.176   2.384  15.827  1.3747 -1.0759  1.2120
11459TIP3    H255793   0.322   2.401  15.791  0.6976 -0.5284 -1.3917
11460TIP3   OH255794   2.389   0.500  14.918 -0.2202  0.2422  0.3459
11460TIP3    H155795   2.410   0.440  14.990  1.1632  1.1269  0.6993
11460TIP3    H255796   2.371   0.584  14.961  2.8450  1.3655 -0.4367
11461TIP3   OH255797   3.886   2.258  17.211  0.3284  0.2929 -0.6566
11461TIP3    H155798   3.959   2.303  17.168 -1.1235  1.7970 -1.6332
11461TIP3    H255799   3.839   2.328  17.257  0.2918 -0.8757  1.0981
11462TIP3   OH255800   5.917   4.681   4.446 -0.2346  0.1293 -0.0188
11462TIP3    H155801   5.916   4.607   4.507  0.5605 -0.5481 -0.8136
11462TIP3    H255802   5.826   4.689   4.417 -0.0607 -1.5428 -1.1007
11463TIP3   OH255803   2.855   2.796   2.937  0.9458  0.1946 -0.7867
11463TIP3    H155804   2.816   2.877   2.905 -0.8197 -0.6703 -0.9111
11463TIP3    H255805   2.825   2.788   3.028  2.6718  0.6260 -0.1579
11464TIP3   OH255806   3.695   5.809   3.819 -0.3300 -0.4861 -0.3531
11464TIP3    H155807   3.757   5.843   3.884 -0.0400 -3.1353  0.8165
11464TIP3    H255808   3.609   5.831   3.855 -0.1402 -0.5305  0.1360
11465TIP3   OH255809   3.770   6.505   5.345  0.4893  0.4476 -0.2422
11465TIP3    H155810   3.802   6.593   5.325  1.6639  0.1016  0.1120
11465TIP3    H255811   3.849   6.452   5.357 -0.1996 -0.1359  1.9286
11466TIP3   OH255812   0.692   2.153   5.978  0.4281  0.0926 -0.3516
11466TIP3    H155813   0.613   2.149   6.032  1.1267 -0.5393  0.6341
11466TIP3    H255814   0.722   2.244   5.986 -1.1122  0.7783 -2.0709
11467TIP3   OH255815   1.459   5.613  16.325 -0.0166  0.2477 -0.0734
11467TIP3    H155816   1.400   5.689  16.320 -1.9529 -1.2040 -0.0023
11467TIP3    H255817   1.439   5.563  16.246 -0.6658 -1.5178  1.1938
11468TIP3   OH255818   4.141   4.705  14.002  0.4802  0.7424 -0.5495
11468TIP3    H155819   4.146   4.613  13.976  2.5401  1.0210 -1.1898
11468TIP3    H255820   4.076   4.743  13.943 -0.0062 -0.1722 -0.6185
11469TIP3   OH255821   4.455   2.807   0.735  0.2482  0.0928 -0.1677
11469TIP3    H155822   4.538   2.852   0.750  0.8365 -0.8864 -0.4652
11469TIP3    H255823   4.444   2.808   0.640  0.2256 -0.3230 -0.1710
11470TIP3   OH255824   5.359   2.122   0.777 -0.1917  0.1137 -0.1586
11470TIP3    H155825   5.357   2.027   0.790 -1.9966  0.1589 -0.1009
11470TIP3    H255826   5.357   2.159   0.865 -0.4156  0.2353 -0.2169
11471TIP3   OH255827   1.326   2.806  12.493  0.4667  0.1660 -0.3088
11471TIP3    H155828   1.250   2.863  12.504  1.3541  1.5248 -0.9272
11471TIP3    H255829   1.395   2.850  12.543  0.5967 -1.5845  1.0896
11472TIP3   OH255830   6.592   5.015  15.665 -0.0133  0.0064  0.6227
11472TIP3    H155831   6.524   4.989  15.726 -1.0862  0.6607 -0.2884
11472TIP3    H255832   6.623   5.100  15.698 -0.1144  0.0315  0.6523
11473TIP3   OH255833   0.383   6.033   3.972  0.0853 -0.2554  0.1557
11473TIP3    H155834   0.302   5.997   4.008  0.9815 -2.7342 -0.2149
11473TIP3    H255835   0.452   5.997   4.027  1.0898  0.1543 -0.8159
11474TIP3   OH255836   1.324   0.458  12.019  0.6358  0.7453 -1.0396
11474TIP3    H155837   1.291   0.388  11.962  0.9147  1.3552 -1.9638
11474TIP3    H255838   1.245   0.502  12.052  0.4564 -0.0902 -0.3373
11475TIP3   OH255839   6.352   4.520  11.801 -0.2318  0.5250  0.4456
11475TIP3    H155840   6.276   4.466  11.825  0.1621 -0.3762 -0.2678
11475TIP3    H255841   6.338   4.541  11.709  0.8647 -0.5061  0.0162
11476TIP3   OH255842   0.210   3.721   1.885 -0.4394  0.0408  0.0517
11476TIP3    H155843   0.134   3.710   1.943 -0.4379  0.7149  0.1808
11476TIP3    H255844   0.237   3.812   1.897 -0.3105  0.1263 -0.8480
11477TIP3   OH255845   1.720   4.134  11.443 -0.2250  0.4351  0.1990
11477TIP3    H155846   1.694   4.184  11.366  1.0496 -0.2264 -0.6753
11477TIP3    H255847   1.755   4.052  11.408  0.1160  0.0173  1.4924
11478TIP3   OH255848   0.543   2.089  16.005 -0.5925  0.2374 -0.0496
11478TIP3    H155849   0.451   2.070  16.023  0.2398 -0.9263  3.4218
11478TIP3    H255850   0.589   2.007  16.026  1.2904  0.9085 -1.4171
11479TIP3   OH255851   3.706   4.471   1.091  0.4411  0.4563  0.1510
11479TIP3    H155852   3.741   4.432   1.171  0.3589  1.9572  0.9362
11479TIP3    H255853   3.627   4.517   1.120  0.7216  1.4806 -0.6860
11480TIP3   OH255854   0.182   6.621  16.541 -0.5820  0.4256 -0.5956
11480TIP3    H155855   0.188   6.717  16.542 -0.5790  0.4940 -3.2074
11480TIP3    H255856   0.227   6.595  16.460 -0.8312 -1.7739 -0.0701
11481TIP3   OH255857   0.323   5.190   5.756  0.3825 -0.5276 -0.0519
11481TIP3    H155858   0.326   5.102   5.793  1.6876  0.1676  1.5643
11481TIP3    H255859   0.413   5.209   5.730  0.5879  1.2026  1.7831
11482TIP3   OH255860   5.356   3.129   5.275 -0.0682  0.3243  0.3836
11482TIP3    H155861   5.397   3.118   5.361  3.0688  2.3705 -0.7573
11482TIP3    H255862   5.403   3.066   5.219 -1.4132 -0.3032 -0.0449
11483TIP3   OH255863   4.095   0.730   0.505 -0.0015 -0.1582  0.3932
11483TIP3    H155864   4.140   0.694   0.581  0.7647  1.0464  0.5228
11483TIP3    H255865   4.158   0.721   0.434 -0.6552 -1.1328 -0.0710
11484TIP3   OH255866   2.535   0.820   2.830 -0.1760  0.0991  0.4903
11484TIP3    H155867   2.441   0.840   2.828  0.0518  1.4849  2.0198
11484TIP3    H255868   2.577   0.906   2.841  1.0895 -0.8096  3.1048
11485TIP3   OH255869   4.134   1.052   6.161  0.1836 -0.7001 -0.2018
11485TIP3    H155870   4.178   1.117   6.107 -3.6365  1.1030 -1.2944
11485TIP3    H255871   4.142   0.970   6.112 -0.5551  0.2900 -1.9889
11486TIP3   OH255872   2.787   3.449   0.176  0.4072 -0.5158 -0.9438
11486TIP3    H155873   2.787   3.458   0.081 -0.1479 -1.1470 -1.0039
11486TIP3    H255874   2.700   3.417   0.198  0.6459 -0.7092 -0.2551
11487TIP3   OH255875   4.816   0.909   5.230  0.2426  0.1556  0.3879
11487TIP3    H155876   4.739   0.911   5.287 -0.3172 -0.4936 -0.3475
11487TIP3    H255877   4.865   0.988   5.254 -1.6106  1.6046 -0.4812
11488TIP3   OH255878   1.979   1.212  12.260 -0.4346 -0.3288  0.3214
11488TIP3    H155879   2.013   1.270  12.329 -1.3234 -0.2865  0.7375
11488TIP3    H255880   1.884   1.212  12.274 -0.3018 -4.0661  2.1192
11489TIP3   OH255881   4.482   4.621  15.038  0.4933 -0.2449  0.0351
11489TIP3    H155882   4.410   4.655  14.985  0.0128 -0.3651  0.5935
11489TIP3    H255883   4.470   4.526  15.035 -1.6811 -0.1841  3.2028
11490TIP3   OH255884   4.488   1.046  12.987 -0.2327  0.5743 -0.0788
11490TIP3    H155885   4.556   1.108  12.960  0.5503  0.2662  1.1657
11490TIP3    H255886   4.438   1.030  12.907  0.8354  1.1972 -0.8936
11491TIP3   OH255887   0.248   5.317   6.302 -0.2081 -0.4466 -0.6278
11491TIP3    H155888   0.239   5.243   6.361  0.2162 -0.2708 -0.3369
11491TIP3    H255889   0.177   5.376   6.325 -0.2932 -0.5713 -0.5745
11492TIP3   OH255890   4.727   2.614  13.493 -0.6577 -0.5519 -0.4118
11492TIP3    H155891   4.768   2.625  13.579  0.8043  1.4113 -1.3167
11492TIP3    H255892   4.649   2.562  13.510 -0.3878 -0.1854  2.1079
11493TIP3   OH255893   4.754   5.892  10.814  0.0695 -0.0379  0.2043
11493TIP3    H155894   4.676   5.934  10.851  0.6310  3.2777 -2.0663
11493TIP3    H255895   4.719   5.830  10.750 -0.7300 -0.5223  1.0911
11494TIP3   OH255896   6.696   1.952  11.806  0.1567 -0.0846  0.2948
11494TIP3    H155897   6.623   2.011  11.828  0.2158 -0.1002  0.5355
11494TIP3    H255898   6.759   1.964  11.878  0.8079  0.6156 -0.3835
11495TIP3   OH255899   3.220   4.193   5.071  0.0351  0.2327  0.1152
11495TIP3    H155900   3.248   4.117   5.019 -0.4949  0.5048 -0.5879
11495TIP3    H255901   3.197   4.258   5.005 -0.0640  0.8034  0.7160
11496TIP3   OH255902   1.317   1.220   4.503  0.3363  0.2129  0.4461
11496TIP3    H155903   1.232   1.205   4.463  0.5220 -0.5985  0.3441
11496TIP3    H255904   1.373   1.151   4.468  0.3709 -0.8385  2.5116
11497TIP3   OH255905   5.706   2.650   2.123  0.2068  0.3431  0.0616
11497TIP3    H155906   5.655   2.697   2.189  1.6685 -0.5852  1.8820
11497TIP3    H255907   5.795   2.645   2.159  0.8387 -0.9435 -1.5722
11498TIP3   OH255908   2.577   5.374  11.749 -0.0893  0.6610 -0.5562
11498TIP3    H155909   2.555   5.439  11.816 -1.4417  0.6135 -0.9411
11498TIP3    H255910   2.664   5.400  11.717 -0.4722  2.0631 -0.4669
11499TIP3   OH255911   1.932   4.046  16.858 -0.2577 -0.3103  0.2578
11499TIP3    H155912   1.878   4.006  16.790 -1.5804  0.4650  0.8298
11499TIP3    H255913   1.948   3.975  16.921 -1.4594 -0.2897  0.5904
11500TIP3   OH255914   6.014   0.681  16.965  0.5084  0.1678 -0.2429
11500TIP3    H155915   6.049   0.602  16.925  0.1643 -0.1275  0.0433
11500TIP3    H255916   5.939   0.652  17.016  1.2039  0.4699  0.9773
11501TIP3   OH255917   5.698   6.578  13.944  0.0867 -0.0023 -0.2814
11501TIP3    H155918   5.764   6.520  13.905 -1.0231 -1.0015 -0.7015
11501TIP3    H255919   5.670   6.634  13.871 -0.9859 -0.9458 -0.6160
11502TIP3   OH255920   5.376   0.825  10.671  0.3888 -0.4959 -0.8888
11502TIP3    H155921   5.454   0.786  10.710 -0.0401 -1.7165 -1.2340
11502TIP3    H255922   5.303   0.787  10.721  0.0283  0.9855 -0.2601
11503TIP3   OH255923   1.422   4.717  12.922 -0.6400  0.4337 -0.5380
11503TIP3    H155924   1.327   4.713  12.911 -0.7878  2.7499 -0.3132
11503TIP3    H255925   1.437   4.691  13.013 -1.5531  4.9176  1.0295
11504TIP3   OH255926   3.723   2.410  10.258 -0.1753 -0.6784  0.4328
11504TIP3    H155927   3.784   2.466  10.306 -0.2314  0.4216 -0.7421
11504TIP3    H255928   3.771   2.328  10.246  0.3635 -0.4786  1.1537
11505TIP3   OH255929   2.305   5.385  14.892 -0.0534  0.3006  0.1558
11505TIP3    H155930   2.399   5.388  14.908  0.0225 -0.0051 -0.2131
11505TIP3    H255931   2.271   5.463  14.935  0.3822  0.4655  0.2079
11506TIP3   OH255932   1.205   2.588  12.975 -0.3939 -0.1036  0.2862
11506TIP3    H155933   1.171   2.519  13.031 -0.1649 -0.8262 -0.4679
11506TIP3    H255934   1.156   2.579  12.894 -0.4940  0.7356  0.2497
11507TIP3   OH255935   4.607   4.686  12.971  0.4710 -0.1984  0.2579
11507TIP3    H155936   4.638   4.699  12.882  0.2622  1.4497  0.4149
11507TIP3    H255937   4.524   4.732  12.975 -1.3903 -3.3810  0.2560
11508TIP3   OH255938   5.553   3.568   0.440 -0.1480 -0.0280 -0.6677
11508TIP3    H155939   5.526   3.659   0.454 -0.5049 -0.1030 -0.8525
11508TIP3    H255940   5.510   3.543   0.358 -1.7362 -1.0226  0.4375
11509TIP3   OH255941   4.887   4.696   6.459  0.4953  0.4132 -0.2530
11509TIP3    H155942   4.831   4.618   6.460  0.8770  0.1305  1.3080
11509TIP3    H255943   4.975   4.661   6.443  0.4539  0.6908 -1.1070
11510TIP3   OH255944   2.054   2.620  13.709 -0.0708 -0.0095 -0.3135
11510TIP3    H155945   2.060   2.630  13.614  0.2271 -0.9560 -0.4046
11510TIP3    H255946   1.962   2.634  13.729  0.2173  2.2244 -0.4842
11511TIP3   OH255947   4.182   5.536  15.386  0.4315 -0.0891  0.1371
11511TIP3    H155948   4.212   5.493  15.466 -1.2044 -0.8519  0.3741
11511TIP3    H255949   4.218   5.624  15.390  1.9720 -0.7290  0.7559
11512TIP3   OH255950   6.759   2.976   5.057  0.5324  1.1692  0.6322
11512TIP3    H155951   6.770   3.053   5.002  2.0174  0.5112 -0.0337
11512TIP3    H255952   6.849   2.946   5.074 -0.0178 -0.2911  1.0365
11513TIP3   OH255953   6.349   6.684   0.908 -0.1457  0.1011 -0.2195
11513TIP3    H155954   6.334   6.662   0.816  1.3426 -0.7977 -0.2741
11513TIP3    H255955   6.444   6.679   0.918 -0.2906  0.2773  1.3527
11514TIP3   OH255956   5.478   4.290  13.051  0.5370 -0.6078  0.0695
11514TIP3    H155957   5.554   4.297  12.993  2.0777  0.7746  2.1882
11514TIP3    H255958   5.515   4.266  13.136 -1.5418 -1.1458  0.8474
11515TIP3   OH255959   2.792   2.346   4.636 -0.1188 -0.0329 -0.5695
11515TIP3    H155960   2.856   2.280   4.662 -0.8437 -0.0756  1.1782
11515TIP3    H255961   2.752   2.312   4.556  0.2992 -1.1703 -0.2953
11516TIP3   OH255962   3.267   0.216   0.487 -0.4784  0.8623  0.5000
11516TIP3    H155963   3.182   0.178   0.508 -0.1778 -0.4960 -0.6968
11516TIP3    H255964   3.297   0.168   0.410  0.0854  3.2618 -0.8291
11517TIP3   OH255965   1.501   4.088   0.773 -0.2160 -0.7575  0.6093
11517TIP3    H155966   1.590   4.058   0.794 -0.1871 -0.6412  0.6541
11517TIP3    H255967   1.501   4.098   0.678 -0.5364 -1.8846  0.4816
11518TIP3   OH255968   3.883   0.768  15.323  0.2729  0.3027 -0.0648
11518TIP3    H155969   3.909   0.718  15.246  1.6220  1.4609 -0.3784
11518TIP3    H255970   3.960   0.820  15.346 -1.0975  2.3060  0.1900
11519TIP3   OH255971   0.491   5.915  10.940  0.6593  0.3602 -0.1336
11519TIP3    H155972   0.499   5.853  11.012 -0.5778 -0.1473 -0.4033
11519TIP3    H255973   0.461   5.996  10.981  1.0441  0.4054  0.0617
11520TIP3   OH255974   1.028   5.473   1.945  0.4340 -0.2062  0.2731
11520TIP3    H155975   1.017   5.502   1.855  1.7390 -1.3682 -0.2817
11520TIP3    H255976   0.939   5.468   1.980 -0.0740  0.2400 -0.9476
11521TIP3   OH255977   5.264   4.644   2.256 -0.1399  0.1263  0.3469
11521TIP3    H155978   5.187   4.699   2.263 -0.4270 -0.2689  0.3211
11521TIP3    H255979   5.310   4.677   2.179  0.0450  0.7656  0.7262
11522TIP3   OH255980   5.447   3.578  17.155 -0.1678  0.3953  0.3505
11522TIP3    H155981   5.535   3.540  17.149  0.8749  2.7444  0.4199
11522TIP3    H255982   5.462   3.672  17.157 -2.7002  0.8096  0.4929
11523TIP3   OH255983   5.921   4.018   1.755  0.5408 -0.0585 -0.0069
11523TIP3    H155984   5.921   4.090   1.693 -0.6146  0.1328  0.2053
11523TIP3    H255985   5.947   3.941   1.703 -1.2620 -0.0639 -0.9236
11524TIP3   OH255986   0.191   4.625  14.255 -0.2439  0.3487  0.2628
11524TIP3    H155987   0.196   4.721  14.255 -0.9139  0.3851 -0.7075
11524TIP3    H255988   0.168   4.602  14.165  1.7065 -0.8237  0.0330
11525TIP3   OH255989   0.339   1.134  15.270 -0.1764 -0.0102  0.0691
11525TIP3    H155990   0.329   1.166  15.359  1.6707  2.4576 -0.5248
11525TIP3    H255991   0.251   1.137  15.233 -0.7736 -0.0198  1.4687
11526TIP3   OH255992   5.550   1.699  12.900  0.1097 -0.4505  0.1647
11526TIP3    H155993   5.625   1.642  12.915 -1.6023 -2.8887 -0.1802
11526TIP3    H255994   5.526   1.730  12.988  1.0660 -0.2701  0.3620
11527TIP3   OH255995   1.221   3.589   4.634 -0.3728  0.0452  0.0752
11527TIP3    H155996   1.218   3.615   4.726  0.0196  0.9016 -0.1422
11527TIP3    H255997   1.224   3.672   4.586 -1.5950 -0.3652 -0.7541
11528TIP3   OH255998   3.742   0.789   5.081  0.5687  0.0752 -0.0512
11528TIP3    H155999   3.688   0.750   5.012 -0.7130  1.2710  0.2514
11528TIP3    H256000   3.741   0.883   5.062 -0.0671  0.4587  1.7826
11529TIP3   OH256001   1.551   3.402  15.012 -0.0795  0.3767  0.2827
11529TIP3    H156002   1.644   3.393  14.992 -0.4242  0.1809 -1.3065
11529TIP3    H256003   1.520   3.472  14.954 -1.0113  0.1171  0.4569
11530TIP3   OH256004   5.197   4.923  12.187 -0.0194  0.1386 -0.0286
11530TIP3    H156005   5.250   4.986  12.236 -0.1700 -0.5911  1.1212
11530TIP3    H256006   5.107   4.943  12.212 -0.0062 -1.1191  1.0922
11531TIP3   OH256007   3.213   0.337   0.742  0.1365  0.0835  0.2524
11531TIP3    H156008   3.269   0.301   0.673 -0.5072  0.4039 -0.4272
11531TIP3    H256009   3.127   0.300   0.725  0.0126  0.0196  0.9936
11532TIP3   OH256010   0.359   5.534  10.942 -0.2121 -0.2924 -0.5592
11532TIP3    H156011   0.419   5.460  10.932  2.1027  1.6592 -1.8682
11532TIP3    H256012   0.316   5.541  10.857  1.8590  1.6886 -1.5042
11533TIP3   OH256013   0.660   5.912  13.971  0.2741  1.0120 -0.3708
11533TIP3    H156014   0.579   5.869  13.996  1.0567 -0.5318 -0.4479
11533TIP3    H256015   0.651   5.928  13.877  0.0439  0.9105 -0.3671
11534TIP3   OH256016   6.007   4.927   0.272 -0.2750  0.0018 -0.1131
11534TIP3    H156017   6.031   4.857   0.332 -3.0853  0.4063  1.5780
11534TIP3    H256018   5.986   5.001   0.329  2.7469  2.3316 -1.8467
11535TIP3   OH256019   2.528   4.583   1.993  0.0407  0.2196 -0.1409
11535TIP3    H156020   2.476   4.655   1.957  0.8108 -0.1290 -1.9985
11535TIP3    H256021   2.474   4.505   1.977 -0.0888  0.1841  0.4484
11536TIP3   OH256022   3.910   2.504   3.845  0.0053 -0.0467  0.0877
11536TIP3    H156023   3.854   2.436   3.808 -0.1416  0.1788 -0.1081
11536TIP3    H256024   3.849   2.562   3.891  0.1970 -0.3808  0.7692
11537TIP3   OH256025   1.071   3.953   4.134  0.6315  0.9347 -0.3509
11537TIP3    H156026   1.078   4.035   4.086 -1.9918  0.3357 -1.8892
11537TIP3    H256027   1.077   3.885   4.067  2.4051 -0.1261  0.8582
11538TIP3   OH256028   5.261   2.258   3.745  0.1870  0.1302 -0.2642
11538TIP3    H156029   5.351   2.235   3.765  0.0118 -0.6791 -0.4069
11538TIP3    H256030   5.245   2.221   3.659 -0.7080 -0.9012  0.3368
11539TIP3   OH256031   5.921   4.080   4.421 -0.2925 -0.9317 -0.1709
11539TIP3    H156032   5.985   4.131   4.370 -1.3072  1.2708  0.6983
11539TIP3    H256033   5.847   4.140   4.433 -1.4866 -2.6073  0.9494
11540TIP3   OH256034   6.326   3.128   1.246 -0.6659  0.0472 -0.3345
11540TIP3    H156035   6.399   3.070   1.224 -0.8404 -0.8163  1.3336
11540TIP3    H256036   6.343   3.157   1.335 -0.5197  2.6962 -1.2010
11541TIP3   OH256037   3.653   4.331   4.117 -0.1735  0.0498 -0.0222
11541TIP3    H156038   3.730   4.376   4.083 -1.6386  2.0816 -0.7780
11541TIP3    H256039   3.661   4.339   4.212  1.3023 -1.0863 -0.0401
11542TIP3   OH256040   2.960   6.402   3.104 -0.3509 -0.1452  0.1878
11542TIP3    H156041   2.874   6.360   3.092 -0.2523 -0.3030  0.0282
11542TIP3    H256042   2.994   6.365   3.185  0.0070 -0.8492 -0.2709
11543TIP3   OH256043   5.792   5.323   2.003  0.1365  0.0750  0.2593
11543TIP3    H156044   5.707   5.347   2.041  0.0824 -0.2231  0.3360
11543TIP3    H256045   5.813   5.394   1.943 -0.0805  0.2430  0.3799
11544TIP3   OH256046   3.067   3.368  16.617  0.3012 -0.1331  0.2233
11544TIP3    H156047   3.071   3.323  16.701  0.0305 -0.8520 -0.1465
11544TIP3    H256048   2.978   3.402  16.611  0.4524  0.3012  0.4236
11545TIP3   OH256049   4.418   1.832  15.780  0.7579  0.8869  0.0878
11545TIP3    H156050   4.443   1.847  15.689  0.8807  1.3662  0.2011
11545TIP3    H256051   4.482   1.880  15.832  0.7104  0.5876  0.4298
11546TIP3   OH256052   2.324   6.537  11.272 -0.4919 -0.1174  0.7332
11546TIP3    H156053   2.408   6.499  11.297 -0.0858  0.6799  0.5914
11546TIP3    H256054   2.345   6.602  11.204 -1.4771 -1.5862 -1.0303
11547TIP3   OH256055   3.673   1.013  10.290  0.0525 -0.0795  0.6695
11547TIP3    H156056   3.607   1.076  10.318 -0.1148  1.3956 -2.7779
11547TIP3    H256057   3.755   1.047  10.325 -0.2308  1.3862 -0.0543
11548TIP3   OH256058   3.121   1.181   0.475 -0.6356  0.5426  0.2563
11548TIP3    H156059   3.152   1.272   0.474 -0.8279  0.6099  0.4479
11548TIP3    H256060   3.034   1.185   0.435 -0.0503  0.2240 -1.1012
11549TIP3   OH256061   4.517   0.716  17.095 -0.2424 -0.2349 -0.1497
11549TIP3    H156062   4.544   0.750  17.180 -0.8653  0.9380 -0.4062
11549TIP3    H256063   4.479   0.792  17.050 -0.8595 -1.0771 -1.0755
11550TIP3   OH256064   1.182   2.873   3.805 -0.0217  0.1205 -0.2995
11550TIP3    H156065   1.235   2.850   3.729  1.6185  2.7347 -0.0108
11550TIP3    H256066   1.240   2.859   3.880 -0.9799 -0.5828  0.3136
11551TIP3   OH256067   0.410   6.380  11.045 -0.1913  0.1715 -0.0524
11551TIP3    H156068   0.412   6.288  11.017 -1.1474  0.3544 -0.7396
11551TIP3    H256069   0.418   6.376  11.140  1.3234 -0.5470 -0.1861
11552TIP3   OH256070   2.277   2.433  16.730 -0.2770 -0.2208 -0.1541
11552TIP3    H156071   2.360   2.397  16.698 -0.9836 -1.2836 -0.8054
11552TIP3    H256072   2.211   2.370  16.702 -1.4720  1.3063 -0.8540
11553TIP3   OH256073   5.763   1.508  16.352  0.2221  0.7573  0.5149
11553TIP3    H156074   5.790   1.430  16.400  0.8865  0.8285  0.2763
11553TIP3    H256075   5.799   1.581  16.402 -1.9349  1.0092  1.7154
11554TIP3   OH256076   4.113   0.045  15.760  0.7266  0.8895 -0.2717
11554TIP3    H156077   4.083  -0.021  15.697 -2.0238  2.0311 -0.2427
11554TIP3    H256078   4.126   0.124  15.708 -1.8580  1.9220  0.5654
11555TIP3   OH256079   2.367   0.143  17.119 -0.0099  0.5987 -0.7493
11555TIP3    H156080   2.409   0.220  17.080  0.6762  1.0124  0.7744
11555TIP3    H256081   2.308   0.179  17.186 -1.1579 -0.1017 -1.3791
11556TIP3   OH256082   1.576   6.673  14.953 -0.1763 -0.2221  0.0081
11556TIP3    H156083   1.586   6.713  15.039 -1.6355  0.1265  0.0295
11556TIP3    H256084   1.535   6.588  14.971  1.6814 -1.1832 -0.1517
11557TIP3   OH256085   6.666   5.387   1.739  0.2900 -0.2679  0.0652
11557TIP3    H156086   6.631   5.446   1.806  0.3692  0.6766 -0.7279
11557TIP3    H256087   6.628   5.302   1.761 -0.1486  0.1498  0.9733
11558TIP3   OH256088   6.663   0.650  17.210 -0.2570 -0.0138 -0.1006
11558TIP3    H156089   6.602   0.683  17.276 -0.0069 -0.1304  0.1906
11558TIP3    H256090   6.654   0.555  17.214  0.4874 -0.0630  0.4669
11559TIP3   OH256091   0.231   5.399   1.248  0.3478 -0.0781 -0.0948
11559TIP3    H156092   0.271   5.320   1.284 -1.3967 -1.5283 -1.2146
11559TIP3    H256093   0.149   5.368   1.210 -0.5773  2.3657 -0.1658
11560TIP3   OH256094   4.238   1.920  15.506 -0.2196  0.4880  0.3284
11560TIP3    H156095   4.238   1.926  15.411 -1.2011  1.7920  0.3861
11560TIP3    H256096   4.150   1.890  15.529  0.0961 -0.0887  0.8146
11561TIP3   OH256097   5.095   4.781  14.537 -0.3118 -0.1900  0.6483
11561TIP3    H156098   5.072   4.868  14.570  2.5699  1.9999 -2.6383
11561TIP3    H256099   5.164   4.750  14.596 -1.8002 -0.5455  2.2108
11562TIP3   OH256100   6.571   3.371  11.426  0.1636 -0.0002  0.4197
11562TIP3    H156101   6.504   3.439  11.416 -0.7101 -0.9867 -0.3953
11562TIP3    H256102   6.525   3.297  11.466  0.2390 -1.4841 -2.1711
11563TIP3   OH256103   4.854   0.519  14.019  0.3556 -0.1997  0.0756
11563TIP3    H156104   4.770   0.518  13.973 -0.3841 -2.1030  1.4180
11563TIP3    H256105   4.895   0.435  13.998  0.9300 -0.2256  1.2412
11564TIP3   OH256106   0.804   3.085   4.567  0.2635  0.3706 -0.3684
11564TIP3    H156107   0.731   3.028   4.545  1.9020 -2.4715  1.3627
11564TIP3    H256108   0.871   3.064   4.502  1.2279 -0.4234  0.8606
11565TIP3   OH256109   3.542   0.340   6.652  0.0463  0.0114 -0.1845
11565TIP3    H156110   3.587   0.259   6.630 -0.4628 -0.0677 -0.9495
11565TIP3    H256111   3.481   0.354   6.580 -2.0501 -0.5518  1.4209
11566TIP3   OH256112   2.276   3.574   1.730 -0.4601 -0.1017 -0.5660
11566TIP3    H156113   2.368   3.549   1.722 -0.2041  0.6616 -0.0972
11566TIP3    H256114   2.268   3.653   1.676 -0.7488  0.0441 -0.3143
11567TIP3   OH256115   1.638   5.220   3.768 -0.4966  0.1376 -0.7519
11567TIP3    H156116   1.622   5.212   3.674 -1.9595 -2.2610 -0.3609
11567TIP3    H256117   1.602   5.139   3.805  2.2957 -0.1177  1.6035
11568TIP3   OH256118   0.242   3.406  11.287 -0.1237  0.7542 -0.4681
11568TIP3    H156119   0.271   3.494  11.310 -2.2250  0.8038  2.2238
11568TIP3    H256120   0.235   3.360  11.371 -1.2225 -1.2873 -1.6351
11569TIP3   OH256121   5.786   2.339  17.202 -0.7336 -0.1279 -0.1820
11569TIP3    H156122   5.761   2.430  17.218 -1.0231 -0.3230  0.5063
11569TIP3    H256123   5.868   2.345  17.153 -0.6025  0.5043  0.1040
11570TIP3   OH256124   0.285   0.381  12.174  0.2815 -0.0910  0.7880
11570TIP3    H156125   0.320   0.310  12.228  0.2543 -2.1456 -1.8098
11570TIP3    H256126   0.355   0.401  12.112  0.0876  1.8217  1.1383
11571TIP3   OH256127   1.366   3.413   2.268  0.5594 -0.5410  0.4570
11571TIP3    H156128   1.411   3.337   2.304  0.9092 -0.7980 -0.5024
11571TIP3    H256129   1.398   3.419   2.178 -0.1959  0.1682  0.2333
11572TIP3   OH256130   2.325   3.591   5.828 -0.2752  0.5736 -0.2703
11572TIP3    H156131   2.419   3.581   5.840 -0.3407  2.5080  2.1702
11572TIP3    H256132   2.301   3.522   5.766  2.3337 -1.4813  0.9413
11573TIP3   OH256133   5.238   3.901   5.726  0.2489 -0.0559  0.2404
11573TIP3    H156134   5.167   3.914   5.663 -1.2734 -2.7661  1.2730
11573TIP3    H256135   5.315   3.882   5.672 -0.3822  0.3946 -0.8435
11574TIP3   OH256136   6.169   2.950  16.154  0.1205 -0.6627  0.6733
11574TIP3    H156137   6.122   3.022  16.196  2.5922  0.2533  1.9243
11574TIP3    H256138   6.234   2.992  16.098  0.8265 -1.9286  0.5124
11575TIP3   OH256139   6.649   0.431   1.322 -0.0306  0.1755 -0.6729
11575TIP3    H156140   6.649   0.335   1.320 -0.4820  0.1550 -0.0206
11575TIP3    H256141   6.738   0.456   1.297  0.0114 -0.4049 -1.1225
11576TIP3   OH256142   4.759   1.741  10.951  0.1346  0.6149 -0.1732
11576TIP3    H156143   4.740   1.828  10.986 -1.1847  0.4123 -0.3655
11576TIP3    H256144   4.683   1.688  10.974  0.2311 -0.0887 -1.3992
11577TIP3   OH256145   1.156   0.629   2.464  0.2132  0.3087 -0.2150
11577TIP3    H156146   1.126   0.699   2.523  1.9300 -0.9028  2.2007
11577TIP3    H256147   1.248   0.617   2.487  0.4824 -1.3232 -2.0612
11578TIP3   OH256148   0.480   4.583  14.141 -0.8772 -0.0245 -0.1995
11578TIP3    H156149   0.385   4.589  14.153 -0.9323  2.5308 -1.5885
11578TIP3    H256150   0.493   4.503  14.088 -2.2937 -0.1120 -0.4240
11579TIP3   OH256151   5.665   5.160   4.144  0.2547  0.5555  0.5347
11579TIP3    H156152   5.669   5.066   4.129  0.9439  0.4395  1.4027
11579TIP3    H256153   5.613   5.169   4.225  0.4618  0.9004  0.6306
11580TIP3   OH256154   6.756   0.934   1.964  0.3071  0.1175 -0.2603
11580TIP3    H156155   6.730   0.928   2.056 -3.6525 -0.5866 -1.3371
11580TIP3    H256156   6.844   0.971   1.967  0.9527 -1.4381  3.8702
11581TIP3   OH256157   0.608   3.547  16.405  0.1233 -0.4760  0.1944
11581TIP3    H156158   0.702   3.545  16.385  0.3264 -1.7355  1.2555
11581TIP3    H256159   0.565   3.522  16.323  0.7534 -1.0840  0.0511
11582TIP3   OH256160   1.959   4.357  15.380  0.2088 -0.1427 -0.4347
11582TIP3    H156161   1.967   4.262  15.378  1.1538 -0.0274 -2.6041
11582TIP3    H256162   1.867   4.373  15.401 -0.4365 -1.5517 -2.1131
11583TIP3   OH256163   1.074   2.089  16.788  0.8974 -0.0151  0.4346
11583TIP3    H156164   1.070   2.178  16.822 -0.6307 -0.8340  2.5217
11583TIP3    H256165   1.142   2.047  16.841  1.9418  0.0021 -0.8537
11584TIP3   OH256166   1.422   1.753  14.977 -0.0994  0.3967 -0.4137
11584TIP3    H156167   1.481   1.789  15.044  1.3512 -1.5093 -0.6227
11584TIP3    H256168   1.480   1.731  14.904 -1.1284 -1.1619 -0.7748
11585TIP3   OH256169   4.692   2.343  12.882 -0.0902  0.7165 -0.2898
11585TIP3    H156170   4.692   2.247  12.882  0.3435  0.7121 -0.8913
11585TIP3    H256171   4.600   2.366  12.896 -0.2833  0.2060 -0.6586
11586TIP3   OH256172   1.485   5.226  11.138  0.1077  0.1110  0.3233
11586TIP3    H156173   1.571   5.241  11.178 -0.5635  2.5718  0.8986
11586TIP3    H256174   1.424   5.225  11.212 -0.6884  0.9953 -0.3122
11587TIP3   OH256175   6.294   2.860   3.397 -0.5176 -0.1723 -0.3826
11587TIP3    H156176   6.317   2.786   3.452  0.3758 -0.5056 -1.1869
11587TIP3    H256177   6.279   2.932   3.458 -0.1250 -0.6796  0.3170
11588TIP3   OH256178   0.801   2.596   0.134  0.1039 -0.0915  0.4482
11588TIP3    H156179   0.895   2.610   0.145  0.0989 -1.3572  2.3151
11588TIP3    H256180   0.760   2.670   0.178  0.2139  0.5035 -0.4369
11589TIP3   OH256181   6.375   4.908  12.984 -0.3098  0.0918 -0.5015
11589TIP3    H156182   6.304   4.863  13.029 -0.8819  1.3212 -0.1570
11589TIP3    H256183   6.357   5.001  12.997  1.1446  0.4270 -0.7461
11590TIP3   OH256184   3.184   0.759   5.470  0.7781  0.3417 -0.4172
11590TIP3    H156185   3.269   0.758   5.427  0.7174 -0.1892 -0.5267
11590TIP3    H256186   3.129   0.701   5.417  0.9476 -1.0200  0.8713
11591TIP3   OH256187   1.905   3.082   2.333  0.8208 -0.0254  0.6255
11591TIP3    H156188   1.875   3.173   2.330  0.5395 -0.1669 -1.8908
11591TIP3    H256189   1.824   3.031   2.334  0.9742 -0.2984 -0.6837
11592TIP3   OH256190   2.176   5.492  12.173  0.1429  0.3656  0.5988
11592TIP3    H156191   2.175   5.468  12.266 -1.0532 -0.8044  0.3017
11592TIP3    H256192   2.148   5.412  12.128  0.9468  0.8583 -0.7897
11593TIP3   OH256193   1.872   4.748  16.911 -0.2703 -0.3298  0.0795
11593TIP3    H156194   1.902   4.792  16.991 -0.2063 -0.7363  0.2840
11593TIP3    H256195   1.894   4.656  16.925 -2.6402 -0.8226  0.7031
11594TIP3   OH256196   4.247   4.196  15.122  0.2366  0.0157 -0.0236
11594TIP3    H156197   4.300   4.264  15.080  1.0653  0.7251  2.1083
11594TIP3    H256198   4.157   4.229  15.114  0.5954  1.2128  0.6737
11595TIP3   OH256199   6.696   2.662  15.026 -0.1276 -0.2757  0.3435
11595TIP3    H156200   6.636   2.713  15.082 -1.7929 -0.8610 -0.8797
11595TIP3    H256201   6.643   2.590  14.993  1.5552 -1.4182  0.0731
11596TIP3   OH256202   3.413   1.872  17.225  0.4823  0.2356  0.0665
11596TIP3    H156203   3.393   1.839  17.137 -1.1973 -1.6442  1.1112
11596TIP3    H256204   3.499   1.835  17.246 -1.2749 -3.4846  1.1344
11597TIP3   OH256205   0.658   1.273   0.052  0.0584  0.0630 -0.1225
11597TIP3    H156206   0.732   1.333   0.055  0.6903 -0.7378  0.6508
11597TIP3    H256207   0.581   1.329   0.050  0.6580  0.8969 -0.0493
11598TIP3   OH256208   6.717   2.712   4.880  0.7597  0.3283 -0.1383
11598TIP3    H156209   6.648   2.777   4.895 -0.7327 -0.9521 -1.3292
11598TIP3    H256210   6.763   2.708   4.964 -0.4691  1.3699  0.6255
11599TIP3   OH256211   2.793   0.464   4.870 -0.0053 -0.0216  0.0424
11599TIP3    H156212   2.734   0.473   4.945  0.4032 -0.0404  0.3695
11599TIP3    H256213   2.851   0.391   4.894  0.4546  0.3048 -0.0741
11600TIP3   OH256214   4.047   3.982  10.924  0.0002  0.5871  0.5876
11600TIP3    H156215   3.983   4.002  10.993 -0.5337 -1.4368  0.7233
11600TIP3    H256216   4.122   3.946  10.971  0.9551  2.2912  0.3687
11601TIP3   OH256217   1.944   5.226  12.929  0.2919  0.2566 -0.4839
11601TIP3    H156218   1.982   5.235  13.016 -2.7046  1.5044  0.7398
11601TIP3    H256219   1.852   5.206  12.944 -0.5159  1.4809 -3.3385
11602TIP3   OH256220   2.365   1.019  14.147 -0.0795  0.3513 -0.3681
11602TIP3    H156221   2.382   0.960  14.220  1.9813 -1.0697 -1.9687
11602TIP3    H256222   2.269   1.020  14.139 -0.2160 -1.3293  0.8110
11603TIP3   OH256223   2.190   1.182   3.770  0.4570  0.5111 -0.1676
11603TIP3    H156224   2.130   1.231   3.825  0.2282 -1.5063  1.4243
11603TIP3    H256225   2.273   1.183   3.818  0.5409 -0.3894 -0.2930
11604TIP3   OH256226   1.268   6.012  12.274 -0.4661 -0.1390  0.6482
11604TIP3    H156227   1.287   6.021  12.367 -0.3711 -1.1634  0.7356
11604TIP3    H256228   1.205   6.081  12.255  0.3830  0.8016  1.2199
11605TIP3   OH256229   3.452   5.228   4.412  0.2902  0.0723 -0.2897
11605TIP3    H156230   3.404   5.310   4.405 -1.7022 -0.8314  2.1533
11605TIP3    H256231   3.385   5.160   4.411  1.4184 -1.2322  2.9846
11606TIP3   OH256232   4.619   3.893   2.530 -0.3020  0.5586 -0.2922
11606TIP3    H156233   4.697   3.912   2.478  0.3133 -0.6533  0.1782
11606TIP3    H256234   4.609   3.798   2.526 -2.7935  0.8249 -1.8252
11607TIP3   OH256235   1.298   1.965  13.055  0.2707  0.2967 -0.4531
11607TIP3    H156236   1.237   2.039  13.051 -1.1947 -0.9087 -0.6707
11607TIP3    H256237   1.335   1.960  12.967 -0.2815  0.2396 -0.6857
11608TIP3   OH256238   6.369   1.889  12.142  0.1715 -0.8463 -0.1598
11608TIP3    H156239   6.327   1.877  12.056  0.2065 -0.5945 -0.2137
11608TIP3    H256240   6.306   1.854  12.204 -0.5796  0.4618 -0.1519
11609TIP3   OH256241   4.824   3.691  13.320 -0.2606 -0.1213 -0.5047
11609TIP3    H156242   4.895   3.633  13.346 -0.5341 -0.7451 -1.1255
11609TIP3    H256243   4.745   3.636  13.323 -0.5090  0.1870 -1.1720
11610TIP3   OH256244   6.698   3.361   3.503 -0.0162 -0.5448  0.0696
11610TIP3    H156245   6.638   3.436   3.504  1.5843  0.7457  1.1748
11610TIP3    H256246   6.669   3.308   3.429 -0.2452  1.9234 -1.6504
11611TIP3   OH256247   4.360   0.238  11.905 -0.3123  0.1425 -0.0459
11611TIP3    H156248   4.422   0.245  11.978 -0.9769 -1.9868  0.7583
11611TIP3    H256249   4.289   0.297  11.928  0.2106  0.6481  0.2798
11612TIP3   OH256250   1.903   1.964  16.451 -0.0893 -0.4563 -0.9567
11612TIP3    H156251   1.935   1.882  16.414 -0.7412 -1.5783  0.9345
11612TIP3    H256252   1.979   2.023  16.447  0.2295 -0.9685 -2.7911
11613TIP3   OH256253   1.067   2.543  14.289 -0.3007  0.6649 -0.3660
11613TIP3    H156254   1.121   2.535  14.210  0.5811  0.3183  0.2608
11613TIP3    H256255   1.045   2.636  14.293  1.2926  1.0460  0.0286
11614TIP3   OH256256   6.187   0.023  13.347 -0.5821  0.1016 -0.2111
11614TIP3    H156257   6.132   0.001  13.271  0.1394  0.7864 -0.9439
11614TIP3    H256258   6.160   0.110  13.373 -0.4056  0.1148 -0.0669
11615TIP3   OH256259   5.460   5.617  14.476  0.2638  0.9964 -0.0376
11615TIP3    H156260   5.525   5.627  14.407 -0.0504  0.5048 -0.4127
11615TIP3    H256261   5.388   5.570  14.434  1.7487 -3.0126  1.6577
11616TIP3   OH256262   5.725   3.897   2.982  0.4190  0.1934 -0.0109
11616TIP3    H156263   5.732   3.890   3.077  0.6863  0.7548  0.0151
11616TIP3    H256264   5.663   3.969   2.968 -0.2744 -0.4377 -0.2658
11617TIP3   OH256265   4.334   6.639   3.858  0.1571 -0.0507 -0.3763
11617TIP3    H156266   4.322   6.688   3.939 -0.5749 -0.7605 -0.0557
11617TIP3    H256267   4.416   6.592   3.870  1.1078  1.4286 -0.8640
11618TIP3   OH256268   3.897   5.688   1.977 -0.2859  0.3882  0.5131
11618TIP3    H156269   3.962   5.750   2.010  0.7558 -0.9486  1.0670
11618TIP3    H256270   3.924   5.604   2.015 -2.9323 -0.0261  1.5699
11619TIP3   OH256271   4.504   4.802   6.436  0.1827  0.5699  0.0089
11619TIP3    H156272   4.555   4.875   6.470  0.6917  0.0156  0.4482
11619TIP3    H256273   4.417   4.838   6.421  0.8419  1.6790 -1.2844
11620TIP3   OH256274   4.068   0.264   2.766 -0.6822 -0.5288  0.3340
11620TIP3    H156275   4.039   0.244   2.854 -0.3816 -1.0563  0.3124
11620TIP3    H256276   4.011   0.212   2.709 -1.2038  0.1907  0.1947
11621TIP3   OH256277   0.742   1.135  10.605 -0.1031  0.5407 -0.3638
11621TIP3    H156278   0.806   1.097  10.545  1.3921 -0.6512  1.9224
11621TIP3    H256279   0.667   1.076  10.600 -0.4196  1.0546 -1.8569
11622TIP3   OH256280   4.117   4.810   4.708  0.9826 -0.0219  0.0351
11622TIP3    H156281   4.115   4.785   4.801 -1.9048  1.4039  0.4217
11622TIP3    H256282   4.117   4.906   4.710  1.1816  0.0102 -1.4336
11623TIP3   OH256283   4.558   2.486  10.826  0.2012 -0.3346 -0.0277
11623TIP3    H156284   4.629   2.452  10.771 -1.2287 -0.8315 -1.6052
11623TIP3    H256285   4.540   2.573  10.791 -2.0987 -1.4474 -1.7311
11624TIP3   OH256286   4.447   5.768   2.333  0.3664 -0.5001  0.1893
11624TIP3    H156287   4.355   5.762   2.305  0.6632 -2.2556 -0.4986
11624TIP3    H256288   4.447   5.729   2.420  0.8028 -2.5722 -0.6995
11625TIP3   OH256289   2.446   6.593  12.154  0.4340 -0.1307 -0.2887
11625TIP3    H156290   2.461   6.539  12.231 -0.7099  1.3933  1.0099
11625TIP3    H256291   2.533   6.629  12.133  0.4338  0.8225  1.3162
11626TIP3   OH256292   3.917   4.567   5.159  0.1265  0.5388  0.1415
11626TIP3    H156293   3.893   4.482   5.122  0.7362  0.3420  0.1904
11626TIP3    H256294   3.858   4.629   5.116  0.9423  0.3362 -1.3273
11627TIP3   OH256295   4.954   4.731  11.870 -0.0646 -0.4262  0.0086
11627TIP3    H156296   4.865   4.759  11.845 -0.2279 -0.4400  0.5609
11627TIP3    H256297   4.945   4.705  11.962  0.7671  0.6969  0.4130
11628TIP3   OH256298   6.451   1.274   1.142  0.1033 -0.3170 -0.6111
11628TIP3    H156299   6.421   1.319   1.063  2.1857  2.1711 -0.0566
11628TIP3    H256300   6.487   1.191   1.111 -1.4700 -0.5165 -1.9583
11629TIP3   OH256301   5.973   4.254  11.455  0.0211  0.0521  0.1978
11629TIP3    H156302   6.019   4.261  11.371 -0.2503  1.9297  0.1725
11629TIP3    H256303   6.038   4.281  11.520 -0.3588  0.5175  0.3859
11630TIP3   OH256304   6.560   5.478   2.733  0.7991 -0.4252  0.7561
11630TIP3    H156305   6.606   5.472   2.650  1.9244  0.4708  1.2961
11630TIP3    H256306   6.484   5.421   2.723 -0.1703  1.2295 -1.5955
11631TIP3   OH256307   4.712   5.309   3.384  0.6228 -0.3012 -0.0763
11631TIP3    H156308   4.639   5.259   3.348  1.2732 -1.5656  0.3249
11631TIP3    H256309   4.772   5.320   3.310  0.5003 -0.1604 -0.1539
11632TIP3   OH256310   2.076   1.256   2.255 -0.1562  0.0809  0.2781
11632TIP3    H156311   2.048   1.271   2.165 -1.0516 -0.6118  0.4339
11632TIP3    H256312   1.997   1.227   2.300  0.4285 -0.1904  1.1397
11633TIP3   OH256313   6.221   1.755  17.049 -0.1893  0.2027 -0.2934
11633TIP3    H156314   6.216   1.850  17.043  2.3501  0.4582  0.9280
11633TIP3    H256315   6.130   1.727  17.064 -1.1108  2.3088 -1.6665
11634TIP3   OH256316   1.452   4.229  15.111 -0.5933 -0.5899  0.2408
11634TIP3    H156317   1.539   4.207  15.079 -0.3933 -2.6217  2.0131
11634TIP3    H256318   1.467   4.299  15.175 -0.4155 -0.0545 -0.3834
11635TIP3   OH256319   1.511   0.643   0.873  0.4196 -0.1793  0.4404
11635TIP3    H156320   1.586   0.676   0.823  0.3717 -0.1505  0.3874
11635TIP3    H256321   1.436   0.694   0.840  0.5847  0.7279  1.4147
11636TIP3   OH256322   6.218   2.327  16.229  0.4658  0.8098  0.0219
11636TIP3    H156323   6.311   2.334  16.207 -0.2070  2.4112 -2.4243
11636TIP3    H256324   6.195   2.237  16.207  1.2174  0.6582 -0.1594
11637TIP3   OH256325   2.588   4.645   0.019  0.2389 -0.2941  0.1784
11637TIP3    H156326   2.531   4.647   0.096 -0.7322 -0.2553 -0.5270
11637TIP3    H256327   2.529   4.626  -0.054  1.5147 -2.9696 -0.2110
11638TIP3   OH256328   1.017   4.202   3.468  0.7690 -0.4773 -0.5822
11638TIP3    H156329   1.056   4.222   3.383  1.3655 -0.9521 -0.4193
11638TIP3    H256330   0.943   4.145   3.447  1.0306 -0.7506 -0.7673
11639TIP3   OH256331   0.924   2.679  10.802 -0.2487  0.0176 -0.3586
11639TIP3    H156332   1.011   2.703  10.833  1.2711 -0.0962 -4.3323
11639TIP3    H256333   0.917   2.585  10.818  0.3246  0.0345  0.0018
11640TIP3   OH256334   6.002   2.380  16.062  0.4157  0.0400 -0.4962
11640TIP3    H156335   6.006   2.403  15.969 -0.4360  1.4658 -0.2131
11640TIP3    H256336   6.093   2.379  16.091  0.5459  2.4240 -0.7190
11641TIP3   OH256337   3.583   4.641  14.300  0.0088  0.2861 -0.2780
11641TIP3    H156338   3.503   4.676  14.339  0.1803 -0.1397  0.4614
11641TIP3    H256339   3.650   4.707  14.320  0.3053 -0.3741  1.0098
11642TIP3   OH256340   6.377   6.757   2.797  0.1775 -0.1554  0.9738
11642TIP3    H156341   6.345   6.700   2.727 -0.6349  0.9546  0.4295
11642TIP3    H256342   6.302   6.811   2.821  0.9816  0.8092  1.3602
11643TIP3   OH256343   1.822   6.703  15.902  0.1241 -0.1146  0.0329
11643TIP3    H156344   1.809   6.702  15.807 -2.2019  0.6250  0.3088
11643TIP3    H256345   1.832   6.796  15.924  2.3268 -0.4004  0.3260
11644TIP3   OH256346   5.205   6.706  10.802 -0.2231  0.2063 -0.2109
11644TIP3    H156347   5.145   6.746  10.738  0.2959 -0.3465 -1.0649
11644TIP3    H256348   5.289   6.749  10.787  0.3334 -1.1496 -1.1246
11645TIP3   OH256349   3.708   2.388  12.216  0.0548 -0.4279 -1.3263
11645TIP3    H156350   3.712   2.483  12.218  0.7011 -0.4700  0.1272
11645TIP3    H256351   3.668   2.364  12.300 -0.0607 -1.4423 -1.6594
11646TIP3   OH256352   6.035   2.288  16.769 -0.4916  0.1496 -0.1124
11646TIP3    H156353   6.090   2.333  16.833 -0.2543 -0.9809  0.4929
11646TIP3    H256354   5.978   2.357  16.734 -1.2473  0.6302  1.9908
11647TIP3   OH256355   5.421   2.960   1.067 -0.0988  0.1071  0.9511
11647TIP3    H156356   5.475   2.881   1.065  2.2669  1.6867  0.8036
11647TIP3    H256357   5.339   2.934   1.025  2.0452 -1.2964 -2.6043
11648TIP3   OH256358   5.624   6.051  10.459 -0.0019 -0.0846 -0.0454
11648TIP3    H156359   5.655   5.961  10.468  0.2065 -0.1124 -1.0612
11648TIP3    H256360   5.530   6.046  10.480  0.3488 -0.2510  1.5190
11649TIP3   OH256361   5.914   2.057  15.992  0.1764 -0.7188  0.1204
11649TIP3    H156362   5.871   2.140  16.009  1.0712 -0.4399  1.0787
11649TIP3    H256363   5.942   2.061  15.900 -1.6692 -0.8380 -0.4603
11650TIP3   OH256364   3.916   0.435  16.063 -0.1143 -0.2696 -0.0741
11650TIP3    H156365   3.963   0.516  16.041  2.3033 -1.0233  2.0430
11650TIP3    H256366   3.841   0.434  16.004 -0.1746  3.4901 -0.2043
11651TIP3   OH256367   3.552   4.507   0.472  0.1839 -0.2775 -0.3557
11651TIP3    H156368   3.498   4.574   0.430 -0.4661  0.7404  1.9695
11651TIP3    H256369   3.490   4.453   0.520  1.0562 -0.0940  1.0170
11652TIP3   OH256370   4.322   1.885  14.594 -0.4111 -0.3149  0.2622
11652TIP3    H156371   4.228   1.892  14.577 -0.0505 -1.0896 -2.1853
11652TIP3    H256372   4.339   1.951  14.661 -2.5989  0.1648  0.3827
11653TIP3   OH256373   3.840   4.829  12.883 -0.4686  0.0710  0.2712
11653TIP3    H156374   3.796   4.757  12.928  1.1074  0.0354  1.8375
11653TIP3    H256375   3.812   4.823  12.792  0.1735 -2.9455  0.2488
11654TIP3   OH256376   4.722   1.773  15.855  0.0782 -0.5647 -0.6242
11654TIP3    H156377   4.677   1.845  15.900  2.4196  0.3835  0.2874
11654TIP3    H256378   4.759   1.721  15.925  2.0817 -0.1962 -1.3884
11655TIP3   OH256379   3.323   1.677   5.513  0.5837  0.1892  0.7790
11655TIP3    H156380   3.394   1.614   5.517  1.1578  0.8040  0.4288
11655TIP3    H256381   3.302   1.685   5.420  0.5414  0.5474  0.8182
11656TIP3   OH256382   3.461   0.034  14.169 -0.1833  0.1464  0.0737
11656TIP3    H156383   3.371   0.028  14.137  0.7557 -0.9023 -2.4716
11656TIP3    H256384   3.513  -0.010  14.102  2.3859  1.8417  0.8971
11657TIP3   OH256385   2.393   3.040  11.350 -0.0344 -0.0965 -0.3458
11657TIP3    H156386   2.338   3.096  11.404  0.9332 -0.1119  0.6814
11657TIP3    H256387   2.354   2.953  11.359 -0.4000  0.0617 -0.3837
11658TIP3   OH256388   2.244   0.865   0.331  0.5021  0.5751 -0.4427
11658TIP3    H156389   2.165   0.896   0.375 -1.0392 -0.7491 -2.2033
11658TIP3    H256390   2.268   0.936   0.272 -0.1622  0.4442 -0.8778
11659TIP3   OH256391   6.371   1.783   6.255  0.6472 -0.0227 -0.1846
11659TIP3    H156392   6.326   1.754   6.176  0.1309  1.0926 -0.3085
11659TIP3    H256393   6.455   1.816   6.223  1.2190 -1.3126 -0.0482
11660TIP3   OH256394   4.178   3.492  17.054  0.1257  0.4280  0.2174
11660TIP3    H156395   4.231   3.572  17.060  2.7654 -1.3626  1.7314
11660TIP3    H256396   4.149   3.475  17.143 -1.0696  0.0848 -0.2269
11661TIP3   OH256397   0.445   5.605  12.252  0.0407 -0.2112  0.0954
11661TIP3    H156398   0.492   5.665  12.309  0.4651  0.1612 -0.6537
11661TIP3    H256399   0.474   5.518  12.280  0.5374 -0.0164  0.1913
11662TIP3   OH256400   6.214   1.442   4.248 -0.0946  0.6504  0.4171
11662TIP3    H156401   6.246   1.355   4.223 -2.5093 -0.9531  2.6552
11662TIP3    H256402   6.140   1.458   4.190  0.2676  1.2036  0.0949
11663TIP3   OH256403   0.400   2.453  12.166  0.5516  0.5828 -0.1189
11663TIP3    H156404   0.439   2.532  12.204 -0.3321  1.2256 -0.5417
11663TIP3    H256405   0.315   2.444  12.209  0.1069  0.5749 -0.9824
11664TIP3   OH256406   3.228   2.935   0.108 -0.1537  0.4864  0.0401
11664TIP3    H156407   3.150   2.962   0.156  0.4498  2.0309  0.1531
11664TIP3    H256408   3.267   2.867   0.163  0.3994  2.0726  1.6429
11665TIP3   OH256409   2.028   5.590  11.824  0.1004  0.6651  0.5507
11665TIP3    H156410   2.104   5.602  11.766 -0.2224 -0.4357 -0.1034
11665TIP3    H256411   2.046   5.647  11.898  0.8375  1.5966 -0.3262
11666TIP3   OH256412   1.507   1.748   4.491 -0.2639  0.1302  0.5885
11666TIP3    H156413   1.473   1.663   4.521 -0.0629  0.1710  0.9408
11666TIP3    H256414   1.434   1.788   4.444 -0.3669 -0.2307  0.4353
11667TIP3   OH256415   4.259   0.800   2.796  0.0860 -0.4544  0.1785
11667TIP3    H156416   4.179   0.849   2.776 -0.7696 -1.7261  0.3704
11667TIP3    H256417   4.244   0.714   2.757  1.1607 -0.8528  0.6387
11668TIP3   OH256418   6.201   1.366   4.521 -0.2567  0.2092 -0.2490
11668TIP3    H156419   6.186   1.410   4.605  1.5509  0.5500 -0.0941
11668TIP3    H256420   6.186   1.435   4.456  2.5585  1.1191 -0.0072
11669TIP3   OH256421   2.251   4.509  15.961  0.1018 -0.1030  0.4460
11669TIP3    H156422   2.237   4.417  15.984  2.1814 -0.7296 -0.6353
11669TIP3    H256423   2.263   4.553  16.046  0.8785 -1.1555  0.9020
11670TIP3   OH256424   5.852   3.666   2.628 -0.5807 -0.2298 -0.3901
11670TIP3    H156425   5.772   3.718   2.617 -1.0318 -1.0582 -1.0996
11670TIP3    H256426   5.901   3.681   2.547 -0.4658 -0.4925 -0.3679
11671TIP3   OH256427   0.465   6.776   0.221 -0.3396  0.6621 -0.4605
11671TIP3    H156428   0.403   6.709   0.194 -0.2334  0.7606 -0.9712
11671TIP3    H256429   0.432   6.808   0.305 -0.1897 -0.2779 -0.0396
11672TIP3   OH256430   2.260   4.347  16.845 -0.6451  0.4736  0.2918
11672TIP3    H156431   2.333   4.370  16.787  0.0908 -0.0090  1.0013
11672TIP3    H256432   2.188   4.325  16.787 -0.2173  0.9343 -0.4223
11673TIP3   OH256433   2.305   3.494   0.880 -0.1532  0.0782  0.1026
11673TIP3    H156434   2.287   3.576   0.833  1.9308  1.6495  1.9463
11673TIP3    H256435   2.358   3.442   0.818  1.4000  1.5588  0.1450
11674TIP3   OH256436   3.982   6.002  12.912 -0.4023  0.6324 -0.0531
11674TIP3    H156437   3.961   6.062  12.840  0.1666  0.0535 -0.7063
11674TIP3    H256438   3.915   5.934  12.907 -0.3569  0.5863 -0.0357
11675TIP3   OH256439   0.985   2.824  11.896  0.4937 -0.4308 -0.2875
11675TIP3    H156440   0.890   2.832  11.901  0.6995  3.0132 -0.4501
11675TIP3    H256441   1.014   2.825  11.987  0.4120 -0.8417 -0.2563
11676TIP3   OH256442   6.063   3.708  11.128  0.3401 -0.1115  1.1092
11676TIP3    H156443   5.969   3.727  11.120  0.2161 -1.6601 -1.5293
11676TIP3    H256444   6.078   3.703  11.222 -2.0237  1.1031  1.6006
11677TIP3   OH256445   6.302   2.687   6.688  0.2238 -0.2623 -0.6214
11677TIP3    H156446   6.300   2.602   6.645  1.8231 -0.2117 -0.8236
11677TIP3    H256447   6.286   2.750   6.618  0.6587 -0.3008 -0.7531
11678TIP3   OH256448   5.952   2.063  16.980  0.5663  0.4424 -0.2814
11678TIP3    H156449   6.024   2.045  16.920 -0.6584  1.0868 -2.0067
11678TIP3    H256450   5.988   2.125  17.043  1.9531 -0.4378 -0.1737
11679TIP3   OH256451   3.976   2.577   0.743 -0.0315 -0.3845 -0.3670
11679TIP3    H156452   4.057   2.618   0.773 -0.5710  0.2042  0.2925
11679TIP3    H256453   4.004   2.517   0.674  0.8407  0.5730 -0.8571
11680TIP3   OH256454   6.551   5.153   1.833  0.5091  0.3731 -0.4601
11680TIP3    H156455   6.476   5.151   1.892 -0.8303  0.9558 -2.1193
11680TIP3    H256456   6.554   5.066   1.794  0.6297  0.3912 -0.4924
11681TIP3   OH256457   6.664   3.502   4.614 -0.4008 -0.7848 -0.4161
11681TIP3    H156458   6.668   3.407   4.605  0.4564 -0.8021  0.1123
11681TIP3    H256459   6.739   3.534   4.563 -0.3114 -0.4282 -0.0661
11682TIP3   OH256460   2.361   1.458  16.502 -0.2639 -0.1624  0.0161
11682TIP3    H156461   2.403   1.526  16.555  0.3479 -0.5605  0.0447
11682TIP3    H256462   2.336   1.390  16.565 -0.8441  0.0161 -0.0201
11683TIP3   OH256463   4.542   0.518  15.753  0.2672  0.0623  0.2594
11683TIP3    H156464   4.569   0.459  15.823 -0.3756 -1.0824 -0.4312
11683TIP3    H256465   4.455   0.487  15.728 -0.5043  1.9488  0.5663
11684TIP3   OH256466   6.033   0.790   4.114  0.0854  0.2628  0.1478
11684TIP3    H156467   5.996   0.877   4.102  1.2928  1.1455  2.4403
11684TIP3    H256468   6.073   0.769   4.030 -0.3131  1.8948 -0.4619
11685TIP3   OH256469   6.519   4.630   0.501  0.1304 -0.2326  0.3033
11685TIP3    H156470   6.502   4.579   0.580 -0.7981 -1.9622 -1.0099
11685TIP3    H256471   6.475   4.583   0.431  2.5766  0.2157 -1.6047
11686TIP3   OH256472   4.601   4.829   0.833 -0.5599 -0.1396 -0.4712
11686TIP3    H156473   4.637   4.886   0.765 -1.5799  0.5544 -0.4371
11686TIP3    H256474   4.663   4.837   0.906 -0.0115 -0.0822 -0.9380
11687TIP3   OH256475   5.964   3.502  13.724  0.1864  0.2946 -0.0923
11687TIP3    H156476   6.041   3.536  13.678  1.1655  0.1897  1.4483
11687TIP3    H256477   5.902   3.575  13.724  1.7791  1.7214  2.0475
11688TIP3   OH256478   3.095   3.802   4.068 -0.3622  0.6968 -0.3081
11688TIP3    H156479   3.060   3.820   3.981 -3.6371 -2.9212  0.0960
11688TIP3    H256480   3.046   3.861   4.126 -1.4245 -0.0354 -0.4468
11689TIP3   OH256481   1.778   2.722  13.728 -0.1266  0.1423  0.1271
11689TIP3    H156482   1.751   2.638  13.692  0.0902 -0.4005  1.2167
11689TIP3    H256483   1.702   2.753  13.776  0.3254 -0.1779  1.0529
11690TIP3   OH256484   0.276   5.715   0.896  0.1482 -0.0806 -0.1406
11690TIP3    H156485   0.317   5.647   0.949  2.8711  2.1808  0.8382
11690TIP3    H256486   0.201   5.745   0.948  0.2684 -0.8131  0.4544
11691TIP3   OH256487   3.822   6.598  17.232  0.4472  0.4271 -0.2695
11691TIP3    H156488   3.809   6.682  17.277 -1.0478 -0.3866  0.8537
11691TIP3    H256489   3.883   6.619  17.160  1.4424  2.1190  1.0105
11692TIP3   OH256490   4.842   1.821   5.876 -0.4107  0.0460  0.0429
11692TIP3    H156491   4.747   1.820   5.866 -0.3352  1.5659 -1.0257
11692TIP3    H256492   4.874   1.754   5.816 -0.7272  0.4764 -0.6072
11693TIP3   OH256493   3.460   4.271   4.360  0.1138 -0.3233 -0.2383
11693TIP3    H156494   3.479   4.254   4.268  0.2339 -0.0673 -0.2595
11693TIP3    H256495   3.378   4.224   4.377  0.8458 -1.5900 -0.0984
11694TIP3   OH256496   6.583   0.838  11.965  0.5106 -0.1655  0.0045
11694TIP3    H156497   6.517   0.827  12.033 -0.2046  0.7664 -0.5283
11694TIP3    H256498   6.656   0.880  12.010 -0.8075  2.4840 -0.2642
11695TIP3   OH256499   3.479   2.640   4.869 -0.1530 -0.4042  0.0437
11695TIP3    H156500   3.453   2.656   4.960  1.2937  0.1516  0.3601
11695TIP3    H256501   3.494   2.545   4.864 -3.3952 -0.9533 -0.4596
11696TIP3   OH256502   3.733   0.891  15.113 -0.0370 -0.6254 -0.8304
11696TIP3    H156503   3.740   0.876  15.207 -1.2756 -0.1040 -0.6553
11696TIP3    H256504   3.802   0.836  15.076  0.6696 -0.5955  0.3955
11697TIP3   OH256505   3.023   1.264  13.533  0.9063  0.1609  0.1493
11697TIP3    H156506   2.945   1.312  13.506  1.0201  0.3891  0.2222
11697TIP3    H256507   3.049   1.305  13.616  0.7888 -0.2684  0.4025
11698TIP3   OH256508   4.670   0.191   6.398  0.3129  0.6451 -0.1410
11698TIP3    H156509   4.717   0.110   6.378  1.9624  0.8466  2.6144
11698TIP3    H256510   4.705   0.255   6.335 -1.2040 -0.7860 -2.5088
11699TIP3   OH256511   4.387   0.911   5.561  0.0123 -0.6632 -0.7409
11699TIP3    H156512   4.291   0.912   5.552 -0.1112  1.1585  0.4799
11699TIP3    H256513   4.407   0.829   5.606 -1.3061  0.6037  2.2375
11700TIP3   OH256514   2.911   3.181  12.578 -0.0707 -0.0496 -0.1743
11700TIP3    H156515   2.899   3.102  12.526  0.7007 -1.6210  1.9623
11700TIP3    H256516   2.891   3.153  12.668 -0.1307  2.2708  0.5607
11701TIP3   OH256517   2.828   5.154   0.742 -0.0306  1.2142  0.0841
11701TIP3    H156518   2.750   5.151   0.686  0.9256 -0.8574 -1.1929
11701TIP3    H256519   2.835   5.246   0.767 -0.7255  2.1555 -2.9112
11702TIP3   OH256520   0.676   5.001   4.629  0.1064 -0.2413 -0.1047
11702TIP3    H156521   0.585   4.984   4.606  0.1091 -1.1058  0.4962
11702TIP3    H256522   0.715   4.914   4.640  1.1312  0.1109 -0.8401
11703TIP3   OH256523   3.190   0.041  13.028  0.3038 -0.0675  0.3187
11703TIP3    H156524   3.225   0.061  12.941  0.7441  0.4430  0.6092
11703TIP3    H256525   3.265   0.049  13.087  0.1158 -0.8825  0.6891
11704TIP3   OH256526   5.871   5.640  15.252  0.3803 -0.4558 -0.1881
11704TIP3    H156527   5.890   5.734  15.255 -0.6798 -0.1251 -2.5336
11704TIP3    H256528   5.881   5.610  15.342 -0.3038  2.1099  0.7724
11705TIP3   OH256529   0.336   3.166   5.564  0.6372 -0.4008  0.0777
11705TIP3    H156530   0.408   3.223   5.591 -1.1509  1.2658  1.4919
11705TIP3    H256531   0.341   3.165   5.469  1.9834  0.4256  0.1267
11706TIP3   OH256532   3.798   0.500  14.295  0.0802  0.1984  0.4293
11706TIP3    H156533   3.769   0.575  14.346 -1.4969 -0.2856  0.2777
11706TIP3    H256534   3.818   0.432  14.360  0.1352  0.2829  0.5007
11707TIP3   OH256535   3.147   1.742  11.583  0.0362 -0.8753  0.1431
11707TIP3    H156536   3.094   1.689  11.642 -0.9833 -1.5693 -1.3353
11707TIP3    H256537   3.165   1.684  11.509 -0.1731  0.4877 -1.0065
11708TIP3   OH256538   2.354   2.674   1.393  0.3271 -0.0710 -0.2302
11708TIP3    H156539   2.415   2.741   1.361 -0.7046  1.5408  1.1024
11708TIP3    H256540   2.347   2.691   1.487  0.5751 -2.5040  0.2712
11709TIP3   OH256541   1.638   3.410  16.348  0.1680  0.1052  0.1584
11709TIP3    H156542   1.660   3.381  16.436 -0.9532 -0.8049  0.1557
11709TIP3    H256543   1.544   3.393  16.340  0.3188 -0.1126 -1.3144
11710TIP3   OH256544   2.917   0.870   0.627  0.7925  0.4728 -0.1991
11710TIP3    H156545   2.848   0.821   0.673 -0.0248  2.7449  1.0802
11710TIP3    H256546   2.869   0.931   0.570  1.7632  0.7833 -0.6855
11711TIP3   OH256547   5.486   0.847  13.636  0.9668  0.0352  0.4664
11711TIP3    H156548   5.425   0.801  13.579  2.0504 -0.7895 -0.0557
11711TIP3    H256549   5.566   0.794  13.633  1.8466  1.3206  0.7974
11712TIP3   OH256550   1.941   4.048   3.973  0.0085 -0.4465  0.2130
11712TIP3    H156551   2.017   3.997   3.945  0.5414 -0.3081  1.3835
11712TIP3    H256552   1.945   4.046   4.068 -0.4150  1.1169  0.2717
11713TIP3   OH256553   3.001   0.256  11.725 -0.2919  0.9585  0.0228
11713TIP3    H156554   2.959   0.341  11.734 -1.1088  0.4872  0.6911
11713TIP3    H256555   2.991   0.215  11.811  1.5921  0.8691  0.2162
11714TIP3   OH256556   5.500   1.834  13.143  0.3084  0.0155  0.4364
11714TIP3    H156557   5.455   1.917  13.156 -0.1389 -0.1481 -0.0665
11714TIP3    H256558   5.435   1.767  13.164  0.9525 -0.2117  1.7932
11715TIP3   OH256559   3.448   2.542  15.800 -0.9145  0.0128 -0.7452
11715TIP3    H156560   3.530   2.560  15.755 -1.9178 -0.3775 -2.7668
11715TIP3    H256561   3.405   2.628  15.806  0.2639  0.4802  1.6485
11716TIP3   OH256562   3.815   5.759  12.579 -0.1411  0.1959  0.7886
11716TIP3    H156563   3.888   5.811  12.614  0.9288 -0.6365 -0.1597
11716TIP3    H256564   3.853   5.673  12.562 -1.5471 -0.4635  0.9913
11717TIP3   OH256565   4.718   3.171   3.616  0.0042  0.3463 -0.2697
11717TIP3    H156566   4.675   3.255   3.629 -0.9120  0.0045 -0.9889
11717TIP3    H256567   4.698   3.121   3.695  0.7291  0.8735  0.2518
11718TIP3   OH256568   4.192   6.645  12.926  0.1556 -0.1439  0.1730
11718TIP3    H156569   4.134   6.720  12.930 -0.1615 -0.4003  0.4282
11718TIP3    H256570   4.230   6.648  12.838  2.5796  2.0959  1.2237
11719TIP3   OH256571   1.405   4.054   5.492  0.5971 -0.1918 -0.0329
11719TIP3    H156572   1.319   4.063   5.533  0.6040  1.3899 -0.3383
11719TIP3    H256573   1.466   4.046   5.565  0.4754  1.3690  0.2546
11720TIP3   OH256574   6.107   4.758  14.823  0.4539 -0.4732 -0.1324
11720TIP3    H156575   6.073   4.717  14.903  0.0216 -1.6235 -0.9099
11720TIP3    H256576   6.073   4.848  14.826 -0.0030 -0.6745  0.6983
11721TIP3   OH256577   6.603   0.724   3.529 -0.1947 -0.3553 -0.0719
11721TIP3    H156578   6.676   0.786   3.520  1.8435 -2.5287  0.7040
11721TIP3    H256579   6.610   0.668   3.452 -0.0745 -1.5052  0.7533
11722TIP3   OH256580   0.571   0.097  15.721  0.4319  0.3869  0.1154
11722TIP3    H156581   0.580   0.042  15.643  0.2047 -1.3865  1.3058
11722TIP3    H256582   0.654   0.087  15.767  0.4723  1.2282  0.2284
11723TIP3   OH256583   5.548   1.398  11.875  0.9186 -0.1374 -0.2491
11723TIP3    H156584   5.643   1.390  11.872  0.9373 -0.3385  0.5485
11723TIP3    H256585   5.519   1.385  11.785  1.9430  4.3932 -1.3192
11724TIP3   OH256586   5.615   3.684   2.850  0.2161 -0.4238  0.4200
11724TIP3    H156587   5.681   3.742   2.888 -0.0080 -0.8191  1.4442
11724TIP3    H256588   5.536   3.738   2.844  0.5533 -0.0279 -0.5608
11725TIP3   OH256589   4.413   1.293   5.899 -0.8874  0.8075 -0.2702
11725TIP3    H156590   4.460   1.257   5.975  0.2544  0.0500 -1.3320
11725TIP3    H256591   4.337   1.235   5.889 -0.2834  0.0684 -0.5724
11726TIP3   OH256592   1.426   0.892  14.063 -0.1862 -0.7386 -0.5560
11726TIP3    H156593   1.404   0.891  13.969  0.5714 -0.4319 -0.7351
11726TIP3    H256594   1.441   0.800  14.084 -1.2347 -0.9098 -0.5276
11727TIP3   OH256595   1.255   3.456  16.951 -0.2633 -0.0523 -0.4716
11727TIP3    H156596   1.169   3.449  16.910 -0.4069  0.4300 -0.2569
11727TIP3    H256597   1.277   3.549  16.946 -0.3727  0.0515  0.6963
11728TIP3   OH256598   0.262   6.739   5.025 -0.3089 -0.6673 -0.1978
11728TIP3    H156599   0.171   6.721   5.001 -0.6416  0.0849  0.4830
11728TIP3    H256600   0.257   6.768   5.116  0.7109 -1.5156  0.1364
11729TIP3   OH256601   3.871   0.225  15.557 -0.1649 -0.2958  0.3194
11729TIP3    H156602   3.803   0.174  15.602  1.5532 -1.8180  1.2469
11729TIP3    H256603   3.925   0.159  15.513  1.3667  0.7931  0.5229
11730TIP3   OH256604   3.955   3.622  11.476 -0.4007  0.2489  0.3078
11730TIP3    H156605   4.048   3.599  11.472 -0.2492  0.7803  0.6407
11730TIP3    H256606   3.926   3.592  11.562 -0.2226  1.2043  0.7087
11731TIP3   OH256607   3.988   5.071  12.947  0.1641  0.0166 -0.4293
11731TIP3    H156608   3.985   4.980  12.917 -0.1013 -0.2189  0.2921
11731TIP3    H256609   4.004   5.064  13.041 -0.0724  0.7117 -0.3381
11732TIP3   OH256610   3.656   5.934  15.969 -0.2955  0.7930 -0.2843
11732TIP3    H156611   3.712   5.997  15.922  1.9243 -0.2626  0.8537
11732TIP3    H256612   3.618   5.880  15.900  0.6494  1.0903 -1.0619
11733TIP3   OH256613   2.838   5.549  12.662 -0.4100 -0.6288  0.2032
11733TIP3    H156614   2.904   5.508  12.607 -0.0378  0.6163 -0.2901
11733TIP3    H256615   2.787   5.603  12.602 -1.2609 -0.8132  0.7515
11734TIP3   OH256616   5.079   3.041  15.647 -0.2114 -0.0074 -0.4174
11734TIP3    H156617   5.047   3.099  15.716  0.4603  0.8074 -0.7763
11734TIP3    H256618   5.168   3.020  15.672 -0.0588  0.0660 -0.8895
11735TIP3   OH256619   0.025   3.089  16.385  0.5456  0.4508 -0.0931
11735TIP3    H156620  -0.068   3.106  16.375  0.1586 -0.3664  1.9205
11735TIP3    H256621   0.051   3.139  16.462  0.2826 -4.4442  3.3975
11736TIP3   OH256622   2.488   2.139  16.290  0.6562  0.6438  0.1819
11736TIP3    H156623   2.436   2.058  16.289  0.3558  0.8483 -0.4837
11736TIP3    H256624   2.577   2.110  16.270  0.4981  0.5182 -0.3327
11737TIP3   OH256625   2.211   1.078   1.078  0.0969 -0.1834 -0.2003
11737TIP3    H156626   2.211   1.056   1.172 -2.6627  0.3689 -0.0349
11737TIP3    H256627   2.185   0.996   1.035  0.7245 -0.2579 -0.4383
11738TIP3   OH256628   1.706   1.327   4.080 -0.5364  0.1401 -0.0335
11738TIP3    H156629   1.763   1.400   4.104  0.6139 -0.9259  0.5064
11738TIP3    H256630   1.661   1.303   4.161  0.7701 -1.2037  0.3164
11739TIP3   OH256631   2.241   1.275  12.059  0.2540 -0.1093 -0.0527
11739TIP3    H156632   2.332   1.304  12.063  0.2393 -0.1320  0.5727
11739TIP3    H256633   2.209   1.286  12.149 -0.6414  0.8223 -0.4689
11740TIP3   OH256634   3.096   6.410  16.741 -0.8341  0.2069 -0.0816
11740TIP3    H156635   3.064   6.348  16.806 -2.5638  1.3621  0.1948
11740TIP3    H256636   3.133   6.482  16.792  1.5833 -0.7467 -0.3960
11741TIP3   OH256637   1.444   0.762   4.395  0.0877 -0.0800  0.0123
11741TIP3    H156638   1.437   0.786   4.303  0.5530  0.4368  0.1114
11741TIP3    H256639   1.534   0.787   4.420  0.0522 -0.4622  0.5294
11742TIP3   OH256640   0.311   0.833   1.290 -0.5563  1.0029  0.2128
11742TIP3    H156641   0.375   0.881   1.238  1.9417  0.2097  2.4248
11742TIP3    H256642   0.299   0.750   1.244  0.3323  0.9938 -0.0085
11743TIP3   OH256643   0.262   5.431   1.807 -0.0045  0.1112 -0.1071
11743TIP3    H156644   0.278   5.347   1.764  1.1381  1.1396 -1.7560
11743TIP3    H256645   0.336   5.441   1.867  0.2344  0.2619 -0.4256
11744TIP3   OH256646   3.933   6.213  12.732 -0.0515  0.4189 -0.0624
11744TIP3    H156647   3.860   6.271  12.753 -0.5684 -0.4318  0.5210
11744TIP3    H256648   4.011   6.267  12.744 -0.4643  0.6770  1.6654
11745TIP3   OH256649   6.098   6.304  16.919  0.1553 -0.3680  0.4795
11745TIP3    H156650   6.150   6.372  16.961 -0.3637 -0.0764  0.6553
11745TIP3    H256651   6.061   6.346  16.842  0.7617 -0.7822 -0.0452
11746TIP3   OH256652   5.941   3.306   1.310 -0.1950 -0.3144  0.2884
11746TIP3    H156653   5.943   3.255   1.229  1.5459  1.3382 -0.7697
11746TIP3    H256654   5.989   3.252   1.373  2.6591  0.4243 -1.1370
11747TIP3   OH256655   3.801   0.684  12.629 -0.2735 -0.0116 -0.0719
11747TIP3    H156656   3.764   0.673  12.717 -0.8679 -0.9235 -0.4353
11747TIP3    H256657   3.804   0.779  12.617  0.1880  0.1367  1.0903
11748TIP3   OH256658   0.410   5.361   2.558  0.0190 -0.0164 -0.2648
11748TIP3    H156659   0.321   5.390   2.539  0.3102  0.3310 -1.1411
11748TIP3    H256660   0.438   5.416   2.631  0.0477  0.9249 -0.9725
11749TIP3   OH256661   4.419   4.983   3.776 -0.3091 -0.1890  0.4974
11749TIP3    H156662   4.345   5.032   3.740 -1.0004 -0.9772  0.8497
11749TIP3    H256663   4.425   5.012   3.867  0.6109  0.8074  0.1362
11750TIP3   OH256664   0.362   0.111   1.270 -0.8920 -0.1730 -0.1968
11750TIP3    H156665   0.438   0.149   1.224 -1.0608 -0.0912 -0.4111
11750TIP3    H256666   0.336   0.178   1.332 -0.1542 -0.6138  0.5976
11751TIP3   OH256667   3.756   2.764  13.721 -0.2012 -0.3482  0.6919
11751TIP3    H156668   3.738   2.827  13.791 -2.2615 -1.4471  1.2038
11751TIP3    H256669   3.750   2.678  13.764  2.7100 -0.9325  0.0464
11752TIP3   OH256670   4.939   6.538   4.891  0.2654 -0.7038 -0.5283
11752TIP3    H156671   5.032   6.515   4.891  0.4006 -0.1616 -0.3170
11752TIP3    H256672   4.934   6.618   4.837 -0.1914 -1.1901 -1.2152
11753TIP3   OH256673   5.313   0.880   5.733 -0.1971  0.2595  0.4808
11753TIP3    H156674   5.254   0.947   5.768 -0.2788 -0.8433  2.6009
11753TIP3    H256675   5.274   0.797   5.763  2.1453 -0.5065  1.5153
11754TIP3   OH256676   2.629   4.271   5.300  0.4215  0.0519  0.0395
11754TIP3    H156677   2.705   4.309   5.343  0.8793 -2.2810  1.3883
11754TIP3    H256678   2.628   4.180   5.329 -0.4127 -1.0988 -3.3074
11755TIP3   OH256679   4.762   2.896  16.781  0.3239  0.0691 -0.2714
11755TIP3    H156680   4.725   2.980  16.808  1.4209  0.7684 -0.9048
11755TIP3    H256681   4.733   2.885  16.690  1.1920  0.3506 -0.5855
11756TIP3   OH256682   2.367   6.143   4.184 -0.2612 -0.5019 -0.4551
11756TIP3    H156683   2.461   6.157   4.190 -0.0254 -2.3066  0.1478
11756TIP3    H256684   2.329   6.230   4.197  1.2729  0.0380  0.5060
11757TIP3   OH256685   0.288   3.219  13.433 -0.1531  0.6534 -0.0289
11757TIP3    H156686   0.329   3.288  13.484  0.4233  0.2396  0.0801
11757TIP3    H256687   0.220   3.183  13.490  0.3823  0.3006  0.3804
11758TIP3   OH256688   5.632   2.908  15.330 -0.2431  0.5877  0.4613
11758TIP3    H156689   5.612   2.888  15.239  0.8354 -1.6632  0.6939
11758TIP3    H256690   5.657   3.000  15.329 -1.2312  0.8585 -1.3528
11759TIP3   OH256691   0.996   4.287  12.768  0.4666 -0.2522  0.3234
11759TIP3    H156692   0.972   4.377  12.792  2.5537  0.8616 -1.6581
11759TIP3    H256693   0.958   4.234  12.838 -2.4389  1.9625  0.5651
11760TIP3   OH256694   6.608   4.513  16.645  0.3248 -0.0977  0.1489
11760TIP3    H156695   6.567   4.486  16.727 -0.6246 -0.1102 -0.3323
11760TIP3    H256696   6.538   4.554  16.594  1.0907  0.6523 -0.3284
11761TIP3   OH256697   4.350   2.145  15.314 -0.7869 -0.0893  0.3671
11761TIP3    H156698   4.344   2.108  15.227 -1.9053  2.1907 -0.5611
11761TIP3    H256699   4.436   2.118  15.346  0.2848  0.3529 -2.0650
11762TIP3   OH256700   4.707   0.524   2.782 -0.0880  0.3755  0.0313
11762TIP3    H156701   4.672   0.595   2.728 -0.2604 -1.5436 -2.5355
11762TIP3    H256702   4.630   0.474   2.809  0.2307 -1.1506 -1.6892
11763TIP3   OH256703   2.888   4.790   3.213 -0.2662 -0.5605  0.4136
11763TIP3    H156704   2.850   4.834   3.137 -1.5908  0.8307  1.8525
11763TIP3    H256705   2.814   4.774   3.271  0.9239 -0.4302  1.9941
11764TIP3   OH256706   2.067   0.016   4.220 -0.2196 -0.3206  0.4129
11764TIP3    H156707   2.042   0.081   4.286 -2.0603 -0.8965  0.3257
11764TIP3    H256708   2.073  -0.066   4.269  1.8130 -0.1557  0.4708
11765TIP3   OH256709   2.157   4.244  16.397  0.3344  0.2623 -0.5224
11765TIP3    H156710   2.138   4.199  16.479  1.3735 -0.1180 -0.4837
11765TIP3    H256711   2.216   4.185  16.350 -0.9149  0.1066 -1.9002
11766TIP3   OH256712   2.658   2.887   5.353 -0.0862 -0.2962  0.3823
11766TIP3    H156713   2.656   2.837   5.272 -2.5074  0.1369  0.1590
11766TIP3    H256714   2.658   2.978   5.326  2.1682 -0.1217  0.8403
11767TIP3   OH256715   0.708   3.168   2.695  0.3235  0.0797 -0.4011
11767TIP3    H156716   0.641   3.100   2.689 -1.2021  1.5806 -0.9508
11767TIP3    H256717   0.785   3.124   2.732 -0.2965 -2.1567 -1.7058
11768TIP3   OH256718   6.186   3.528  15.192 -0.4700  0.4321 -0.4323
11768TIP3    H156719   6.154   3.555  15.279  1.8268  1.0318  0.2601
11768TIP3    H256720   6.245   3.456  15.210  2.0294  2.2173 -1.2195
11769TIP3   OH256721   4.838   2.103   5.573  0.3282 -0.0199 -0.9512
11769TIP3    H156722   4.912   2.056   5.614 -1.6851 -1.8395  0.7359
11769TIP3    H256723   4.827   2.181   5.627  0.6274 -0.0545 -0.8352
11770TIP3   OH256724   1.636   3.771   5.690 -0.2735 -0.2942  0.1873
11770TIP3    H156725   1.665   3.862   5.698 -0.2997 -0.0120 -2.6957
11770TIP3    H256726   1.712   3.724   5.658 -0.3799 -1.2447  1.2911
11771TIP3   OH256727   3.450   4.771  16.813 -0.0551  0.8367 -0.2189
11771TIP3    H156728   3.449   4.786  16.719  0.0675  1.1958 -0.1628
11771TIP3    H256729   3.380   4.706  16.828  1.1986 -0.6670 -0.7931
11772TIP3   OH256730   6.202   0.579   5.809 -0.6631 -0.2194  0.1030
11772TIP3    H156731   6.218   0.648   5.873  2.7185 -2.5350  1.9386
11772TIP3    H256732   6.169   0.505   5.860 -2.7412 -0.5403 -1.5987
11773TIP3   OH256733   0.500   2.511  10.805  0.3667  0.4268  0.2163
11773TIP3    H156734   0.528   2.514  10.896 -0.3644  0.9001  0.4306
11773TIP3    H256735   0.428   2.447  10.803  1.9948 -1.4310 -0.4913
11774TIP3   OH256736   5.224   1.154  15.559  0.5141 -0.3485 -0.1642
11774TIP3    H156737   5.272   1.229  15.525 -0.5277  1.4164  2.1764
11774TIP3    H256738   5.146   1.149  15.504  1.0918 -0.3967 -0.9985
11775TIP3   OH256739   1.146   1.265   0.172  0.2091  0.1950  0.0264
11775TIP3    H156740   1.089   1.188   0.181 -1.2546  1.3558  0.8700
11775TIP3    H256741   1.202   1.261   0.250  1.9970 -1.4731 -1.2778
11776TIP3   OH256742   3.197   4.471  14.633 -0.4011  0.0315 -0.1056
11776TIP3    H156743   3.146   4.525  14.694 -0.7753 -0.9802  0.4790
11776TIP3    H256744   3.140   4.460  14.557 -1.0521 -1.0801  0.5390
11777TIP3   OH256745   0.927   1.110   3.349 -0.8843 -0.1591 -0.8828
11777TIP3    H156746   0.970   1.033   3.311 -0.2388 -0.3291  0.1552
11777TIP3    H256747   0.896   1.079   3.434  1.2751  1.2798  0.4907
11778TIP3   OH256748   0.844   0.857   0.083 -0.1046  0.0452 -0.2083
11778TIP3    H156749   0.768   0.915   0.090  0.3351  0.6919 -0.7243
11778TIP3    H256750   0.807   0.769   0.085 -0.6361  0.2987  2.4542
11779TIP3   OH256751   4.034   2.265  16.434 -0.3368  0.5194  0.3381
11779TIP3    H156752   4.102   2.234  16.493 -1.7484  0.3472  1.9118
11779TIP3    H256753   4.007   2.187  16.385  0.4333  0.5412 -0.1135
11780TIP3   OH256754   3.617   4.242  15.982  0.2919 -0.1714 -0.1913
11780TIP3    H156755   3.599   4.182  16.055 -1.9979 -0.9809 -1.3752
11780TIP3    H256756   3.572   4.323  16.007 -1.2001 -0.7134 -1.0418
11781TIP3   OH256757   0.249   2.374  14.856  0.5087  0.1156 -0.0798
11781TIP3    H156758   0.311   2.426  14.805  1.4660  0.2968  1.2622
11781TIP3    H256759   0.217   2.434  14.923 -1.0134 -0.0240 -0.6674
11782TIP3   OH256760   3.321   0.070  12.308  0.1026 -0.9495 -0.4081
11782TIP3    H156761   3.309   0.081  12.403  0.0672  2.6157 -0.7378
11782TIP3    H256762   3.236   0.092  12.271  1.0048  0.9132 -1.4236
11783TIP3   OH256763   1.466   0.587   0.056  0.5903 -0.3330 -0.3949
11783TIP3    H156764   1.464   0.655  -0.012 -1.8728  0.3915  0.3463
11783TIP3    H256765   1.500   0.510   0.011  1.5909  0.8574 -1.7427
11784TIP3   OH256766   5.152   1.274  10.997 -0.1969 -0.2966  0.1433
11784TIP3    H156767   5.116   1.294  10.911  0.7245 -0.3710 -0.2597
11784TIP3    H256768   5.187   1.357  11.029  1.3927 -0.7038 -0.4788
11785TIP3   OH256769   6.378   3.263  12.063 -0.0592  0.5529 -0.0636
11785TIP3    H156770   6.318   3.301  12.128  2.5225  0.1621  2.6756
11785TIP3    H256771   6.437   3.208  12.115  1.0476 -1.1229 -2.9955
11786TIP3   OH256772   4.169   0.841  15.249 -0.2428  0.2547 -0.1965
11786TIP3    H156773   4.220   0.837  15.168  0.8930 -0.6500  0.5409
11786TIP3    H256774   4.153   0.934  15.263  0.6342  0.5045 -0.8111
11787TIP3   OH256775   0.526   0.708  14.873  0.3423  0.2258  0.5644
11787TIP3    H156776   0.589   0.654  14.920 -0.5432  0.1621  1.6936
11787TIP3    H256777   0.572   0.735  14.794  1.4533 -0.6040  0.9180
11788TIP3   OH256778   1.360   6.131   5.433  0.0381 -0.6000  0.5191
11788TIP3    H156779   1.358   6.085   5.350 -0.6469  1.6538 -0.7579
11788TIP3    H256780   1.452   6.155   5.445 -0.2578  1.4178 -0.9682
11789TIP3   OH256781   2.322   2.826  12.851 -0.2329 -0.7662 -0.2342
11789TIP3    H156782   2.312   2.747  12.796 -1.2164 -0.9978  0.2736
11789TIP3    H256783   2.237   2.870  12.845  0.1199 -0.0563 -0.0229
11790TIP3   OH256784   6.420   1.901   2.020  0.1813  0.3033 -0.1858
11790TIP3    H156785   6.375   1.854   1.950  1.1328 -2.2665  0.8623
11790TIP3    H256786   6.374   1.874   2.100  1.2386  0.5415  0.5092
11791TIP3   OH256787   2.575   5.862   6.306  0.1802  0.0484 -0.2622
11791TIP3    H156788   2.484   5.837   6.290 -0.1720  0.2259  1.3480
11791TIP3    H256789   2.588   5.843   6.399  1.1952  1.8525 -0.0249
11792TIP3   OH256790   3.548   3.080  12.465  0.0491 -0.3976  0.3590
11792TIP3    H156791   3.574   3.049  12.552 -0.8892  0.3576  0.9036
11792TIP3    H256792   3.621   3.135  12.437  1.6199 -2.8085 -0.5020
11793TIP3   OH256793   4.685   5.072   4.585 -0.5308 -0.5460 -0.1866
11793TIP3    H156794   4.639   4.993   4.558 -0.8382 -0.0341 -1.1914
11793TIP3    H256795   4.764   5.040   4.629 -2.0031 -1.4294  1.8856
11794TIP3   OH256796   0.562   0.086   2.199  0.5082  0.1631  0.1053
11794TIP3    H156797   0.547   0.018   2.264 -1.0715 -0.7475 -1.1621
11794TIP3    H256798   0.570   0.167   2.250  2.1441 -0.9006  1.6012
11795TIP3   OH256799   3.579   4.785   6.245 -0.0661  0.6582  0.6182
11795TIP3    H156800   3.582   4.690   6.250 -1.6794  0.5122 -0.6990
11795TIP3    H256801   3.546   4.813   6.330  1.2719  0.1086  1.3247
11796TIP3   OH256802   1.772   5.430   0.985 -0.1899 -0.4795 -0.1985
11796TIP3    H156803   1.831   5.496   0.948 -1.3101  0.6967  0.1005
11796TIP3    H256804   1.826   5.350   0.989  1.3359  0.5383 -0.0506
11797TIP3   OH256805   6.460   4.336  14.079  1.0267 -0.4983  0.0098
11797TIP3    H156806   6.452   4.256  14.027  0.8053 -0.3718 -0.1561
11797TIP3    H256807   6.461   4.307  14.170 -1.9668 -0.4936  0.0793
11798TIP3   OH256808   3.812   4.534   2.175  0.1619  0.3738  0.2419
11798TIP3    H156809   3.876   4.518   2.244  0.3340  1.7821  0.4230
11798TIP3    H256810   3.830   4.623   2.146  0.0594 -0.1748 -1.5993
11799TIP3   OH256811   3.139   3.468   4.936  0.5542  0.1910  0.3965
11799TIP3    H156812   3.195   3.481   5.012  0.1457  1.7884  0.4389
11799TIP3    H256813   3.199   3.467   4.862  0.8748 -0.6107  0.6617
11800TIP3   OH256814   2.438   5.408  16.966  0.3008  0.3240  0.4109
11800TIP3    H156815   2.376   5.335  16.974 -0.6823  1.1654  0.5376
11800TIP3    H256816   2.401   5.464  16.898 -0.7046  2.4088  2.5945
11801TIP3   OH256817   4.323   6.060  11.110  0.7781  0.5288  0.1927
11801TIP3    H156818   4.256   5.992  11.122  1.2576 -0.0940 -0.6178
11801TIP3    H256819   4.405   6.012  11.099  1.3861  1.2978  1.2864
11802TIP3   OH256820   1.580   5.275   0.205 -0.3700 -0.0721 -0.0938
11802TIP3    H156821   1.665   5.259   0.246 -0.7360 -2.7599 -0.3149
11802TIP3    H256822   1.602   5.298   0.114  0.1308 -1.0543 -0.2318
11803TIP3   OH256823   6.481   6.493   5.272  0.3443  0.2914 -0.2057
11803TIP3    H156824   6.572   6.496   5.302  0.6352  1.5112 -1.1526
11803TIP3    H256825   6.486   6.449   5.187  0.2985  1.9523 -1.0846
11804TIP3   OH256826   1.880   4.687  15.156  0.4438 -0.1338  0.2192
11804TIP3    H156827   1.856   4.683  15.249  0.7595  0.9636  0.3510
11804TIP3    H256828   1.855   4.775  15.128 -3.2227 -1.6906 -1.7399
11805TIP3   OH256829   4.070   1.280   3.437 -0.4287  0.5893 -0.3846
11805TIP3    H156830   3.992   1.334   3.450 -0.8328  0.1465 -0.9318
11805TIP3    H256831   4.062   1.248   3.347  0.8023  1.1930 -0.7181
11806TIP3   OH256832   0.970   3.061   4.827 -0.1193  0.6842 -0.5094
11806TIP3    H156833   1.024   3.128   4.869 -0.0637  0.6109 -0.4639
11806TIP3    H256834   0.914   3.110   4.767 -1.0554  0.9200  0.5482
11807TIP3   OH256835   3.514   1.499   5.519  0.1946 -0.2812  0.3849
11807TIP3    H156836   3.480   1.421   5.475  0.9766 -0.3171 -0.1674
11807TIP3    H256837   3.583   1.465   5.577  0.9418  0.0682 -0.2973
11808TIP3   OH256838   1.592   3.225  13.457 -0.5755 -0.1054  0.0385
11808TIP3    H156839   1.501   3.251  13.442 -0.4829 -0.4264 -1.0703
11808TIP3    H256840   1.590   3.179  13.541 -0.6577  3.9342  2.3810
11809TIP3   OH256841   4.363   5.754   4.843  0.5263 -0.7432 -0.0144
11809TIP3    H156842   4.358   5.678   4.786 -2.1921 -0.7230  0.1185
11809TIP3    H256843   4.366   5.829   4.783  0.3466 -0.8366 -0.1412
11810TIP3   OH256844   0.356   0.368   1.167  0.3788 -0.6350  0.3948
11810TIP3    H156845   0.358   0.385   1.073  1.2421 -0.9887  0.3364
11810TIP3    H256846   0.440   0.401   1.199  0.2417 -0.8466  0.9807
11811TIP3   OH256847   2.007   6.449   1.827 -0.7630 -0.0466  0.1343
11811TIP3    H156848   2.043   6.517   1.884 -0.1748 -0.4035  0.1987
11811TIP3    H256849   1.940   6.494   1.775 -3.1527 -0.2822  2.8968
11812TIP3   OH256850   2.273   6.136  14.040 -0.2399  0.0990  0.4395
11812TIP3    H156851   2.210   6.090  14.096 -0.4346  1.1213  1.0684
11812TIP3    H256852   2.309   6.205  14.096 -0.5624  1.2427 -0.7530
11813TIP3   OH256853   4.527   1.093   3.137 -0.4194 -0.3577 -0.3055
11813TIP3    H156854   4.548   1.012   3.183 -1.9623 -1.2035 -1.0937
11813TIP3    H256855   4.504   1.066   3.049  0.3864  1.0724 -0.9688
11814TIP3   OH256856   6.077   3.673  14.630  0.6743 -0.5620 -0.7157
11814TIP3    H156857   6.160   3.667  14.678 -0.9155  0.2903  2.3000
11814TIP3    H256858   6.057   3.767  14.630 -0.9042 -0.8800 -0.2274
11815TIP3   OH256859   6.539   2.571   1.406  0.6615 -0.1671 -0.1197
11815TIP3    H156860   6.484   2.493   1.406  0.6085 -0.1301  0.0352
11815TIP3    H256861   6.566   2.581   1.497 -0.1333  0.5583  0.0476
11816TIP3   OH256862   1.587   1.684  13.596  0.2343  0.8140  0.5310
11816TIP3    H156863   1.502   1.716  13.564  1.3930 -0.4120 -3.9917
11816TIP3    H256864   1.568   1.595  13.628 -0.2004  0.5948 -0.3274
11817TIP3   OH256865   1.188   0.796  13.124  0.1390 -0.4347  0.1475
11817TIP3    H156866   1.225   0.742  13.055  1.1685 -1.7552  1.7026
11817TIP3    H256867   1.217   0.755  13.206 -3.6200 -0.7787  1.4339
11818TIP3   OH256868   6.590   1.786   1.833  0.5324  0.3208 -0.2393
11818TIP3    H156869   6.664   1.735   1.867 -1.2527 -2.0682  0.2172
11818TIP3    H256870   6.546   1.821   1.910 -0.1082 -0.1682 -0.3752
11819TIP3   OH256871   3.535   6.266  12.610  0.1053  0.4549  0.1792
11819TIP3    H156872   3.494   6.333  12.665 -0.1183  0.9306 -0.5607
11819TIP3    H256873   3.623   6.254  12.648  0.1553  1.1795  0.2957
11820TIP3   OH256874   2.034   2.093  17.234  0.2002  0.3483 -0.1076
11820TIP3    H156875   1.977   2.166  17.259  0.4147  0.7539 -0.7861
11820TIP3    H256876   2.033   2.035  17.310 -0.3601  0.8194  0.2517
11821TIP3   OH256877   0.951   4.832  16.634  0.1026  0.5211  0.4027
11821TIP3    H156878   0.985   4.922  16.638  2.1085 -0.2461  1.5018
11821TIP3    H256879   0.967   4.797  16.722 -1.6741 -0.5791  0.3113
11822TIP3   OH256880   3.834   1.583  10.302  1.0116 -0.3640  0.6372
11822TIP3    H156881   3.783   1.502  10.307 -1.2198  0.7458 -2.1867
11822TIP3    H256882   3.784   1.646  10.353  0.6586  0.2016 -0.3975
11823TIP3   OH256883   6.434   0.588  14.906  0.1760 -0.3693  0.3317
11823TIP3    H156884   6.389   0.586  14.990  2.5699 -2.0016  1.6178
11823TIP3    H256885   6.513   0.639  14.922  1.5149 -2.1425 -0.4317
11824TIP3   OH256886   6.602   0.347  13.900  0.5809 -0.1644  0.1079
11824TIP3    H156887   6.639   0.261  13.919 -0.2587 -0.8929 -1.4184
11824TIP3    H256888   6.653   0.380  13.825 -0.2939 -0.1513 -0.4959
11825TIP3   OH256889   6.501   0.039  12.049  0.2361  0.0519 -0.5916
11825TIP3    H156890   6.426  -0.010  12.082 -0.9951  1.8079 -0.6894
11825TIP3    H256891   6.551   0.063  12.128  0.9652 -1.5172 -0.5660
11826TIP3   OH256892   4.902   5.891   1.113 -0.0148  1.3140 -0.0218
11826TIP3    H156893   4.814   5.907   1.079  0.0399  2.1846  0.2233
11826TIP3    H256894   4.955   5.871   1.036 -0.6710 -0.3478 -0.0465
11827TIP3   OH256895   6.054   1.442  11.609 -0.3606  0.0555 -0.1788
11827TIP3    H156896   6.114   1.501  11.562  0.3570 -0.5216 -0.0042
11827TIP3    H256897   6.061   1.359  11.563  0.0384 -0.4023  0.6940
11828TIP3   OH256898   1.750   2.627   1.780 -0.1778 -0.4377 -0.0190
11828TIP3    H156899   1.671   2.655   1.734 -0.9955 -2.9637 -0.2424
11828TIP3    H256900   1.722   2.616   1.871 -0.0721 -1.2370 -0.0799
11829TIP3   OH256901   0.299   1.075   2.162  0.6726  0.2624 -0.0885
11829TIP3    H156902   0.287   1.124   2.080 -2.2832 -0.2227  0.0281
11829TIP3    H256903   0.336   0.991   2.134 -0.1456  0.1672 -0.9042
11830TIP3   OH256904   6.448   6.290  10.956  0.0909 -0.0836  0.4569
11830TIP3    H156905   6.395   6.302  10.876 -0.0254 -2.5936  0.1248
11830TIP3    H256906   6.465   6.196  10.960  1.8930  0.2856  2.2815
11831TIP3   OH256907   0.980   2.708  11.629  0.2940  0.1983  0.0547
11831TIP3    H156908   0.970   2.782  11.689 -0.8461  0.4277 -0.4066
11831TIP3    H256909   1.067   2.719  11.592  0.1046  1.3530 -0.0729
11832TIP3   OH256910   0.241   1.916  12.285 -0.1182  0.6101 -0.1517
11832TIP3    H156911   0.254   1.924  12.379 -1.1931 -1.8208  0.2635
11832TIP3    H256912   0.236   2.006  12.253 -2.6919  1.5273  2.5770
11833TIP3   OH256913   5.583   4.008   1.498 -0.1928 -0.4513 -0.5813
11833TIP3    H156914   5.571   3.999   1.593  1.6853 -1.8344 -0.4431
11833TIP3    H256915   5.495   3.997   1.462 -1.1024  1.1590  1.0491
11834TIP3   OH256916   5.456   3.846  12.893  0.7433 -0.1584 -0.3740
11834TIP3    H156917   5.434   3.754  12.880  0.0813  0.0214 -0.5181
11834TIP3    H256918   5.386   3.880  12.949  0.8741  0.3120 -0.4911
11835TIP3   OH256919   5.452   6.554  16.634  0.6777  0.2092 -0.1089
11835TIP3    H156920   5.423   6.463  16.634 -1.0780  0.7503  1.9942
11835TIP3    H256921   5.389   6.599  16.578  0.0948  0.5748  0.8390
11836TIP3   OH256922   3.689   0.014   0.887  0.2186  0.3539 -0.2330
11836TIP3    H156923   3.737   0.039   0.966 -1.1485  0.9997  0.4062
11836TIP3    H256924   3.753  -0.036   0.836  1.1632  0.0338  1.2115
11837TIP3   OH256925   4.305   3.558  14.080 -0.1350 -0.9310  0.2836
11837TIP3    H156926   4.347   3.529  14.161 -1.0055 -2.5266  0.1911
11837TIP3    H256927   4.319   3.486  14.019  1.4664  0.7244 -1.3475
11838TIP3   OH256928   0.658   3.692  17.226 -0.6589  0.2024  0.4724
11838TIP3    H156929   0.657   3.611  17.277 -0.2083  0.1938  0.4748
11838TIP3    H256930   0.580   3.740  17.254 -0.8952 -0.2047  0.5136
11839TIP3   OH256931   1.510   6.346  11.688  0.4435  0.0115  0.5044
11839TIP3    H156932   1.488   6.380  11.775 -1.6721  0.8497 -0.3132
11839TIP3    H256933   1.503   6.422  11.631  2.7172 -0.3405 -0.2853
11840TIP3   OH256934   2.735   0.581   1.776  0.3647 -0.5003 -0.6428
11840TIP3    H156935   2.672   0.585   1.704 -0.1249  0.6535 -0.1626
11840TIP3    H256936   2.814   0.544   1.737  0.0992  0.1189 -1.7792
11841TIP3   OH256937   2.603   2.360  11.510 -0.2291  0.1736  0.2360
11841TIP3    H156938   2.545   2.403  11.448  0.7973 -0.9237 -1.5077
11841TIP3    H256939   2.582   2.267  11.504  0.6634 -0.0663  0.6714
11842TIP3   OH256940   1.983   0.524   5.151  0.0237  0.2192 -0.4690
11842TIP3    H156941   2.002   0.584   5.223 -0.7798 -0.0449 -0.0314
11842TIP3    H256942   2.045   0.452   5.163  1.3829  1.1965 -1.3224
11843TIP3   OH256943   5.488   0.670   4.163 -0.3344 -0.3610  0.3432
11843TIP3    H156944   5.533   0.705   4.086 -2.0410  1.0921 -0.0389
11843TIP3    H256945   5.396   0.665   4.136 -1.1397  1.2497  2.6200
11844TIP3   OH256946   3.041   0.930  14.070 -0.1100  0.5680 -0.2582
11844TIP3    H156947   2.968   0.972  14.115  0.1635 -0.1255  0.8664
11844TIP3    H256948   3.045   0.842  14.108  1.1450  0.5076 -0.4841
11845TIP3   OH256949   1.933   5.404  14.087 -0.0927  0.1499 -0.0953
11845TIP3    H156950   1.884   5.486  14.081  2.0793  1.2810 -3.5810
11845TIP3    H256951   2.019   5.430  14.121  0.3976 -0.7777 -0.6072
11846TIP3   OH256952   1.220   5.129   5.892  0.7360  0.2559  0.5165
11846TIP3    H156953   1.188   5.068   5.826  1.0119 -0.8096  1.3485
11846TIP3    H256954   1.179   5.212   5.870  3.3255  0.7397 -2.9007
11847TIP3   OH256955   4.001   1.328   1.369 -0.0182 -0.2479  0.3244
11847TIP3    H156956   3.968   1.349   1.281  0.0194  0.4427  0.4763
11847TIP3    H256957   4.059   1.253   1.355 -0.2485 -0.3360 -0.1959
11848TIP3   OH256958   2.525   5.479   3.073 -0.2074 -0.1310  0.0706
11848TIP3    H156959   2.573   5.520   3.001  0.4633  2.1294  1.7289
11848TIP3    H256960   2.455   5.429   3.031 -0.7473  2.3537 -2.0891
11849TIP3   OH256961   4.234   2.353  10.968  0.5572  0.2676 -0.7253
11849TIP3    H156962   4.204   2.434  10.927 -0.3425 -0.5179 -1.6182
11849TIP3    H256963   4.223   2.369  11.062  0.7459  1.3247 -0.8811
11850TIP3   OH256964   2.868   6.735   4.362 -0.7166 -0.1109 -0.4966
11850TIP3    H156965   2.936   6.668   4.359 -0.2625  0.3688 -0.8144
11850TIP3    H256966   2.888   6.787   4.440 -0.6877  0.0634 -0.6192
11851TIP3   OH256967   2.589   2.694   2.451  0.3056  0.2793  0.3546
11851TIP3    H156968   2.565   2.673   2.541  1.3130 -0.4558  0.4511
11851TIP3    H256969   2.603   2.609   2.409  2.7208  0.6692  0.2965
11852TIP3   OH256970   2.328   4.760  13.103 -0.0824 -0.4955  0.0912
11852TIP3    H156971   2.413   4.773  13.062 -0.3005 -0.1875 -0.2801
11852TIP3    H256972   2.311   4.842  13.150 -0.8832  0.0792 -1.1666
11853TIP3   OH256973   4.605   1.186   2.225 -0.2056  0.2308 -0.1012
11853TIP3    H156974   4.664   1.113   2.246  0.0881  0.4016 -0.3127
11853TIP3    H256975   4.598   1.183   2.129 -2.4718 -1.2777  0.0797
11854TIP3   OH256976   2.654   4.258  11.138  0.1788 -0.0269 -0.0087
11854TIP3    H156977   2.679   4.331  11.082  0.8861 -0.4244 -0.2253
11854TIP3    H256978   2.611   4.196  11.078  0.7840 -0.3773 -0.0902
11855TIP3   OH256979   2.632   3.255  12.785 -0.3155  0.1971 -0.1157
11855TIP3    H156980   2.631   3.210  12.701 -0.7625  0.6821 -0.3666
11855TIP3    H256981   2.685   3.199  12.841 -0.7991 -0.6038 -0.4568
11856TIP3   OH256982   3.498   4.710  15.791 -0.0875 -0.9314  0.1197
11856TIP3    H156983   3.456   4.682  15.710  0.5315 -0.7192 -0.2773
11856TIP3    H256984   3.458   4.794  15.812  0.8325 -0.2437 -0.7973
11857TIP3   OH256985   2.790   2.911  11.533 -0.1742 -0.3924  0.2822
11857TIP3    H156986   2.868   2.867  11.567  0.3441  0.3642  0.0811
11857TIP3    H256987   2.749   2.846  11.476 -0.0373 -1.0179  0.8868
11858TIP3   OH256988   5.349   5.417  11.561 -0.2986  0.3371  0.0098
11858TIP3    H156989   5.441   5.396  11.546 -0.0071  1.4092  0.3003
11858TIP3    H256990   5.308   5.409  11.475 -0.0677 -0.7844 -0.0002
11859TIP3   OH256991   6.566   1.726  10.663 -0.7099 -0.5517 -0.2549
11859TIP3    H156992   6.573   1.798  10.599  1.0520 -1.9693 -1.7073
11859TIP3    H256993   6.655   1.712  10.694 -1.2243 -1.3454  0.9154
11860TIP3   OH256994   4.041   0.652   5.129  0.1723  0.1020 -0.1625
11860TIP3    H156995   3.959   0.656   5.080  1.7043  1.1050 -2.7858
11860TIP3    H256996   4.066   0.560   5.127  0.9775  0.3156 -2.7407
11861TIP3   OH256997   3.667   6.356   6.704 -0.1008 -0.2863  0.2036
11861TIP3    H156998   3.658   6.264   6.680 -1.6377 -0.0947 -0.0388
11861TIP3    H256999   3.583   6.378   6.746  0.4365  0.8680  0.7046
11862TIP3   OH257000   6.579   6.182   0.162 -0.5394 -0.1517  0.4036
11862TIP3    H157001   6.646   6.181   0.230 -0.5126 -0.5584  0.3727
11862TIP3    H257002   6.511   6.241   0.195 -0.3531 -0.0582  0.6134
11863TIP3   OH257003   1.915   2.114  14.103  0.0646  0.1221 -0.0395
11863TIP3    H157004   1.981   2.057  14.143  0.4489  0.2029 -0.5525
11863TIP3    H257005   1.924   2.197  14.149  0.4690  0.1990 -0.2576
11864TIP3   OH257006   0.708   2.382   1.864 -0.1350 -0.6493  0.6740
11864TIP3    H157007   0.691   2.460   1.811 -0.4649 -0.1799  1.4668
11864TIP3    H257008   0.759   2.325   1.807 -2.6820 -1.2537 -1.0784
11865TIP3   OH257009   0.281   5.073   4.428  0.2289 -0.4307 -0.1237
11865TIP3    H157010   0.234   5.115   4.356 -1.3863 -3.3739 -0.8679
11865TIP3    H257011   0.310   5.145   4.483 -0.5976  1.7585 -2.4474
11866TIP3   OH257012   6.686   6.187   3.636  0.4031  0.5805  0.0594
11866TIP3    H157013   6.649   6.268   3.670  0.4288  0.2766  0.8189
11866TIP3    H257014   6.662   6.187   3.543  0.0701  1.2658  0.1414
11867TIP3   OH257015   5.767   2.604   0.050 -0.3442 -0.2129 -0.1246
11867TIP3    H157016   5.726   2.655   0.120  0.7027  1.2843 -0.5945
11867TIP3    H257017   5.850   2.648   0.033  0.1452 -1.5121 -1.2042
11868TIP3   OH257018   0.073   3.136  13.912  0.4708  0.1349 -0.3767
11868TIP3    H157019   0.151   3.192  13.909  0.9462 -0.5224 -0.6449
11868TIP3    H257020   0.093   3.071  13.979  0.2243 -0.1402 -0.5671
11869TIP3   OH257021   2.886   4.942   5.556  0.2173  0.7265  0.7266
11869TIP3    H157022   2.791   4.941   5.558  0.1727  2.3146  0.2299
11869TIP3    H257023   2.908   5.016   5.498  1.7395  0.2909  0.7162
11870TIP3   OH257024   2.090   6.120   1.262 -0.0990 -0.0137 -0.1913
11870TIP3    H157025   2.040   6.202   1.269 -0.9430 -0.6659  1.9058
11870TIP3    H257026   2.072   6.074   1.344  2.1084 -1.3296 -0.4028
11871TIP3   OH257027   5.327   1.489  17.181  0.0509  0.3648  0.3266
11871TIP3    H157028   5.293   1.421  17.240 -0.2912 -0.3821 -0.7244
11871TIP3    H257029   5.363   1.440  17.107  0.8942  1.2847  0.1360
11872TIP3   OH257030   2.213   6.549   2.555  0.0857  0.5884  0.1446
11872TIP3    H157031   2.251   6.637   2.551 -0.0618  0.6645  0.4871
11872TIP3    H257032   2.157   6.544   2.478 -1.3072  1.4308  1.0893
11873TIP3   OH257033   4.264   1.525  12.059 -0.3823 -0.0968  0.0829
11873TIP3    H157034   4.211   1.600  12.031 -0.2573 -0.4686 -1.1925
11873TIP3    H257035   4.325   1.510  11.986  1.6987  0.5185  1.6407
11874TIP3   OH257036   5.549   3.536  16.410  0.0146 -0.1303  0.1778
11874TIP3    H157037   5.610   3.504  16.476 -0.7224  0.5460  1.1982
11874TIP3    H257038   5.594   3.520  16.327  0.5796 -1.7919  0.7765
11875TIP3   OH257039   0.660   6.499  12.354  0.1795 -0.5535  0.6307
11875TIP3    H157040   0.570   6.527  12.335  0.2113 -0.6951  0.2687
11875TIP3    H257041   0.701   6.576  12.393  0.7479  0.4729 -1.8671
11876TIP3   OH257042   5.954   4.951   2.066  0.4748 -0.0480 -0.0904
11876TIP3    H157043   5.967   5.045   2.080 -0.7211 -0.0823  1.4626
11876TIP3    H257044   5.973   4.912   2.152  0.6261 -1.1885 -0.6416
11877TIP3   OH257045   3.455   3.368   2.707  0.1486 -0.2804 -0.6627
11877TIP3    H157046   3.391   3.413   2.652 -0.4048 -1.6703 -1.1722
11877TIP3    H257047   3.442   3.405   2.794  1.0781  1.9979 -1.4319
11878TIP3   OH257048   4.842   6.711  12.015 -0.3895 -0.1275 -0.4292
11878TIP3    H157049   4.761   6.668  12.044  0.0016 -0.1666  0.6234
11878TIP3    H257050   4.901   6.639  11.993 -0.8939 -0.0931 -1.9159
11879TIP3   OH257051   1.227   3.935  15.750 -0.1490 -0.1320  0.3732
11879TIP3    H157052   1.291   3.933  15.820 -0.2781 -1.0528  0.4756
11879TIP3    H257053   1.214   4.028  15.731  0.8739  0.0715  0.6544
11880TIP3   OH257054   0.702   6.307   0.494 -0.2185  0.6977  0.3745
11880TIP3    H157055   0.753   6.279   0.417 -0.8891  1.5060 -0.3769
11880TIP3    H257056   0.668   6.393   0.469 -0.7859  0.7787  1.4267
11881TIP3   OH257057   5.427   0.154  11.796  0.0139  0.0307  0.0411
11881TIP3    H157058   5.469   0.098  11.731 -0.8926 -0.2657 -0.3026
11881TIP3    H257059   5.410   0.236  11.750  0.1580  0.1241  0.1558
11882TIP3   OH257060   2.468   3.704  12.303 -0.5037 -0.0352  0.0681
11882TIP3    H157061   2.487   3.718  12.395  2.0119 -0.0244 -0.4097
11882TIP3    H257062   2.460   3.609  12.294  0.1617 -0.0973  0.1358
11883TIP3   OH257063   0.655   3.962   4.992 -0.4017  0.0941 -0.2768
11883TIP3    H157064   0.724   3.997   5.049 -0.8296  0.1793  0.1901
11883TIP3    H257065   0.656   3.868   5.009 -1.2558  0.2493  0.6796
11884TIP3   OH257066   3.909   4.195  16.157  0.3865  0.2964  0.9012
11884TIP3    H157067   3.988   4.149  16.129  0.7387  1.0216  0.6742
11884TIP3    H257068   3.837   4.135  16.136  0.7986  0.0490  0.1873
11885TIP3   OH257069   1.269   0.753   5.653  0.2638 -0.4338  0.2206
11885TIP3    H157070   1.232   0.664   5.655  1.2194 -0.8320  0.3266
11885TIP3    H257071   1.266   0.782   5.744 -1.0568  0.0675  0.0245
11886TIP3   OH257072   2.463   2.752  14.965 -0.2322 -0.3950 -0.2893
11886TIP3    H157073   2.541   2.724  14.916  0.0433  0.2956 -0.2466
11886TIP3    H257074   2.469   2.847  14.967  0.2259 -0.4655  1.8983
11887TIP3   OH257075   4.500   3.798  11.298 -0.0408  0.3329 -0.1841
11887TIP3    H157076   4.412   3.830  11.317 -1.0212 -2.0405 -0.4790
11887TIP3    H257077   4.488   3.733  11.229  2.2636  1.6690 -1.9106
11888TIP3   OH257078   2.845   1.806   3.395 -0.2752  0.1018  0.0232
11888TIP3    H157079   2.795   1.789   3.475  0.3179 -0.5518  0.2597
11888TIP3    H257080   2.806   1.886   3.359  0.3598  1.2254  1.7172
11889TIP3   OH257081   0.127   1.542   2.372 -0.0567 -0.1080 -0.6409
11889TIP3    H157082   0.185   1.511   2.303  0.1235  0.9942 -0.9844
11889TIP3    H257083   0.172   1.618   2.409 -0.2608 -0.5462  0.5295
11890TIP3   OH257084   0.042   0.374   4.991  0.6097  0.3341 -0.0304
11890TIP3    H157085   0.085   0.448   4.949  1.8523 -0.3430  0.0214
11890TIP3    H257086   0.071   0.298   4.942  1.2310 -0.3571  1.3797
11891TIP3   OH257087   4.253   0.525   0.728  0.1589 -0.2119 -0.1882
11891TIP3    H157088   4.198   0.457   0.689  0.7046 -1.1492  0.6600
11891TIP3    H257089   4.342   0.488   0.726  0.4283  0.3785  0.4856
11892TIP3   OH257090   4.815   4.023   3.866 -0.4196  0.2191  0.5147
11892TIP3    H157091   4.725   3.993   3.851 -0.3540 -0.4019  1.3301
11892TIP3    H257092   4.805   4.103   3.918 -0.4953  0.0859  0.7056
11893TIP3   OH257093   3.970   2.779   3.129  0.4967  0.2645  0.1701
11893TIP3    H157094   3.979   2.696   3.175  0.2423 -0.0064 -0.2668
11893TIP3    H257095   4.045   2.782   3.070  1.2957  1.0030  1.2029
11894TIP3   OH257096   3.176   5.151   3.953  0.3026 -0.4984 -0.1518
11894TIP3    H157097   3.202   5.108   3.872  2.7695 -0.5015  0.5817
11894TIP3    H257098   3.166   5.079   4.016 -1.3227 -0.4725 -0.3554
11895TIP3   OH257099   1.790   4.499   5.008  0.7991 -0.0195  0.5622
11895TIP3    H157100   1.729   4.445   5.058  0.8492 -0.3045  0.3177
11895TIP3    H257101   1.738   4.574   4.981  0.6858 -0.0232  0.7679
11896TIP3   OH257102   1.073   0.639  14.439 -0.5601 -0.1983 -0.1809
11896TIP3    H157103   1.065   0.676  14.527 -0.0674 -0.9711  0.1973
11896TIP3    H257104   1.071   0.544  14.453 -1.6848 -0.3250 -1.1177
11897TIP3   OH257105   3.150   0.557   3.770 -0.2352  0.3287 -0.0189
11897TIP3    H157106   3.196   0.523   3.694 -0.7449 -1.9042  0.6549
11897TIP3    H257107   3.210   0.544   3.843 -0.2927  1.2326  0.2071
11898TIP3   OH257108   1.740   4.104  12.457 -0.8863 -0.3181 -0.0650
11898TIP3    H157109   1.712   4.069  12.541 -0.6822 -2.2844 -0.8007
11898TIP3    H257110   1.659   4.133  12.414 -1.0588  0.0916  0.5378
11899TIP3   OH257111   4.836   1.377  11.483  0.3213  0.0290 -0.3344
11899TIP3    H157112   4.858   1.461  11.444  1.3082  0.5778  1.3104
11899TIP3    H257113   4.909   1.359  11.543  0.8089 -2.6520 -1.6560
11900TIP3   OH257114   3.983   2.108  11.771 -0.4765  0.0723  0.4899
11900TIP3    H157115   4.031   2.096  11.853 -1.0763 -1.4546  0.6241
11900TIP3    H257116   3.898   2.142  11.798 -1.0853 -1.5226  0.5872
11901TIP3   OH257117   0.967   1.092   1.339 -0.0571 -0.2287 -0.0048
11901TIP3    H157118   0.921   1.011   1.317 -1.5168  0.7925 -0.8494
11901TIP3    H257119   1.035   1.100   1.272  0.4210 -0.9931  0.3754
11902TIP3   OH257120   2.843   6.309   5.667  0.4351 -0.5971 -0.1838
11902TIP3    H157121   2.784   6.362   5.614  0.1481  1.0740  1.7692
11902TIP3    H257122   2.785   6.259   5.725  0.8356 -1.0171 -0.1374
11903TIP3   OH257123   4.469   1.012   4.373 -0.6325 -0.1542  0.5276
11903TIP3    H157124   4.429   1.021   4.459  1.2533  2.0219  1.2415
11903TIP3    H257125   4.540   0.949   4.385  0.4290  1.0876  0.8970
11904TIP3   OH257126   5.108   0.199  12.385 -0.6128 -0.3013  0.2816
11904TIP3    H157127   5.150   0.158  12.461 -1.1151 -0.5858  0.4081
11904TIP3    H257128   5.098   0.128  12.321  0.4878  0.0994 -0.3466
11905TIP3   OH257129   0.906   0.422   4.288  0.1258 -0.2158  0.4098
11905TIP3    H157130   0.936   0.414   4.378 -0.5380  0.1318  0.6605
11905TIP3    H257131   0.974   0.377   4.236  0.5630 -0.3129  1.0625
11906TIP3   OH257132   1.526   3.043  12.423 -0.2314  0.2506 -0.2630
11906TIP3    H157133   1.541   3.046  12.517 -0.9273  1.0648 -0.1719
11906TIP3    H257134   1.434   3.067  12.413 -0.6884 -1.7724 -1.0108
11907TIP3   OH257135   0.434   0.112  15.022 -0.0851 -0.5090  0.5597
11907TIP3    H157136   0.418   0.206  15.025  2.1553  0.0693 -2.4406
11907TIP3    H257137   0.360   0.077  14.972  0.9583  0.2450 -1.5888
11908TIP3   OH257138   6.022   2.311  12.586 -0.4042  0.5409  0.4268
11908TIP3    H157139   6.031   2.277  12.497 -0.0221  0.7060  0.4016
11908TIP3    H257140   6.009   2.232  12.640  0.9517  0.3025  0.4257
11909TIP3   OH257141   1.958   6.263   4.684  0.1537  0.0563 -0.1405
11909TIP3    H157142   1.951   6.313   4.765  1.5389  1.0092 -0.5931
11909TIP3    H257143   2.043   6.288   4.647 -1.4371  1.4412 -3.0738
11910TIP3   OH257144   3.788   2.196   1.828 -0.4869 -0.0205  0.5491
11910TIP3    H157145   3.785   2.189   1.732  1.2812  0.6026  0.4261
11910TIP3    H257146   3.726   2.266   1.848 -2.4511 -1.5741  0.0611
11911TIP3   OH257147   0.650   5.597   4.940  0.4098 -0.9949 -0.2929
11911TIP3    H157148   0.696   5.680   4.923 -0.4137 -0.1782  1.3579
11911TIP3    H257149   0.671   5.577   5.031 -0.3062 -2.0354 -0.3588
11912TIP3   OH257150   5.781   3.416  16.560  0.6448 -0.8460  0.1510
11912TIP3    H157151   5.862   3.459  16.587  0.3855 -0.2928  0.0562
11912TIP3    H257152   5.805   3.366  16.482  0.4270  1.0762 -1.2088
11913TIP3   OH257153   1.500   1.880   1.515 -0.0935  0.0720 -0.0601
11913TIP3    H157154   1.410   1.849   1.514 -0.6035  1.4466  1.3023
11913TIP3    H257155   1.530   1.864   1.605  1.2455 -0.9449 -0.6586
11914TIP3   OH257156   6.709   5.517   2.231  0.3062 -0.2588 -0.2872
11914TIP3    H157157   6.730   5.449   2.295  0.9458 -0.5671 -0.8176
11914TIP3    H257158   6.761   5.494   2.154  0.3071  0.6690 -0.5683
11915TIP3   OH257159   1.399   3.678   0.035 -0.1645 -0.3659  0.7005
11915TIP3    H157160   1.326   3.656  -0.023  0.4059 -0.4770  0.0175
11915TIP3    H257161   1.384   3.770   0.059  0.6066  0.2430 -1.1238
11916TIP3   OH257162   3.649   6.266  14.686  0.1302  0.9825 -0.4403
11916TIP3    H157163   3.710   6.301  14.750 -0.6333  0.9436  0.3233
11916TIP3    H257164   3.701   6.206  14.633  0.9618  1.6612 -0.4144
11917TIP3   OH257165   6.259   5.885  15.417  0.0780  0.0689  0.1001
11917TIP3    H157166   6.339   5.853  15.459  1.1642  1.7630 -0.6299
11917TIP3    H257167   6.222   5.808  15.374  0.1759 -1.1940  2.1995
11918TIP3   OH257168   2.354   3.153  14.364 -0.6928  0.1716  0.4285
11918TIP3    H157169   2.365   3.123  14.273  0.0198 -0.0102  0.5717
11918TIP3    H257170   2.424   3.109  14.412  0.4998  2.2398  0.6041
11919TIP3   OH257171   3.977   6.096  14.892 -0.0687 -0.4953  0.0754
11919TIP3    H157172   3.894   6.052  14.912 -0.3389 -0.2031 -0.3773
11919TIP3    H257173   4.024   6.034  14.836 -1.0511  0.3413 -1.7389
11920TIP3   OH257174   3.893   1.244   4.492  0.0744 -0.8348  0.1272
11920TIP3    H157175   3.833   1.188   4.541 -0.3102 -0.7748 -0.2694
11920TIP3    H257176   3.976   1.238   4.539  0.3225 -2.5557 -0.4891
11921TIP3   OH257177   3.625   0.081   2.548 -0.4488  0.0475 -0.3560
11921TIP3    H157178   3.630  -0.015   2.549  0.8984  0.1162  0.6615
11921TIP3    H257179   3.553   0.100   2.488 -1.4887 -1.6411  0.3065
11922TIP3   OH257180   5.986   5.848  16.917 -0.7512  0.1391 -0.0872
11922TIP3    H157181   6.059   5.899  16.881 -0.5443 -0.7176 -0.8836
11922TIP3    H257182   5.996   5.856  17.012  0.4300 -0.0492 -0.1951
11923TIP3   OH257183   0.210   0.523  16.687 -0.0837 -0.5293  0.1800
11923TIP3    H157184   0.198   0.462  16.759 -1.0276 -0.6803 -0.0996
11923TIP3    H257185   0.155   0.488  16.616  0.0687  0.1505 -0.2808
11924TIP3   OH257186   1.626   2.032   3.790  0.1676  0.3846  0.6470
11924TIP3    H157187   1.647   2.061   3.878  3.2620  0.1272  0.0394
11924TIP3    H257188   1.688   1.962   3.772  1.0793  1.8809 -2.4847
11925TIP3   OH257189   1.054   5.805   4.699  0.1891 -0.0397 -0.1316
11925TIP3    H157190   1.143   5.787   4.668  0.6846  0.2303  1.1030
11925TIP3    H257191   1.019   5.719   4.723  1.1205  0.1392  1.9818
11926TIP3   OH257192   4.330   1.649  14.318 -0.4142 -0.2356  0.3948
11926TIP3    H157193   4.282   1.634  14.399  0.2904 -0.3891  0.7895
11926TIP3    H257194   4.263   1.656  14.250 -0.9836 -0.4266  0.9448
11927TIP3   OH257195   4.775   1.169  11.312 -0.2273  0.3075  0.1970
11927TIP3    H157196   4.780   1.094  11.371  0.2511  0.5851  0.5145
11927TIP3    H257197   4.819   1.240  11.359  0.2907  0.4928 -0.5479
11928TIP3   OH257198   3.503   6.174   5.821  0.4628  0.1064  0.3099
11928TIP3    H157199   3.597   6.177   5.803  0.2995  3.8710 -0.4203
11928TIP3    H257200   3.495   6.204   5.912  0.0765 -2.1354  1.0363
11929TIP3   OH257201   6.279   6.229   2.567 -0.4073  0.0712 -0.5355
11929TIP3    H157202   6.373   6.209   2.570 -0.1473  1.2477 -0.8499
11929TIP3    H257203   6.244   6.189   2.646  0.5877  0.8260  0.2950
11930TIP3   OH257204   2.856   1.893  14.651 -0.1544  0.2437 -0.2326
11930TIP3    H157205   2.872   1.800  14.635  1.3042  0.4030  0.1944
11930TIP3    H257206   2.791   1.895  14.721  0.0657 -0.4559 -0.0065
11931TIP3   OH257207   4.007   4.554  12.878  0.3000 -0.5393  0.0275
11931TIP3    H157208   3.978   4.463  12.881 -0.3704 -0.3896 -1.4856
11931TIP3    H257209   3.968   4.590  12.798  0.7811  1.0013  0.4522
11932TIP3   OH257210   6.342   3.904  14.235 -0.3360  0.2027  0.1740
11932TIP3    H157211   6.321   3.998  14.233 -0.7495  0.1171  0.4842
11932TIP3    H257212   6.316   3.875  14.322  0.2366 -0.1046  0.2488
11933TIP3   OH257213   0.393   3.241   0.557 -0.0170  0.0225  0.2796
11933TIP3    H157214   0.405   3.146   0.554 -0.3056 -0.0309  0.8123
11933TIP3    H257215   0.339   3.261   0.480 -0.0740 -0.2607  0.2472
11934TIP3   OH257216   0.883   6.567   1.916  0.1462 -0.5816  0.3129
11934TIP3    H157217   0.961   6.612   1.884 -0.2229 -0.1975 -0.0461
11934TIP3    H257218   0.812   6.630   1.903 -0.0140 -0.4171  1.8469
11935TIP3   OH257219   4.300   0.427  13.929 -0.5576 -0.6003  0.0930
11935TIP3    H157220   4.328   0.337  13.941  0.7696 -0.2401 -0.2567
11935TIP3    H257221   4.301   0.464  14.017  1.3271 -0.2428 -0.0465
11936TIP3   OH257222   6.079   1.087   1.597  0.1280  0.6706 -0.4401
11936TIP3    H157223   6.133   1.165   1.580  1.1918  0.0901  0.2053
11936TIP3    H257224   6.140   1.014   1.589 -0.7910 -0.0726 -0.6806
11937TIP3   OH257225   0.489   2.919   3.201  0.6927 -0.3921  0.0536
11937TIP3    H157226   0.505   2.825   3.197  0.6821 -0.4861  2.1076
11937TIP3    H257227   0.550   2.956   3.137  2.4364 -1.5731  1.0054
11938TIP3   OH257228   1.368   5.473  16.072  0.1447 -0.4926  0.4112
11938TIP3    H157229   1.346   5.532  16.000 -0.1216  0.4665  1.2673
11938TIP3    H257230   1.399   5.393  16.030 -0.2237 -0.0140 -0.7624
11939TIP3   OH257231   5.542   2.299   5.894 -0.6050 -0.2675 -0.8152
11939TIP3    H157232   5.596   2.327   5.968 -0.6249  1.1313 -1.2992
11939TIP3    H257233   5.558   2.206   5.886 -0.5100 -0.4217  0.8836
11940TIP3   OH257234   0.865   1.568   5.414 -0.2194  0.1432 -0.2611
11940TIP3    H157235   0.928   1.500   5.437 -0.7620  0.2889  1.7414
11940TIP3    H257236   0.913   1.650   5.423 -0.6369  0.2480  1.1677
11941TIP3   OH257237   5.959   2.903   3.942 -0.9641 -0.4658 -0.8467
11941TIP3    H157238   6.040   2.857   3.964 -0.7334 -0.3330 -1.4225
11941TIP3    H257239   5.909   2.839   3.890 -1.4483 -0.7292 -0.0712
11942TIP3   OH257240   5.267   2.950  16.258  0.2778 -0.2619 -0.0130
11942TIP3    H157241   5.231   3.031  16.294  0.5381  0.2675 -0.9260
11942TIP3    H257242   5.343   2.978  16.206  1.4525 -1.2582  1.1162
11943TIP3   OH257243   2.707   6.250  17.046 -0.9130 -0.3032 -0.2044
11943TIP3    H157244   2.643   6.313  17.079 -2.2617 -0.5254 -2.3290
11943TIP3    H257245   2.658   6.170  17.033  0.3570 -1.2187  0.4971
11944TIP3   OH257246   4.498   3.817  14.315  0.2191 -0.5352 -0.0735
11944TIP3    H157247   4.414   3.835  14.357  1.1711  0.4317  1.4470
11944TIP3    H257248   4.480   3.827  14.221 -1.0294  1.1110  0.3153
11945TIP3   OH257249   6.466   2.648  16.772  0.6040  0.1695 -0.3047
11945TIP3    H157250   6.434   2.565  16.736 -0.7308  0.5683 -0.0628
11945TIP3    H257251   6.427   2.652  16.859 -0.0735  1.4588 -0.6526
11946TIP3   OH257252   0.583   3.393  14.585  0.3095 -0.4576  0.7125
11946TIP3    H157253   0.495   3.361  14.563  0.9485 -0.8787 -1.2738
11946TIP3    H257254   0.623   3.416  14.501  1.7348  0.7050  1.6903
11947TIP3   OH257255   5.172   1.593   0.804 -0.1692 -0.1079 -0.1892
11947TIP3    H157256   5.112   1.648   0.854 -0.0935 -0.9174  0.8168
11947TIP3    H257257   5.125   1.572   0.723 -0.8208  0.1184  0.1359
11948TIP3   OH257258   6.147   3.352   3.300 -0.2880  0.2609  0.2317
11948TIP3    H157259   6.083   3.292   3.338 -1.4079  0.9894 -0.4950
11948TIP3    H257260   6.194   3.388   3.375 -0.5965 -0.4242  0.7536
11949TIP3   OH257261   6.077   6.295  16.616  0.1076 -0.0681  0.6738
11949TIP3    H157262   6.021   6.367  16.644  1.7647  1.2991  0.5437
11949TIP3    H257263   6.063   6.289  16.521  0.5499  0.6091  0.5619
11950TIP3   OH257264   3.331   5.305   1.494  0.3480  0.5022 -0.1859
11950TIP3    H157265   3.375   5.249   1.429  0.4255  1.3714 -0.8830
11950TIP3    H257266   3.284   5.370   1.442 -0.7463  0.3494  0.5997
11951TIP3   OH257267   1.898   5.796  12.049  0.1151  0.1158 -0.2650
11951TIP3    H157268   1.865   5.717  12.092  1.0064 -0.6611 -0.9948
11951TIP3    H257269   1.844   5.805  11.971  0.8096 -0.4691 -0.8201
11952TIP3   OH257270   2.521   4.524   5.228 -0.1919 -0.2898 -0.2838
11952TIP3    H157271   2.508   4.435   5.259  1.3845 -0.8376 -1.1810
11952TIP3    H257272   2.557   4.571   5.304 -0.8503 -0.4392  0.1301
11953TIP3   OH257273   2.039   2.885   2.494  0.0884  0.7079  0.2657
11953TIP3    H157274   1.988   2.942   2.436  0.9576  0.7016 -0.5166
11953TIP3    H257275   2.121   2.932   2.508 -0.3080  0.9455  1.9148
11954TIP3   OH257276   1.161   5.325   1.654  0.1061 -0.7111 -0.1800
11954TIP3    H157277   1.087   5.384   1.668 -0.2761 -1.1982 -0.0942
11954TIP3    H257278   1.170   5.318   1.559  0.4697 -0.1248 -0.1863
11955TIP3   OH257279   6.668   1.125   5.082  0.3742 -0.0845 -0.2645
11955TIP3    H157280   6.576   1.151   5.083  1.0810  2.5971 -0.3114
11955TIP3    H257281   6.703   1.158   5.164  1.6619  0.3266 -0.9652
11956TIP3   OH257282   0.440   3.599  15.253  0.6132 -0.3190 -0.0055
11956TIP3    H157283   0.372   3.591  15.320  0.6660 -1.9322 -0.1233
11956TIP3    H257284   0.507   3.655  15.293 -0.5538  0.8761  0.2894
11957TIP3   OH257285   1.222   0.728  11.942 -0.1876  0.4275  0.9153
11957TIP3    H157286   1.181   0.679  11.871  1.8098 -0.5198  0.3744
11957TIP3    H257287   1.316   0.711  11.932  0.1810  0.7277  3.4513
11958TIP3   OH257288   2.222   1.462  16.098 -0.3402 -0.3045 -0.2651
11958TIP3    H157289   2.289   1.493  16.037 -1.8324 -0.0650 -1.8529
11958TIP3    H257290   2.244   1.370  16.113  0.1231 -0.3376 -1.1013
11959TIP3   OH257291   3.954   4.324  11.658 -0.0488 -0.6635  0.7056
11959TIP3    H157292   3.902   4.403  11.673 -1.5368 -1.1171 -1.7925
11959TIP3    H257293   3.904   4.274  11.593  4.2287 -0.3934 -2.9926
11960TIP3   OH257294   2.054   4.102  15.690  0.1218 -0.2526 -0.3319
11960TIP3    H157295   2.003   4.050  15.628 -0.5081  0.7804 -0.7025
11960TIP3    H257296   2.144   4.096  15.659  0.1811 -1.7331  0.0718
11961TIP3   OH257297   2.621   0.670   5.985  0.0790 -0.2226  0.0520
11961TIP3    H157298   2.632   0.729   6.060 -3.1020  0.9189 -0.3023
11961TIP3    H257299   2.689   0.696   5.923  1.2876  0.3394  1.5938
11962TIP3   OH257300   1.576   1.416   5.481  0.8779  0.3086 -0.2355
11962TIP3    H157301   1.493   1.395   5.439  1.1816 -2.5114  0.4536
11962TIP3    H257302   1.553   1.478   5.551 -0.3543  0.9852 -1.2234
11963TIP3   OH257303   1.739   3.012   1.752 -0.0238 -0.5088  0.2251
11963TIP3    H157304   1.671   3.074   1.725  1.6122  0.9463 -0.6338
11963TIP3    H257305   1.754   2.958   1.674 -0.3917 -1.0396  0.5145
11964TIP3   OH257306   0.986   3.411   4.707  0.4248  0.2211 -0.0196
11964TIP3    H157307   1.029   3.352   4.768  0.9241  2.4033  1.8183
11964TIP3    H257308   1.057   3.460   4.666 -0.1187  1.6969  0.7616
11965TIP3   OH257309   2.692   1.133  16.647  0.5883  1.2520  0.0853
11965TIP3    H157310   2.773   1.084  16.636  0.6039  1.4965 -0.9797
11965TIP3    H257311   2.667   1.158  16.558 -0.0940  2.0845  0.5016
11966TIP3   OH257312   5.323   1.488   2.425  0.1246  0.0157 -0.1966
11966TIP3    H157313   5.327   1.557   2.359 -0.9429 -0.1057 -0.3839
11966TIP3    H257314   5.231   1.465   2.432  0.5583 -2.1235 -0.8986
11967TIP3   OH257315   5.234   4.890   4.333  0.1756  0.0682  0.1216
11967TIP3    H157316   5.304   4.838   4.293 -1.7132 -1.2789 -1.5175
11967TIP3    H257317   5.242   4.976   4.291  0.9025 -0.0406  0.0228
11968TIP3   OH257318   3.693   6.365   6.327  0.1875  0.4679  0.3707
11968TIP3    H157319   3.627   6.372   6.395  0.1480  0.0740  0.3706
11968TIP3    H257320   3.751   6.440   6.343 -0.3022  0.8659  0.3152
11969TIP3   OH257321   1.840   2.581  15.785 -1.2763  1.1302 -0.1755
11969TIP3    H157322   1.921   2.625  15.757 -1.0167 -0.2487 -1.6539
11969TIP3    H257323   1.812   2.532  15.708 -0.6281 -2.7097  1.9422
11970TIP3   OH257324   1.924   4.969  16.643 -0.1589 -0.0927 -0.1599
11970TIP3    H157325   1.912   4.933  16.555 -1.9921  1.2392 -0.4827
11970TIP3    H257326   1.907   4.895  16.702 -0.1750 -0.6793 -0.8953
11971TIP3   OH257327   0.700   4.698   0.562 -0.2349 -0.5587  0.3315
11971TIP3    H157328   0.745   4.665   0.640  0.7845  1.4306  0.6146
11971TIP3    H257329   0.624   4.745   0.597  1.2575  1.9566  0.2609
11972TIP3   OH257330   4.509   5.529  12.952  0.2879 -0.0061 -0.3280
11972TIP3    H157331   4.510   5.433  12.954 -1.8790 -0.0289  0.7145
11972TIP3    H257332   4.515   5.556  13.043 -1.0203  0.8190 -0.4764
11973TIP3   OH257333   3.998   1.472  14.623  0.1370  0.5191 -0.1052
11973TIP3    H157334   4.067   1.438  14.567  0.5940 -1.4622  1.5851
11973TIP3    H257335   4.044   1.512  14.697 -0.4676 -1.0535  1.1678
11974TIP3   OH257336   1.527   0.412  17.052  0.0659  0.1551  0.4729
11974TIP3    H157337   1.431   0.420  17.045  0.1386  0.6846  0.0707
11974TIP3    H257338   1.556   0.386  16.965  0.3789  0.8990  0.3530
11975TIP3   OH257339   3.641   3.362  16.173  0.2124  0.0619 -0.1180
11975TIP3    H157340   3.726   3.334  16.138  0.7094 -0.0953  1.2021
11975TIP3    H257341   3.581   3.293  16.147  0.7964 -0.6048  0.2852
11976TIP3   OH257342   4.650   2.847  16.533  0.0117  0.9012  0.7186
11976TIP3    H157343   4.690   2.862  16.447  0.5969 -0.7039  0.7054
11976TIP3    H257344   4.556   2.842  16.514  0.2018 -0.3552  0.0151
11977TIP3   OH257345   1.609   1.683  12.119 -0.5471  0.0632 -0.3746
11977TIP3    H157346   1.580   1.625  12.049 -2.2889  0.2784  0.1355
11977TIP3    H257347   1.704   1.674  12.121 -0.6306 -1.1613 -1.6934
11978TIP3   OH257348   1.821   3.704   2.427 -0.5763  0.6062  0.0761
11978TIP3    H157349   1.879   3.696   2.503  0.6090  0.0554 -0.8715
11978TIP3    H257350   1.761   3.630   2.436 -0.0581  0.1869  0.1617
11979TIP3   OH257351   3.757   2.191  11.603 -0.1407 -0.3938 -0.3187
11979TIP3    H157352   3.709   2.125  11.652  0.2657 -0.5036 -0.0758
11979TIP3    H257353   3.771   2.152  11.517  1.6477 -1.3192  0.3813
11980TIP3   OH257354   5.022   6.533  14.803  0.3220  0.7131  0.3618
11980TIP3    H157355   5.091   6.594  14.830  1.2469 -0.4107  0.6124
11980TIP3    H257356   4.963   6.585  14.749  0.1019  2.2663  2.0451
11981TIP3   OH257357   3.568   3.604  16.085 -0.0609 -0.0491 -0.5169
11981TIP3    H157358   3.549   3.681  16.140  2.3564  0.8484 -0.8947
11981TIP3    H257359   3.571   3.531  16.146 -0.4473  0.4460  0.1110
11982TIP3   OH257360   4.372   0.908   1.410  0.4065 -0.5774 -0.2949
11982TIP3    H157361   4.429   0.919   1.486  1.2318 -2.4273 -0.6282
11982TIP3    H257362   4.285   0.930   1.442  1.1810  1.7019  0.3752
11983TIP3   OH257363   5.187   2.558   3.474 -0.3963 -0.3167  0.7889
11983TIP3    H157364   5.205   2.518   3.389 -2.8436 -1.2559  0.7011
11983TIP3    H257365   5.121   2.625   3.456  0.2690  0.6129  1.7043
11984TIP3   OH257366   4.340   1.447  12.331  0.5490  0.1551 -0.1249
11984TIP3    H157367   4.247   1.431  12.347  0.5696  1.1900  1.1613
11984TIP3    H257368   4.342   1.498  12.250  0.0364 -0.2845 -0.4182
11985TIP3   OH257369   3.031   5.455  13.592 -0.1227 -0.3602 -0.6422
11985TIP3    H157370   2.951   5.508  13.595  0.4357  0.8463 -4.4204
11985TIP3    H257371   3.000   5.365  13.598 -1.5732  0.1521 -0.0281
11986TIP3   OH257372   1.839   1.746  14.133  0.3521 -0.2799  0.3920
11986TIP3    H157373   1.764   1.805  14.126  0.5318 -0.1844 -0.8419
11986TIP3    H257374   1.812   1.667  14.086  0.5255 -0.7689  1.0963
11987TIP3   OH257375   4.069   2.872   5.123  0.5613  0.4227  0.4716
11987TIP3    H157376   4.103   2.898   5.208  1.7070  1.7764 -0.3755
11987TIP3    H257377   3.982   2.914   5.118  0.0830 -0.4489  1.3473
11988TIP3   OH257378   1.604   3.536   5.317  0.0995 -0.1928  0.8954
11988TIP3    H157379   1.520   3.528   5.272  0.6979  0.9752 -0.4668
11988TIP3    H257380   1.613   3.629   5.336  1.8459 -0.0263 -0.5318
11989TIP3   OH257381   4.098   5.221  16.915 -0.5889 -0.0926 -0.3794
11989TIP3    H157382   4.109   5.282  16.988  1.6838 -1.4706  0.4623
11989TIP3    H257383   4.127   5.271  16.838  1.8066 -0.2517  0.3821
11990TIP3   OH257384   3.214   2.663  12.161  0.0412  0.3716  0.2060
11990TIP3    H157385   3.142   2.631  12.105  1.8906 -1.7555 -0.9988
11990TIP3    H257386   3.183   2.748  12.192 -2.8733 -0.3555 -0.5515
11991TIP3   OH257387   3.271   2.104  16.165 -0.3968 -0.1629 -0.5028
11991TIP3    H157388   3.211   2.160  16.215 -1.1283 -0.2031 -1.3275
11991TIP3    H257389   3.315   2.051  16.232  0.0288  1.1111  0.2616
11992TIP3   OH257390   2.592   2.473   5.944  0.3190  0.1516 -0.0607
11992TIP3    H157391   2.550   2.389   5.921  0.0280  0.9687 -2.7959
11992TIP3    H257392   2.542   2.505   6.018  0.0610 -1.8207  0.6591
11993TIP3   OH257393   5.851   2.954   4.956 -0.4651  0.3401 -0.4753
11993TIP3    H157394   5.799   2.997   4.888  0.7015 -0.0916 -1.6760
11993TIP3    H257395   5.864   3.021   5.023 -3.4384  0.1536  0.3650
11994TIP3   OH257396   4.563   0.467   0.798 -0.0698 -0.2893 -0.5070
11994TIP3    H157397   4.550   0.518   0.718 -2.4913 -1.6663 -1.0603
11994TIP3    H257398   4.626   0.517   0.849 -0.8839  2.2442 -1.8845
11995TIP3   OH257399   4.683   2.738  11.727 -0.3501  0.4906  0.4008
11995TIP3    H157400   4.600   2.722  11.772  0.5269 -0.7883  1.6135
11995TIP3    H257401   4.661   2.739  11.634 -1.6697 -0.1020  0.7054
11996TIP3   OH257402   3.368   5.684   5.558 -0.1657 -0.3418 -0.1198
11996TIP3    H157403   3.373   5.761   5.615 -1.2608 -0.8429  0.6778
11996TIP3    H257404   3.403   5.613   5.612  0.0090 -0.5647 -0.5322
11997TIP3   OH257405   3.418   3.469  11.239  0.1851 -0.0545 -0.5739
11997TIP3    H157406   3.339   3.416  11.222 -1.1968  0.7280  2.9975
11997TIP3    H257407   3.398   3.554  11.200 -1.4589  0.6397  1.6995
11998TIP3   OH257408   1.619   3.438  16.854 -0.2130 -0.2994 -0.2749
11998TIP3    H157409   1.590   3.529  16.863 -1.9158 -0.8146 -0.3414
11998TIP3    H257410   1.550   3.388  16.897  0.5149 -1.5887 -0.6127
11999TIP3   OH257411   0.928   4.641   0.425  0.0087 -0.6293 -0.6031
11999TIP3    H157412   0.947   4.705   0.493  1.2443 -0.5632 -0.9953
11999TIP3    H257413   0.838   4.659   0.399 -0.4702 -0.6268  0.9704
12000TIP3   OH257414   2.619   1.437  13.955 -0.7066  0.2027  0.3299
12000TIP3    H157415   2.575   1.495  13.893  0.2345 -0.0860 -0.6025
12000TIP3    H257416   2.634   1.356  13.907  2.5609  0.9239  0.0093
12001TIP3   OH257417   3.425   5.518  17.227  0.3333 -0.3487  0.3232
12001TIP3    H157418   3.498   5.458  17.239 -0.6534 -1.8314 -0.8854
12001TIP3    H257419   3.422   5.569  17.308  2.0327 -0.9886  0.8131
12002TIP3   OH257420   1.937   2.215   5.886 -0.4173 -0.0370  0.2131
12002TIP3    H157421   1.933   2.271   5.964 -1.2850 -0.2068  0.2924
12002TIP3    H257422   2.031   2.205   5.869 -0.2373  1.4733  0.1803
12003TIP3   OH257423   0.286   3.702  13.775  0.4430  0.0208 -0.7546
12003TIP3    H157424   0.279   3.656  13.858  0.0273  1.2470 -0.1025
12003TIP3    H257425   0.358   3.658  13.730  1.5257  0.1800  0.7901
12004TIP3   OH257426   2.757   2.463   1.674 -0.4652  0.4172  0.0149
12004TIP3    H157427   2.716   2.476   1.759 -0.3308  0.0981  0.1320
12004TIP3    H257428   2.693   2.412   1.624 -0.4024  0.3101  0.0430
12005TIP3   OH257429   5.430   1.102  16.999 -0.5268 -0.2083  0.4196
12005TIP3    H157430   5.517   1.076  17.030 -0.6296 -0.3115  0.6253
12005TIP3    H257431   5.434   1.198  16.995 -0.9747 -0.1046  2.1637
12006TIP3   OH257432   6.123   4.823   2.746  0.2403 -0.1765 -0.1272
12006TIP3    H157433   6.066   4.828   2.823 -0.7271 -0.6489 -0.7984
12006TIP3    H257434   6.120   4.730   2.721 -0.2764  0.1538 -1.3365
12007TIP3   OH257435   5.636   5.777  16.668  0.1441  0.0367  0.0729
12007TIP3    H157436   5.620   5.683  16.662  0.7435  0.0285 -1.4852
12007TIP3    H257437   5.730   5.786  16.650 -0.5721  1.2561 -3.2790
12008TIP3   OH257438   3.785   0.398   0.493 -0.3916  0.2127  0.1158
12008TIP3    H157439   3.854   0.413   0.428 -0.4042 -0.3920 -0.0459
12008TIP3    H257440   3.704   0.423   0.449 -0.5209 -1.2334 -0.4881
12009TIP3   OH257441   2.701   4.317   0.423  0.3816  0.0432  0.2758
12009TIP3    H157442   2.626   4.271   0.460  1.0539 -1.5847 -0.3150
12009TIP3    H257443   2.740   4.254   0.362  1.3981  1.3708 -0.4791
12010TIP3   OH257444   4.665   0.273  13.814 -0.2605  0.6568 -0.0543
12010TIP3    H157445   4.759   0.253  13.820 -0.5829 -0.7354  0.5571
12010TIP3    H257446   4.629   0.244  13.898 -1.2024  1.4280 -0.1843
12011TIP3   OH257447   4.249   1.182   1.958  0.5975  0.4649  0.6086
12011TIP3    H157448   4.186   1.226   1.901  0.0155 -0.7728  0.2753
12011TIP3    H257449   4.319   1.246   1.970  0.9348  0.6203 -1.8646
12012TIP3   OH257450   6.185   5.563  12.923 -0.3030  0.1944 -0.1805
12012TIP3    H157451   6.214   5.481  12.881  1.9392  1.8135 -1.8995
12012TIP3    H257452   6.134   5.534  12.999  0.2059 -2.7992 -0.9187
12013TIP3   OH257453   4.430   4.046  13.107 -0.1519  0.0920 -0.3130
12013TIP3    H157454   4.383   4.004  13.035 -0.2121 -0.0374 -0.1976
12013TIP3    H257455   4.513   3.998  13.113 -0.7395 -0.8237  0.6286
12014TIP3   OH257456   0.174   0.666   0.064  0.0604  0.1203 -0.6602
12014TIP3    H157457   0.231   0.592   0.084 -2.2052 -1.3830  0.4394
12014TIP3    H257458   0.137   0.645  -0.021 -0.5844 -0.0319 -0.3486
12015TIP3   OH257459   1.616   5.781   2.060  0.6528 -0.8184 -0.6083
12015TIP3    H157460   1.540   5.791   2.117 -1.1780 -1.1177 -2.9319
12015TIP3    H257461   1.680   5.733   2.114 -1.0862 -1.2687  1.1121
12016TIP3   OH257462   0.154   1.342  13.104 -1.0638  0.4740 -0.1823
12016TIP3    H157463   0.200   1.418  13.070  2.4750 -2.2577 -1.7899
12016TIP3    H257464   0.123   1.295  13.026 -2.3799 -0.2423  0.7362
12017TIP3   OH257465   2.841   5.053   0.351 -0.2479 -0.2699 -0.4161
12017TIP3    H157466   2.771   5.117   0.349 -0.6499 -0.7018 -0.1145
12017TIP3    H257467   2.800   4.972   0.383  0.5880 -0.2694  0.6824
12018TIP3   OH257468   4.694   0.392  14.392 -0.4063 -0.8292 -0.2511
12018TIP3    H157469   4.763   0.442  14.348 -0.7342 -0.3380 -0.2063
12018TIP3    H257470   4.733   0.365  14.475 -0.8390  0.9146  0.5424
12019TIP3   OH257471   2.034   5.782   3.503 -0.0652 -0.1547 -0.4876
12019TIP3    H157472   2.109   5.838   3.485 -0.2245  0.3760  0.4363
12019TIP3    H257473   2.057   5.736   3.584 -0.4357 -0.5122 -0.5813
12020TIP3   OH257474   2.823   2.690   1.021 -0.2539  0.3778 -0.4647
12020TIP3    H157475   2.841   2.598   1.000 -0.0036 -0.2913  2.4699
12020TIP3    H257476   2.735   2.706   0.988  0.2551 -0.4566 -2.3132
12021TIP3   OH257477   5.760   3.912  14.656  0.1984  0.3104 -0.1026
12021TIP3    H157478   5.714   3.990  14.626 -1.4297 -0.5419  0.0823
12021TIP3    H257479   5.716   3.839  14.611  1.4570 -0.5210 -0.0097
12022TIP3   OH257480   2.065   4.842  15.422  0.0652  0.5711  0.5127
12022TIP3    H157481   2.027   4.771  15.474  0.0156  0.3362  0.1558
12022TIP3    H257482   2.002   4.858  15.352  1.2587 -0.7451 -0.8886
12023TIP3   OH257483   1.632   1.934  14.204 -0.3640  0.1124 -0.0166
12023TIP3    H157484   1.683   1.978  14.271 -1.7632  0.1548  1.0466
12023TIP3    H257485   1.569   2.000  14.174 -2.0244 -0.9176  1.1103
12024TIP3   OH257486   6.704   0.514   5.187 -0.0359 -0.5653  0.0357
12024TIP3    H157487   6.755   0.480   5.113  1.9740 -0.6858  1.4153
12024TIP3    H257488   6.708   0.444   5.253  0.6732  0.6494  1.3333
12025TIP3   OH257489   5.393   4.762  17.108 -0.5314 -0.4611 -0.1142
12025TIP3    H157490   5.307   4.755  17.148 -0.0687 -1.0822  0.8035
12025TIP3    H257491   5.377   4.750  17.015 -1.6124  0.9002 -0.1241
12026TIP3   OH257492   5.230   2.425  16.357  0.1585  0.3024  0.6164
12026TIP3    H157493   5.310   2.465  16.392 -1.6516  2.9645  1.8673
12026TIP3    H257494   5.161   2.489  16.376 -2.1992 -1.7226 -0.8696
12027TIP3   OH257495   6.048   4.200   2.143 -0.1305 -0.2868 -0.2543
12027TIP3    H157496   6.033   4.121   2.092 -0.6103  1.1447 -2.3895
12027TIP3    H257497   6.143   4.204   2.154 -0.1133 -1.2024 -0.0436
12028TIP3   OH257498   5.996   4.688  11.942 -0.4861 -0.0984 -0.0094
12028TIP3    H157499   5.976   4.649  11.857  1.7217  1.6057 -1.3652
12028TIP3    H257500   6.091   4.700  11.941 -0.1529 -1.7279  3.4579
12029TIP3   OH257501   2.958   5.713   3.029 -0.7548  0.1402 -0.1281
12029TIP3    H157502   2.895   5.691   2.959 -2.5558  0.0592  1.4689
12029TIP3    H257503   2.913   5.778   3.082  0.1628 -0.5699  1.5596
12030TIP3   OH257504   4.117   1.182  12.503 -0.0262  0.6540 -0.6597
12030TIP3    H157505   4.200   1.214  12.537  0.0489  0.1907 -0.4014
12030TIP3    H257506   4.095   1.242  12.432  0.3226  1.0209 -0.4567
12031TIP3   OH257507   5.127   5.606   1.829  0.2525 -0.0173 -0.2327
12031TIP3    H157508   5.065   5.678   1.821  0.4069  0.4711  2.5560
12031TIP3    H257509   5.073   5.527   1.827 -0.2079  0.3008 -0.3503
12032TIP3   OH257510   1.089   0.224  15.299  0.7617  0.7024  0.8823
12032TIP3    H157511   1.118   0.133  15.305  1.9765  1.1700  3.0194
12032TIP3    H257512   1.008   0.221  15.248  1.4282 -1.4099 -0.0973
12033TIP3   OH257513   5.177   2.052  14.792 -0.4190 -0.0000 -0.2840
12033TIP3    H157514   5.213   2.023  14.876 -0.2362 -1.8212 -0.9751
12033TIP3    H257515   5.249   2.102  14.752 -0.4955  0.8560  0.6068
12034TIP3   OH257516   5.551   0.165   2.900 -0.3938  0.0087  0.3509
12034TIP3    H157517   5.570   0.096   2.963 -0.8913  0.0677  0.5686
12034TIP3    H257518   5.504   0.231   2.951 -0.1147  0.4105  0.0954
12035TIP3   OH257519   3.151   3.612   2.028 -0.4482  0.1926  0.3225
12035TIP3    H157520   3.152   3.675   1.955  0.9482  0.4629  0.5458
12035TIP3    H257521   3.091   3.544   2.000  0.7789 -0.1916 -1.5267
12036TIP3   OH257522   4.646   3.280  13.414 -0.4725 -0.4854 -0.7815
12036TIP3    H157523   4.719   3.304  13.358  0.5934  0.6956  1.0660
12036TIP3    H257524   4.669   3.193  13.447  0.2625  0.0194  0.0497
12037TIP3   OH257525   4.525   0.432  14.724  0.0239  0.1985 -0.1533
12037TIP3    H157526   4.453   0.400  14.670 -0.9185  2.8262 -0.5478
12037TIP3    H257527   4.575   0.489  14.666  2.0228 -0.9891  0.3400
12038TIP3   OH257528   2.202   6.324   2.726 -0.3901 -0.1847 -0.0153
12038TIP3    H157529   2.207   6.400   2.668 -0.7145  0.2414  0.5096
12038TIP3    H257530   2.110   6.319   2.752 -0.7404 -1.8170 -1.4280
12039TIP3   OH257531   3.128   0.811  10.284 -0.1011 -0.3046 -0.0088
12039TIP3    H157532   3.194   0.784  10.221  0.6934  1.4212  0.0461
12039TIP3    H257533   3.046   0.773  10.251  0.6985 -1.3754 -0.7794
12040TIP3   OH257534   1.296   5.301   4.797 -0.1205  0.1896 -0.2448
12040TIP3    H157535   1.322   5.218   4.838 -2.3557  0.1227  1.1865
12040TIP3    H257536   1.299   5.283   4.703  1.2408 -0.9193 -0.0154
12041TIP3   OH257537   2.400   6.773   4.572  0.1527 -0.3310 -0.1393
12041TIP3    H157538   2.372   6.685   4.599  0.3044 -0.1882  0.5009
12041TIP3    H257539   2.472   6.757   4.511  1.0562 -0.6402  0.9760
12042TIP3   OH257540   6.467   0.277   5.415 -0.5067 -0.2377  0.1339
12042TIP3    H157541   6.435   0.186   5.418  0.5194 -0.6500 -0.9963
12042TIP3    H257542   6.391   0.330   5.441 -1.1249 -1.4085  0.7901
12043TIP3   OH257543   1.355   5.671  16.675  0.3016  0.0265  0.1689
12043TIP3    H157544   1.311   5.736  16.621  0.6501  0.5465  0.5060
12043TIP3    H257545   1.284   5.624  16.719  0.0369 -0.0618 -0.3537
12044TIP3   OH257546   3.877   0.068  15.900  0.1715 -0.1861  0.0590
12044TIP3    H157547   3.895  -0.025  15.912  1.0266  0.0837  1.0435
12044TIP3    H257548   3.962   0.106  15.877  0.0383  0.4847  0.6286
12045TIP3   OH257549   3.609   3.108   2.788  0.2015  0.3470  0.4124
12045TIP3    H157550   3.634   3.167   2.859 -1.7327  0.4656  1.0373
12045TIP3    H257551   3.556   3.162   2.729  1.7350  0.2262 -1.0978
12046TIP3   OH257552   0.391   6.476   6.602 -0.0525  0.0491 -0.0111
12046TIP3    H157553   0.399   6.571   6.607 -1.0916  0.1485 -0.1261
12046TIP3    H257554   0.365   6.459   6.512  2.6253 -0.5456 -0.7044
12047TIP3   OH257555   3.181   4.618  12.237 -0.3222  0.0283 -0.2504
12047TIP3    H157556   3.120   4.691  12.229 -1.6254 -0.7969  1.5396
12047TIP3    H257557   3.216   4.626  12.326 -0.8322 -1.7522  0.1336
12048TIP3   OH257558   1.455   6.473   3.244 -0.0185  0.4276  0.1621
12048TIP3    H157559   1.489   6.392   3.280  0.3433  0.9037  0.8924
12048TIP3    H257560   1.480   6.471   3.152  0.3673 -0.0796  0.2782
12049TIP3   OH257561   6.473   1.714  17.185 -0.8033  0.1400 -0.2011
12049TIP3    H157562   6.561   1.738  17.156 -0.7320 -0.6391 -0.6458
12049TIP3    H257563   6.419   1.719  17.105 -0.7505 -1.3109 -0.3490
12050TIP3   OH257564   5.044   0.866  16.816 -0.3441 -0.1729 -0.0033
12050TIP3    H157565   5.033   0.876  16.721 -0.9505  1.3697  0.2168
12050TIP3    H257566   4.955   0.849  16.848 -0.2880  0.3001  0.4035
12051TIP3   OH257567   0.260   3.092   2.222  0.4162 -0.2100 -0.3796
12051TIP3    H157568   0.239   3.185   2.230  0.0448 -0.3724  0.5816
12051TIP3    H257569   0.354   3.090   2.202  1.0419  0.3034  2.3204
12052TIP3   OH257570   3.892   3.508  15.342  0.1395  0.6655  0.1853
12052TIP3    H157571   3.950   3.551  15.279 -0.2158  0.5119 -0.2461
12052TIP3    H257572   3.951   3.479  15.412  0.4250  1.5834  0.3431
12053TIP3   OH257573   2.905   3.378   4.501  0.4571 -0.0656 -0.3397
12053TIP3    H157574   2.956   3.387   4.581  0.4680 -0.7094 -0.2738
12053TIP3    H257575   2.970   3.367   4.432  0.4502  0.5653 -0.4476
12054TIP3   OH257576   0.796   1.197  15.604  0.1251 -0.1825 -0.0826
12054TIP3    H157577   0.788   1.189  15.509 -2.5533  0.6458  0.0333
12054TIP3    H257578   0.859   1.129  15.629 -0.2092 -1.3512 -2.2993
12055TIP3   OH257579   0.284   1.154   3.905 -0.0847 -0.0450 -0.2593
12055TIP3    H157580   0.277   1.208   3.983  0.7989 -0.3996  0.0665
12055TIP3    H257581   0.352   1.090   3.925 -0.1943 -0.4526 -1.1304
12056TIP3   OH257582   4.467   4.337   6.057 -0.3324  0.8404  0.2895
12056TIP3    H157583   4.380   4.374   6.073 -1.9488 -2.2056 -0.9947
12056TIP3    H257584   4.483   4.281   6.133 -0.9492 -1.0676 -0.9369
12057TIP3   OH257585   2.457   5.737   5.694 -0.2879  0.3777 -0.2488
12057TIP3    H157586   2.364   5.755   5.707 -0.6399  0.6056 -2.7674
12057TIP3    H257587   2.459   5.665   5.631  1.2369 -0.0540  0.2794
12058TIP3   OH257588   5.138   1.823   5.122  0.1732 -0.1047  0.7783
12058TIP3    H157589   5.207   1.759   5.136  0.0075 -0.5473 -0.3586
12058TIP3    H257590   5.122   1.821   5.028  0.3276  1.7729  0.6934
12059TIP3   OH257591   2.080   1.598  15.618  0.4194 -0.0738 -0.0989
12059TIP3    H157592   2.141   1.644  15.561 -0.5404  0.1157 -0.9792
12059TIP3    H257593   2.039   1.533  15.562 -1.3395  0.8397  0.0952
12060TIP3   OH257594   1.581   3.232   4.080 -0.6426  0.1371 -0.3946
12060TIP3    H157595   1.518   3.160   4.089  0.7524 -1.1124 -0.4132
12060TIP3    H257596   1.648   3.212   4.146  0.8954  0.2104 -1.9042
12061TIP3   OH257597   3.324   5.956  12.469 -0.1786  0.9967  0.1229
12061TIP3    H157598   3.297   5.970  12.560 -0.2291  0.8545  0.1312
12061TIP3    H257599   3.418   5.968  12.469  0.5716 -3.8535  1.2056
12062TIP3   OH257600   6.109   3.419   2.878 -0.1537  0.0380  0.1887
12062TIP3    H157601   6.098   3.326   2.855  0.2254 -0.5478  2.2092
12062TIP3    H257602   6.020   3.452   2.889 -0.3134  0.1513 -1.3830
12063TIP3   OH257603   6.365   3.322  14.257  0.2912 -0.1677 -0.0416
12063TIP3    H157604   6.433   3.389  14.242 -0.7560  1.3527  1.7131
12063TIP3    H257605   6.292   3.371  14.296 -0.9203 -2.1785  0.2691
12064TIP3   OH257606   1.269   3.681  10.779 -0.3690 -0.5745  0.3207
12064TIP3    H157607   1.357   3.657  10.807 -0.0798  0.5124  0.3727
12064TIP3    H257608   1.282   3.739  10.704 -1.1015 -1.9886 -0.9364
12065TIP3   OH257609   5.454   2.309  12.642 -0.4213 -0.0440 -0.1566
12065TIP3    H157610   5.405   2.382  12.605  1.0309  0.8340 -0.3869
12065TIP3    H257611   5.538   2.310  12.595 -0.3724 -1.8347 -0.1333
12066TIP3   OH257612   5.530   5.583   2.420  0.1256  0.2924  0.2689
12066TIP3    H157613   5.452   5.639   2.414 -0.0196  0.3256  2.1673
12066TIP3    H257614   5.495   5.497   2.444  0.5720 -0.0233 -0.1996
12067TIP3   OH257615   5.512   1.025   2.059 -0.0154 -0.6571  0.3911
12067TIP3    H157616   5.579   1.038   2.127  0.5881 -0.5251 -0.2262
12067TIP3    H257617   5.454   1.101   2.069  0.8005  0.0305 -0.0774
12068TIP3   OH257618   1.033   6.738   4.741 -0.3904  0.2610  0.3512
12068TIP3    H157619   1.014   6.804   4.807 -0.7473  1.4618 -0.9109
12068TIP3    H257620   0.988   6.660   4.771 -2.1688  1.3393  0.5397
12069TIP3   OH257621   4.170   3.556  14.412 -0.2563  0.2989  0.2400
12069TIP3    H157622   4.262   3.539  14.390 -0.4010 -0.8171  0.4264
12069TIP3    H257623   4.155   3.647  14.387  1.5703  1.2378  2.3889
12070TIP3   OH257624   2.732   3.763  14.537 -0.0674  0.0703 -0.3230
12070TIP3    H157625   2.699   3.677  14.511  2.6374 -1.8419  2.2579
12070TIP3    H257626   2.657   3.806  14.577 -0.7606 -2.2523  0.9616
12071TIP3   OH257627   1.072   2.103   0.754 -0.4235  0.1228 -0.4660
12071TIP3    H157628   1.043   2.032   0.696 -1.0082  0.4272 -0.5506
12071TIP3    H257629   1.072   2.180   0.697  0.9300  0.0574 -0.5675
12072TIP3   OH257630   2.424   5.400   5.981  0.2757  0.0640 -0.5078
12072TIP3    H157631   2.351   5.463   5.980 -1.5519 -1.9667 -3.3507
12072TIP3    H257632   2.386   5.320   6.016  1.6279 -0.5095 -0.3297
12073TIP3   OH257633   2.184   2.196  14.504 -0.2058  0.0380 -0.2476
12073TIP3    H157634   2.109   2.231  14.552 -0.1873 -0.3272  0.0499
12073TIP3    H257635   2.248   2.268  14.504  0.7277 -0.7379  2.3186
12074TIP3   OH257636   1.469   4.802   1.513 -0.5398  0.4918  0.1802
12074TIP3    H157637   1.511   4.868   1.568 -0.6337 -0.2775  1.2009
12074TIP3    H257638   1.402   4.764   1.570  0.1043 -1.0858 -0.0934
12075TIP3   OH257639   0.497   1.630   5.626  0.5246  0.7607  0.0371
12075TIP3    H157640   0.495   1.617   5.721  1.1823 -0.6869 -0.1380
12075TIP3    H257641   0.542   1.553   5.592 -0.1545  1.0249 -1.5031
12076TIP3   OH257642   3.616   1.548  15.147  0.2371  0.2650  0.5743
12076TIP3    H157643   3.597   1.492  15.222 -1.8958  0.5878  0.2828
12076TIP3    H257644   3.684   1.500  15.098 -0.6928 -1.4904  0.9674
12077TIP3   OH257645   4.870   3.190   2.611 -0.3047  0.5027 -0.3223
12077TIP3    H157646   4.857   3.284   2.596 -2.6163  0.2065 -0.2082
12077TIP3    H257647   4.883   3.183   2.706  3.1622  1.0511 -0.6851
12078TIP3   OH257648   6.213   2.519   0.049  0.5339 -0.0692 -0.3927
12078TIP3    H157649   6.168   2.464   0.114  0.5232  0.7021  0.2527
12078TIP3    H257650   6.301   2.531   0.084 -0.1680  2.2880  0.6525
12079TIP3   OH257651   5.594   0.115   5.491 -0.4565  0.1681  0.3696
12079TIP3    H157652   5.537   0.112   5.568  1.0068 -2.4399  1.4433
12079TIP3    H257653   5.683   0.120   5.527  0.3190 -2.3351 -1.0656
12080TIP3   OH257654   4.343   5.053   4.764  0.4584 -0.5416 -0.0303
12080TIP3    H157655   4.391   5.070   4.683  0.2422 -0.5208 -0.1542
12080TIP3    H257656   4.306   5.138   4.788 -0.8526 -0.8873 -0.7918
12081TIP3   OH257657   4.540   3.362   5.114  0.6115  0.3657 -0.0460
12081TIP3    H157658   4.576   3.276   5.094 -2.0563 -1.1222  1.3109
12081TIP3    H257659   4.470   3.375   5.050  0.4691  1.1793  0.2585
12082TIP3   OH257660   6.668   1.880  12.669  0.5627  0.5531  0.4183
12082TIP3    H157661   6.618   1.850  12.745 -0.1860  0.6411 -0.0267
12082TIP3    H257662   6.757   1.849  12.684  0.2366 -0.1340  0.9303
12083TIP3   OH257663   5.693   3.068   1.155 -0.1403  0.0939  0.4954
12083TIP3    H157664   5.645   3.105   1.081  0.3065 -0.6722 -0.1730
12083TIP3    H257665   5.758   3.010   1.116 -0.4177 -0.9222  1.5158
12084TIP3   OH257666   6.067   4.175  15.915 -0.5032 -0.3250 -0.4281
12084TIP3    H157667   6.122   4.101  15.940  0.3246  0.0688 -1.0527
12084TIP3    H257668   6.129   4.241  15.884 -1.1860  0.9242  0.8554
12085TIP3   OH257669   5.852   3.811  14.338  0.0265  0.1108 -0.4744
12085TIP3    H157670   5.947   3.800  14.330  0.1195 -0.6538  1.3945
12085TIP3    H257671   5.841   3.881  14.403 -0.6907 -0.5712  0.1536
12086TIP3   OH257672   5.283   4.537   5.423 -0.9036 -0.4037  0.3434
12086TIP3    H157673   5.342   4.511   5.352  1.3316  1.5185  1.4414
12086TIP3    H257674   5.252   4.624   5.399  0.0976  0.3919  1.8010
12087TIP3   OH257675   3.548   2.232   1.164  0.1325  0.2185 -0.1127
12087TIP3    H157676   3.533   2.194   1.078  0.1441  1.1642 -0.5337
12087TIP3    H257677   3.613   2.175   1.205 -0.4094 -0.6479 -0.4434
12088TIP3   OH257678   2.459   5.586  13.535 -0.1923  0.0165  0.2295
12088TIP3    H157679   2.526   5.603  13.468 -1.1603  0.7914 -0.5699
12088TIP3    H257680   2.380   5.626  13.499 -0.9443 -0.3821  1.4320
12089TIP3   OH257681   6.600   5.844   2.632 -0.5410  0.5376  0.0280
12089TIP3    H157682   6.577   5.811   2.719 -1.1096  0.1757 -0.2554
12089TIP3    H257683   6.647   5.772   2.591  0.1367  0.8760  0.1991
12090TIP3   OH257684   5.378   2.157  15.958 -0.2492 -0.8419  0.5547
12090TIP3    H157685   5.434   2.125  15.887  1.4894  0.1755  1.4365
12090TIP3    H257686   5.318   2.218  15.916  0.0138 -1.1135 -0.2214
12091TIP3   OH257687   4.601   6.715  14.935 -0.2229 -0.5332  0.0825
12091TIP3    H157688   4.519   6.765  14.944  0.2152  0.5296 -1.5214
12091TIP3    H257689   4.668   6.782  14.920  1.1910 -1.2995  2.7047
12092TIP3   OH257690   3.008   4.260  13.908  0.1648  0.1700 -0.0903
12092TIP3    H157691   3.102   4.277  13.902  0.2927 -0.6015 -0.2781
12092TIP3    H257692   2.968   4.332  13.859  0.6978  0.0211 -0.7575
12093TIP3   OH257693   2.751   2.610  12.653 -0.4507  0.7525  0.0305
12093TIP3    H157694   2.674   2.587  12.601  0.1791 -0.7951 -0.2539
12093TIP3    H257695   2.821   2.557  12.617  0.2100  0.3344  1.8538
12094TIP3   OH257696   1.912   2.729   2.305 -0.5469 -0.2350 -0.4484
12094TIP3    H157697   1.954   2.675   2.238 -1.3511 -2.6550  0.9650
12094TIP3    H257698   1.983   2.755   2.363  0.1544  1.8534 -2.1509
12095TIP3   OH257699   5.820   1.762  14.531  0.1331 -0.3642  0.7841
12095TIP3    H157700   5.874   1.764  14.452 -1.1268  2.2595 -0.0598
12095TIP3    H257701   5.881   1.776  14.603  0.9042  0.1290  0.0458
12096TIP3   OH257702   1.346   2.572   2.112 -0.4330  0.3201  0.0503
12096TIP3    H157703   1.315   2.549   2.024  0.1127  0.0055 -0.0640
12096TIP3    H257704   1.400   2.497   2.138 -1.3295  0.0109  1.0243
12097TIP3   OH257705   3.816   2.597  17.135  0.0680  0.4523  0.1082
12097TIP3    H157706   3.904   2.570  17.110 -0.1086 -0.7583  0.7891
12097TIP3    H257707   3.811   2.689  17.107  1.2388  0.2826 -0.7066
12098TIP3   OH257708   3.430   0.885   1.344  0.3010  0.4847  0.0461
12098TIP3    H157709   3.440   0.798   1.307 -2.4534 -0.3460  1.1146
12098TIP3    H257710   3.424   0.943   1.267 -1.4282 -0.7319 -0.7675
12099TIP3   OH257711   0.320   1.419  16.505  0.4603 -0.0041 -0.3670
12099TIP3    H157712   0.291   1.421  16.414 -0.5131 -1.0985 -0.0972
12099TIP3    H257713   0.370   1.337  16.512  2.0669  0.9603 -0.3695
12100TIP3   OH257714   1.020   1.265  14.964 -0.2263  0.0814  0.4527
12100TIP3    H157715   1.107   1.238  14.993 -0.1186 -0.3399 -0.2329
12100TIP3    H257716   1.036   1.342  14.910 -0.2453 -0.1688  0.0872
12101TIP3   OH257717   3.019   0.078   5.482  0.7595 -0.0570 -0.5018
12101TIP3    H157718   3.093   0.054   5.538  0.2299 -0.0593  0.2015
12101TIP3    H257719   2.943   0.070   5.539  0.4168  1.8923 -0.6841
12102TIP3   OH257720   6.413   6.459   1.686  0.0883  0.2589  0.7603
12102TIP3    H157721   6.389   6.537   1.637 -1.0989 -0.8672 -0.4751
12102TIP3    H257722   6.440   6.492   1.772 -2.6880  1.8261  1.0783
12103TIP3   OH257723   6.262   0.232   4.836  0.4894  0.2912  0.0294
12103TIP3    H157724   6.201   0.282   4.782  0.6726  0.4632 -0.0189
12103TIP3    H257725   6.335   0.291   4.850  0.2872  0.3731  0.7541
12104TIP3   OH257726   0.528   3.582  12.439  0.9036  0.1106  0.0308
12104TIP3    H157727   0.464   3.604  12.371 -0.5998 -0.5645  1.1881
12104TIP3    H257728   0.589   3.522  12.396  0.4215  0.3073 -0.9392
12105TIP3   OH257729   5.560   2.967   0.148  0.4824 -0.2029 -0.0898
12105TIP3    H157730   5.472   2.937   0.171 -1.5369  3.5375 -2.3764
12105TIP3    H257731   5.603   2.982   0.232 -2.4871  1.6607  1.1932
12106TIP3   OH257732   2.657   4.759  11.735 -0.6677  0.3769  0.1215
12106TIP3    H157733   2.726   4.693  11.727 -1.2806 -0.5373  1.9794
12106TIP3    H257734   2.703   4.843  11.728  0.3411 -0.2349 -0.6963
12107TIP3   OH257735   3.417   2.298  11.742 -0.6684 -0.5236  1.0843
12107TIP3    H157736   3.453   2.337  11.821  1.0898  1.3326 -0.5728
12107TIP3    H257737   3.485   2.237  11.712 -1.3576 -1.2845  1.0470
12108TIP3   OH257738   6.668   0.910  14.367  0.1408  0.0835 -0.4818
12108TIP3    H157739   6.618   0.858  14.305  1.0769 -1.1495 -0.2343
12108TIP3    H257740   6.756   0.871  14.365  0.5891  1.0183  0.4519
12109TIP3   OH257741   6.675   0.230   6.235 -0.0311  0.2104 -0.0549
12109TIP3    H157742   6.712   0.318   6.233  0.9438 -0.2133 -0.7179
12109TIP3    H257743   6.750   0.172   6.245 -0.6649 -0.5546  0.3289
12110TIP3   OH257744   4.795   5.000  12.048 -0.4813 -0.2863  1.1221
12110TIP3    H157745   4.880   5.016  12.089  0.0017 -0.3316  0.1656
12110TIP3    H257746   4.807   5.028  11.957 -1.1711 -1.2730  0.7158
12111TIP3   OH257747   0.308   3.879   4.856  0.0180 -0.4063 -0.0961
12111TIP3    H157748   0.352   3.803   4.895  0.3747  0.4370  1.1974
12111TIP3    H257749   0.379   3.940   4.838 -0.3215 -0.1892 -0.6934
12112TIP3   OH257750   2.995   3.388   2.574 -0.2575  0.0602 -0.3228
12112TIP3    H157751   3.077   3.400   2.527 -0.4919 -1.2690 -1.1070
12112TIP3    H257752   2.932   3.361   2.507 -1.4687  1.5776  0.1774
12113TIP3   OH257753   5.464   5.977  16.024 -0.4066 -0.0009 -0.4553
12113TIP3    H157754   5.451   6.014  15.937  0.8318  1.1308 -0.1839
12113TIP3    H257755   5.443   5.884  16.015  1.6503 -0.2999 -2.4437
12114TIP3   OH257756   3.126   0.777  13.199 -0.3738  0.5387  0.2216
12114TIP3    H157757   3.039   0.748  13.228 -0.0290  1.6935  2.5311
12114TIP3    H257758   3.130   0.869  13.225  1.0362  0.8821 -1.1162
12115TIP3   OH257759   5.406   4.868   5.501 -0.1052  0.1461  0.6194
12115TIP3    H157760   5.320   4.828   5.487 -1.0664  2.1554  0.5461
12115TIP3    H257761   5.451   4.808   5.561 -0.6520 -2.1210 -1.1647
12116TIP3   OH257762   3.102   0.600  15.217 -0.2413  0.2861  0.0985
12116TIP3    H157763   3.176   0.610  15.156  0.7495  1.1762  1.4310
12116TIP3    H257764   3.026   0.627  15.166  0.4352  0.1047 -1.0487
12117TIP3   OH257765   6.727   4.447   6.555  0.7687 -0.4128 -0.7983
12117TIP3    H157766   6.749   4.354   6.547 -0.3151 -0.7149 -0.3194
12117TIP3    H257767   6.772   4.475   6.634  0.4102 -0.7339 -0.4796
12118TIP3   OH257768   6.238   0.166  14.619 -0.1129  0.1778 -0.0190
12118TIP3    H157769   6.165   0.105  14.630 -0.4170  0.3067 -1.2893
12118TIP3    H257770   6.310   0.126  14.669 -0.7023 -0.5297  0.2715
12119TIP3   OH257771   1.473   3.107   0.248 -0.6543  0.6440 -0.1648
12119TIP3    H157772   1.442   3.195   0.267 -2.7062 -0.0018 -0.3810
12119TIP3    H257773   1.429   3.052   0.314 -0.0493 -0.3080 -0.5492
12120TIP3   OH257774   4.625   0.004   2.551  0.3724 -0.2347  0.3966
12120TIP3    H157775   4.539   0.032   2.582  1.6701  2.7361  1.4084
12120TIP3    H257776   4.608  -0.031   2.463 -1.9355 -0.1395  0.7703
12121TIP3   OH257777   3.734   3.353  14.859 -0.1619  0.7737  0.0647
12121TIP3    H157778   3.774   3.295  14.795  1.1584  1.9696 -0.2251
12121TIP3    H257779   3.670   3.299  14.905  1.5182 -1.0734  0.2714
12122TIP3   OH257780   5.131   1.861  13.169 -0.3300  0.5949 -0.0277
12122TIP3    H157781   5.068   1.842  13.238  0.6911  0.3550  0.8584
12122TIP3    H257782   5.122   1.955  13.154  1.2270  1.1456  2.2546
12123TIP3   OH257783   2.974   1.602  15.890  0.3868 -0.1402  0.2509
12123TIP3    H157784   2.957   1.688  15.851 -0.3947  0.0005  0.8799
12123TIP3    H257785   3.013   1.551  15.819 -0.3869  0.3222 -0.5256
12124TIP3   OH257786   3.914   1.757   1.108 -0.2021  0.0755  0.2105
12124TIP3    H157787   3.950   1.751   1.019  0.4283 -0.4369  0.4968
12124TIP3    H257788   3.991   1.772   1.164 -0.3980 -1.2289  0.8528
12125TIP3   OH257789   4.991   0.747  11.386 -0.3939  0.5791 -0.5618
12125TIP3    H157790   4.959   0.744  11.295 -0.9403  1.9664 -0.4396
12125TIP3    H257791   4.949   0.825  11.423 -0.6781 -0.3385  1.0834
12126TIP3   OH257792   2.024   5.366   3.308 -0.4280  0.0565 -0.6569
12126TIP3    H157793   2.116   5.391   3.295  0.3899 -1.1896  2.2467
12126TIP3    H257794   1.979   5.449   3.323  0.7385  0.4926  0.5788
12127TIP3   OH257795   1.763   3.217  12.408 -0.0411 -0.1587 -0.0718
12127TIP3    H157796   1.809   3.207  12.324  1.6102  1.2903  0.6225
12127TIP3    H257797   1.691   3.155  12.403 -0.2527  0.2275 -2.7688
12128TIP3   OH257798   3.677   6.554  16.119 -1.0030  0.3950  0.0108
12128TIP3    H157799   3.606   6.617  16.134 -0.6696  0.9575 -0.6982
12128TIP3    H257800   3.748   6.585  16.176 -1.5555 -0.5687  1.2403
12129TIP3   OH257801   1.748   5.082   5.539 -0.1584  0.1135  0.4503
12129TIP3    H157802   1.720   5.114   5.625 -2.6905 -2.3264  0.5848
12129TIP3    H257803   1.670   5.042   5.501  1.5587 -1.0851 -1.9733
12130TIP3   OH257804   5.238   1.460  11.319 -0.6094 -0.1605 -0.5438
12130TIP3    H157805   5.259   1.372  11.352 -2.4550 -0.7426 -0.8833
12130TIP3    H257806   5.265   1.518  11.390  0.0098 -1.0418 -0.0392
12131TIP3   OH257807   0.891   2.646   2.409  0.3114  0.4921  0.2532
12131TIP3    H157808   0.799   2.621   2.406  1.3252 -3.6471  0.5352
12131TIP3    H257809   0.905   2.675   2.499 -0.6303  0.8344  0.2945
12132TIP3   OH257810   6.296   4.494   1.899 -0.2363 -0.1941 -0.3843
12132TIP3    H157811   6.322   4.480   1.990  1.6890  0.9975 -0.7173
12132TIP3    H257812   6.252   4.580   1.900  1.3428  0.6362 -0.8518
12133TIP3   OH257813   2.598   6.621  14.563 -0.0517  0.0302 -0.2355
12133TIP3    H157814   2.541   6.661  14.629  1.7658  0.3631  1.1792
12133TIP3    H257815   2.540   6.567  14.510 -1.6841  0.4362  1.1075
12134TIP3   OH257816   6.541   2.203  10.687 -0.5652  0.3702 -0.4888
12134TIP3    H157817   6.514   2.226  10.598 -3.4288 -1.2802 -0.1243
12134TIP3    H257818   6.482   2.253  10.744  0.9514  1.0785  0.4988
12135TIP3   OH257819   0.853   3.956   3.668  0.7597  0.9354  0.0724
12135TIP3    H157820   0.848   3.966   3.573  1.2031  2.6221  0.2020
12135TIP3    H257821   0.945   3.970   3.689  0.8951 -0.7181  0.6264
12136TIP3   OH257822   6.767   1.410   4.790  0.0939 -0.5458  0.0710
12136TIP3    H157823   6.696   1.465   4.821 -0.1115 -0.0960 -1.1921
12136TIP3    H257824   6.822   1.396   4.867  0.3451  1.7197  0.3216
12137TIP3   OH257825   4.717   5.380   6.222 -0.1464  1.1865  0.4542
12137TIP3    H157826   4.785   5.316   6.240  0.6125  2.5345  2.6343
12137TIP3    H257827   4.635   5.330   6.226  0.4126  0.3953  2.4886
12138TIP3   OH257828   6.050   5.445  14.105  0.0964  0.2047  0.9328
12138TIP3    H157829   6.051   5.537  14.131 -0.3326  0.4908 -0.0194
12138TIP3    H257830   6.076   5.447  14.012 -2.0149 -0.4115  0.2993
12139TIP3   OH257831   3.704   0.352  11.329 -0.3743 -0.2262 -0.2409
12139TIP3    H157832   3.788   0.397  11.324 -0.5926  0.2553  0.3865
12139TIP3    H257833   3.723   0.273  11.379 -0.1055 -0.5761 -0.8840
12140TIP3   OH257834   3.577   1.500  16.617  0.3634  0.8436 -0.2793
12140TIP3    H157835   3.596   1.590  16.644 -1.9102  2.2494 -3.0999
12140TIP3    H257836   3.502   1.508  16.558 -0.3434 -3.0047 -0.0277
12141TIP3   OH257837   4.722   6.139  11.686  0.6773 -0.5716  0.7224
12141TIP3    H157838   4.639   6.185  11.672  1.3093  0.1078 -0.8090
12141TIP3    H257839   4.703   6.048  11.660 -0.5608 -1.2553  3.7400
12142TIP3   OH257840   1.555   3.148  15.581 -0.4230  0.1718  0.2107
12142TIP3    H157841   1.568   3.241  15.560  1.7814 -0.5691 -1.8562
12142TIP3    H257842   1.634   3.123  15.628 -0.6874 -0.8792  0.0970
12143TIP3   OH257843   2.556   2.842   1.307  0.2193  0.3923  0.8534
12143TIP3    H157844   2.646   2.831   1.278 -0.0164  1.0596 -0.1684
12143TIP3    H257845   2.519   2.906   1.246 -1.6503 -1.6828 -0.2226
12144TIP3   OH257846   2.606   4.979   4.976  0.3197 -0.5957  0.4287
12144TIP3    H157847   2.595   4.930   5.057 -3.2897 -1.2850 -0.4289
12144TIP3    H257848   2.657   4.921   4.919 -1.5569 -2.2606  0.3972
12145TIP3   OH257849   0.924   5.194   1.472 -0.1487  0.1021 -0.3971
12145TIP3    H157850   0.968   5.114   1.443 -1.5477 -0.7164 -0.3378
12145TIP3    H257851   0.921   5.250   1.395 -1.2945 -0.8874 -1.0741
12146TIP3   OH257852   1.753   1.984   5.924 -0.1548  0.0135 -0.3732
12146TIP3    H157853   1.816   2.052   5.899  0.8569 -0.6040  0.5000
12146TIP3    H257854   1.719   2.013   6.009  0.0860 -0.4309 -0.1229
12147TIP3   OH257855   1.614   1.647   0.618 -0.4370  0.1320 -0.5327
12147TIP3    H157856   1.694   1.639   0.670 -0.8881  1.0922  0.3225
12147TIP3    H257857   1.644   1.673   0.531  0.3375 -1.6526 -0.8243
12148TIP3   OH257858   0.513   3.667  16.082 -0.4257  0.5987  0.0102
12148TIP3    H157859   0.523   3.578  16.116 -0.7673  0.9640  1.0742
12148TIP3    H257860   0.593   3.682  16.032  0.4758  0.3493  1.3416
12149TIP3   OH257861   1.075   4.354   3.087  0.3011 -0.2463 -0.2880
12149TIP3    H157862   1.131   4.291   3.131  0.2256 -0.2181 -0.1512
12149TIP3    H257863   1.010   4.300   3.040 -2.1329 -0.2363  2.9172
12150TIP3   OH257864   2.271   5.893   4.147  0.2552  0.0570  0.1151
12150TIP3    H157865   2.310   5.980   4.160  0.4278 -0.0106  0.0592
12150TIP3    H257866   2.191   5.910   4.098 -0.5330  0.3355  1.4716
12151TIP3   OH257867   1.545   4.604   0.355 -0.2699  0.4620 -0.3783
12151TIP3    H157868   1.563   4.694   0.382  0.4733  0.4510 -0.8244
12151TIP3    H257869   1.622   4.578   0.305 -0.1755 -0.6665  0.3422
12152TIP3   OH257870   1.395   2.545   3.505 -0.0732 -0.5169  0.0250
12152TIP3    H157871   1.317   2.594   3.531 -0.5440 -0.2216 -1.8985
12152TIP3    H257872   1.452   2.610   3.464  0.9240 -0.8603  0.8321
12153TIP3   OH257873   5.502   4.548  12.588  0.1349 -0.0034 -0.5977
12153TIP3    H157874   5.458   4.521  12.669  1.0833  1.6353  0.5035
12153TIP3    H257875   5.589   4.509  12.595  0.0622 -0.2413 -1.0498
12154TIP3   OH257876   1.453   4.581  15.948  0.3284  0.4045 -0.3486
12154TIP3    H157877   1.470   4.663  15.902 -0.4596 -0.1289 -1.6159
12154TIP3    H257878   1.518   4.520  15.915  1.4384  0.7190  1.1995
12155TIP3   OH257879   0.875   5.512  11.782 -0.1065  0.1832 -0.0130
12155TIP3    H157880   0.908   5.485  11.868 -1.4016 -2.6050 -0.3367
12155TIP3    H257881   0.954   5.536  11.733  0.8997 -0.6978  1.1255
12156TIP3   OH257882   3.806   6.488   5.710  0.5922  0.2231 -0.1876
12156TIP3    H157883   3.840   6.555   5.651 -2.0496  0.3469 -1.6653
12156TIP3    H257884   3.812   6.407   5.660  2.0709 -0.3915  0.9217
12157TIP3   OH257885   5.127   5.709  16.171  0.0023  0.4359 -0.0881
12157TIP3    H157886   5.078   5.694  16.252  1.7595  2.0932  1.3431
12157TIP3    H257887   5.138   5.621  16.133 -1.1960 -0.3153  1.2319
12158TIP3   OH257888   2.925   3.229  15.375 -0.9738  0.0100  0.2805
12158TIP3    H157889   2.863   3.157  15.376  1.8372 -2.6440 -2.5979
12158TIP3    H257890   2.926   3.259  15.284  0.5791  1.2223  0.6682
12159TIP3   OH257891   4.985   1.146   1.781  0.3304 -0.2949  0.0995
12159TIP3    H157892   4.917   1.146   1.715  0.2008  1.1976  0.2090
12159TIP3    H257893   5.024   1.059   1.776 -1.0676 -0.8994 -0.4839
12160TIP3   OH257894   4.969   2.516   0.390 -0.1301 -0.4729  0.1066
12160TIP3    H157895   4.907   2.447   0.366  0.7547 -1.1738 -0.2369
12160TIP3    H257896   4.957   2.528   0.484  0.4833 -1.9007  0.3848
12161TIP3   OH257897   0.171   2.983   4.821 -0.3612  0.6345 -0.0253
12161TIP3    H157898   0.229   3.033   4.764  0.9156 -1.6270 -0.7897
12161TIP3    H257899   0.231   2.939   4.883 -1.4495  0.1860  0.7293
12162TIP3   OH257900   1.933   3.685  15.501  0.5784  0.2227 -0.0468
12162TIP3    H157901   1.906   3.775  15.483 -0.2693 -0.1325 -0.6098
12162TIP3    H257902   1.887   3.633  15.436  0.7809 -0.6560  0.5015
12163TIP3   OH257903   1.818   0.221   2.591  0.1350 -0.1090 -0.1390
12163TIP3    H157904   1.792   0.188   2.504  1.4368  1.6584 -1.2429
12163TIP3    H257905   1.895   0.169   2.614 -1.1479 -1.6770  0.7079
12164TIP3   OH257906   4.025   6.658  17.062 -0.5891  0.2980 -0.9866
12164TIP3    H157907   4.079   6.701  17.129 -0.4409 -2.1306  0.5398
12164TIP3    H257908   4.085   6.642  16.989  0.2647 -0.6065 -0.0971
12165TIP3   OH257909   1.630   2.892  15.799 -0.0125  0.1434  0.3075
12165TIP3    H157910   1.568   2.867  15.731 -0.0091  0.6465  0.1178
12165TIP3    H257911   1.689   2.954  15.756  0.5348 -0.2250  0.5238
12166TIP3   OH257912   3.128   2.108  11.309 -0.1987  0.2874  0.0749
12166TIP3    H157913   3.092   2.100  11.398  0.9042  0.2182  0.5240
12166TIP3    H257914   3.087   2.035  11.261 -0.8092  0.3276  0.5188
12167TIP3   OH257915   1.062   5.197   2.397  0.1483 -0.4909 -0.1368
12167TIP3    H157916   1.053   5.273   2.338 -1.3011 -1.4880 -1.2514
12167TIP3    H257917   0.985   5.202   2.454  0.4939 -0.6476  0.3387
12168TIP3   OH257918   3.210   1.533  15.727  0.2132 -0.0004  0.2726
12168TIP3    H157919   3.228   1.511  15.636  2.9346  1.3513  0.4185
12168TIP3    H257920   3.216   1.629  15.730 -0.3005 -0.0015  1.7870
12169TIP3   OH257921   4.025   6.357   0.687 -0.0270  0.1068  0.7124
12169TIP3    H157922   4.041   6.421   0.757  0.4852  0.4171  0.3212
12169TIP3    H257923   4.017   6.410   0.608  1.1477 -0.3636  0.2657
12170TIP3   OH257924   4.841   3.141   0.436 -0.7923  0.2189  0.2033
12170TIP3    H157925   4.751   3.146   0.467 -1.1362 -1.6529 -0.4545
12170TIP3    H257926   4.894   3.131   0.516 -1.3782 -1.1153  0.4320
12171TIP3   OH257927   0.524   2.796   1.533 -0.5285  0.1514 -0.3364
12171TIP3    H157928   0.499   2.862   1.469 -1.6114  0.1665  0.0891
12171TIP3    H257929   0.549   2.720   1.481 -1.5875  0.0975 -0.7849
12172TIP3   OH257930   2.662   5.092   1.582 -0.2915 -0.0271 -0.2331
12172TIP3    H157931   2.568   5.109   1.580 -0.2323  0.3021 -0.3259
12172TIP3    H257932   2.670   4.997   1.580 -0.6350 -0.0662  0.1845
12173TIP3   OH257933   2.919   2.820   4.993  0.5245 -0.6552  0.2717
12173TIP3    H157934   2.880   2.821   4.905 -1.1843 -0.7110  1.0061
12173TIP3    H257935   2.974   2.742   4.994 -2.2930 -2.7215  0.4183
12174TIP3   OH257936   1.216   1.496  16.426  0.4984  0.6033 -0.2433
12174TIP3    H157937   1.124   1.520  16.414 -0.5901 -2.3975  1.7157
12174TIP3    H257938   1.219   1.401  16.415  3.4569  0.6706 -0.6281
12175TIP3   OH257939   3.650   0.914  16.958 -0.1988 -0.2960  0.5621
12175TIP3    H157940   3.597   0.853  17.009  0.1547 -1.5859 -0.5788
12175TIP3    H257941   3.597   0.934  16.881 -0.9830  2.1085  1.6805
12176TIP3   OH257942   0.495   0.525   5.965  0.2539  0.2057  0.2860
12176TIP3    H157943   0.460   0.588   6.029  0.9402  2.9806 -1.9811
12176TIP3    H257944   0.590   0.533   5.973  0.3441 -1.1532  0.5539
12177TIP3   OH257945   3.628   6.612  14.314 -0.3473 -0.5317 -0.0953
12177TIP3    H157946   3.641   6.695  14.269  0.0182  0.0017  0.9843
12177TIP3    H257947   3.541   6.583  14.286 -1.0336  0.8747  0.5449
12178TIP3   OH257948   1.065   2.613   5.439  0.3274 -0.1373 -0.0276
12178TIP3    H157949   0.987   2.597   5.492  0.0032  0.9952 -0.1321
12178TIP3    H257950   1.135   2.565   5.484  0.0674  0.8211  1.4534
12179TIP3   OH257951   1.073   2.470  11.082 -0.5612  0.2447  0.8971
12179TIP3    H157952   1.001   2.533  11.081  0.7783  1.8083  0.1050
12179TIP3    H257953   1.093   2.456  10.989 -1.8601 -2.5681  1.0118
12180TIP3   OH257954   0.493   5.320   3.782  0.5446 -0.1672 -0.1906
12180TIP3    H157955   0.547   5.243   3.800  0.2854  0.0246  1.4304
12180TIP3    H257956   0.409   5.301   3.825  0.2360  0.7091 -0.3942
12181TIP3   OH257957   3.999   3.156   3.345  0.0267  0.2844 -0.0003
12181TIP3    H157958   4.072   3.164   3.406  1.0412 -0.6071 -1.0692
12181TIP3    H257959   3.934   3.103   3.391  0.5044  0.1758  0.5479
12182TIP3   OH257960   4.941   4.920  12.277 -0.0342  0.8565 -0.5093
12182TIP3    H157961   4.862   4.870  12.298  0.1123  1.0407  0.5332
12182TIP3    H257962   4.935   4.999  12.332 -0.0796  1.8144 -1.8513
12183TIP3   OH257963   2.442   6.327   1.013 -0.9066  0.7739  0.2023
12183TIP3    H157964   2.419   6.272   1.088  0.5767  1.9024  1.5130
12183TIP3    H257965   2.437   6.269   0.937 -2.3783 -0.3923  1.1760
12184TIP3   OH257966   6.004   0.940  12.054 -0.3484 -0.5855  0.8421
12184TIP3    H157967   5.924   0.992  12.045 -1.1675 -1.9898 -0.3485
12184TIP3    H257968   6.071   1.003  12.077 -1.5645  0.8128  0.6688
12185TIP3   OH257969   6.685   3.106   3.334  0.1250  0.1930  0.2432
12185TIP3    H157970   6.659   3.036   3.274  1.4480 -0.1005 -0.0027
12185TIP3    H257971   6.755   3.067   3.387 -1.3964  0.2713  2.3728
12186TIP3   OH257972   5.443   3.710  15.841 -0.5710  0.1461  0.2958
12186TIP3    H157973   5.507   3.731  15.909 -0.0284  1.2662 -0.5455
12186TIP3    H257974   5.477   3.753  15.762 -0.4010 -2.3847 -1.0608
12187TIP3   OH257975   2.030   3.206   3.963  0.1363 -0.0597  0.3481
12187TIP3    H157976   1.954   3.176   4.013 -1.1187  0.9726 -0.8905
12187TIP3    H257977   2.057   3.130   3.912  0.2973 -0.5892  1.2128
12188TIP3   OH257978   0.486   5.177  13.771 -0.0320  0.4659 -0.8837
12188TIP3    H157979   0.458   5.109  13.832 -0.7530  0.3738 -1.3076
12188TIP3    H257980   0.474   5.259  13.818 -1.1718  0.4346 -1.1184
12189TIP3   OH257981   5.648   4.402  13.512  0.0671 -0.6189 -0.5132
12189TIP3    H157982   5.612   4.478  13.556  1.2101 -0.9989  1.1218
12189TIP3    H257983   5.660   4.430  13.421 -1.8142  0.3410 -0.4918
12190TIP3   OH257984   5.970   1.769   2.234  0.6164  0.2196 -0.2673
12190TIP3    H157985   5.941   1.748   2.145 -1.0146  0.4912  0.1779
12190TIP3    H257986   5.928   1.702   2.289  1.0783  0.4504  0.3665
12191TIP3   OH257987   0.539   1.145  12.949  0.1847  0.0951 -0.6474
12191TIP3    H157988   0.517   1.128  13.040 -0.5447  4.7957  0.1795
12191TIP3    H257989   0.625   1.104  12.937  1.0303  0.7908  2.6429
12192TIP3   OH257990   3.824   6.539  11.837 -0.5349 -0.1953  0.1657
12192TIP3    H157991   3.889   6.604  11.809  0.4306 -0.6988  1.2093
12192TIP3    H257992   3.820   6.548  11.932 -1.4944 -0.6418  0.1695
12193TIP3   OH257993   5.091   0.435   3.571 -0.3306 -0.3306 -0.8390
12193TIP3    H157994   5.145   0.432   3.493 -1.8356 -0.3646 -1.9002
12193TIP3    H257995   5.025   0.502   3.552 -1.6187 -1.4042 -0.2225
12194TIP3   OH257996   2.260   0.615  12.513  0.4864 -0.2388 -0.9204
12194TIP3    H157997   2.248   0.655  12.427 -1.0551  0.6965 -0.2912
12194TIP3    H257998   2.177   0.570  12.531  1.1782 -1.3369 -0.3802
12195TIP3   OH257999   4.163   5.784   2.918  0.0578  0.6812 -0.1438
12195TIP3    H158000   4.086   5.762   2.971  0.5174  0.9182  0.6281
12195TIP3    H258001   4.225   5.713   2.936  0.0039  0.4684 -0.7981
12196TIP3   OH258002   5.597   3.969  15.819 -0.2800 -0.0684  0.3997
12196TIP3    H158003   5.683   4.009  15.817  0.8251 -2.2784  1.6870
12196TIP3    H258004   5.560   3.986  15.732  2.3121 -0.9343 -0.9162
12197TIP3   OH258005   1.277   0.980  13.829 -0.1426  0.2194 -0.3985
12197TIP3    H158006   1.254   1.040  13.758  0.4984  0.7586 -0.1608
12197TIP3    H258007   1.204   0.919  13.834 -1.9035  2.3658  0.8717
12198TIP3   OH258008   4.037   1.324  14.251  0.4774  0.4241  0.1417
12198TIP3    H158009   4.040   1.268  14.329  0.3506 -0.4291 -0.4718
12198TIP3    H258010   4.086   1.276  14.185 -0.0308  0.8193 -0.5259
12199TIP3   OH258011   2.005   1.635  14.544  0.3601  0.1406 -0.1184
12199TIP3    H158012   1.971   1.703  14.486 -1.9222 -0.4557  0.4635
12199TIP3    H258013   2.008   1.677  14.630 -0.7312 -0.3786  0.1802
12200TIP3   OH258014   2.672   1.331  14.732  0.1377  0.0716  0.1345
12200TIP3    H158015   2.742   1.265  14.724 -1.4534 -1.7208  0.5237
12200TIP3    H258016   2.650   1.330  14.825 -0.0099  1.0641  0.1123
12201TIP3   OH258017   1.349   6.246  13.829 -0.5744 -0.1044 -0.1448
12201TIP3    H158018   1.279   6.295  13.786 -0.6311  1.3964  1.5987
12201TIP3    H258019   1.408   6.313  13.862  0.5932 -1.3020  0.2312
12202TIP3   OH258020   5.707   2.418  16.409  0.0578  0.2276  0.1708
12202TIP3    H158021   5.733   2.343  16.356  0.5769  0.4026  0.1704
12202TIP3    H258022   5.776   2.483  16.394  1.2541 -0.4337  2.5318
12203TIP3   OH258023   0.258   0.687   2.810 -0.5758  0.5959  0.4139
12203TIP3    H158024   0.290   0.709   2.723 -2.3800  1.0492 -0.1587
12203TIP3    H258025   0.324   0.627   2.846  1.1240  1.8760 -0.5148
12204TIP3   OH258026   6.343   3.641   0.360  0.0410 -0.5875 -0.1679
12204TIP3    H158027   6.314   3.643   0.269 -1.9494 -0.0649  0.4618
12204TIP3    H258028   6.388   3.724   0.374  0.0447 -0.5237 -0.5739
12205TIP3   OH258029   3.934   0.908  14.289  0.3388  0.7882  0.4266
12205TIP3    H158030   3.976   0.982  14.334 -1.5911  1.4368  1.2247
12205TIP3    H258031   3.841   0.931  14.289 -0.0172 -0.6277 -1.2868
12206TIP3   OH258032   5.590   5.376   2.701 -0.2740 -0.1324 -0.0619
12206TIP3    H158033   5.555   5.295   2.739  0.0381 -0.6076 -0.7892
12206TIP3    H258034   5.675   5.351   2.666 -0.3806  0.4074 -0.7067
12207TIP3   OH258035   5.678   3.383   1.206 -0.0434  0.2054  0.3296
12207TIP3    H158036   5.759   3.424   1.177  0.1786 -1.2740 -1.2021
12207TIP3    H258037   5.702   3.292   1.222 -1.0005  0.1728  1.6622
12208TIP3   OH258038   5.849   2.230   2.327 -0.2593 -0.3107  0.5371
12208TIP3    H158039   5.920   2.274   2.373  1.2063 -1.7123 -0.3277
12208TIP3    H258040   5.893   2.171   2.265 -2.1546 -1.8591  0.6026
12209TIP3   OH258041   2.305   5.159   2.320 -0.1344  0.5754  0.7580
12209TIP3    H158042   2.277   5.071   2.345 -0.7508  0.9027  1.2241
12209TIP3    H258043   2.386   5.173   2.368 -1.2313  1.1398  2.4914
12210TIP3   OH258044   0.934   0.979   2.194 -0.4169 -0.0204 -0.0962
12210TIP3    H158045   1.014   1.007   2.238 -1.2434  0.4600  1.1435
12210TIP3    H258046   0.921   0.889   2.223 -0.0477 -0.2750 -0.7144
12211TIP3   OH258047   2.786   6.302  15.506  0.1730 -0.1100  0.6612
12211TIP3    H158048   2.769   6.315  15.600 -1.6144 -0.5782  0.4116
12211TIP3    H258049   2.817   6.212  15.499 -2.1116 -0.8931  0.4973
12212TIP3   OH258050   2.801   0.425   0.531 -0.5174  0.7560 -0.5455
12212TIP3    H158051   2.896   0.433   0.540 -0.2354 -1.8757 -0.7356
12212TIP3    H258052   2.787   0.409   0.438 -1.1237  0.9608 -0.4904
12213TIP3   OH258053   3.438   3.155  17.096 -0.5171  0.4578  0.1706
12213TIP3    H158054   3.445   3.088  17.027 -1.0925 -1.6403  2.0881
12213TIP3    H258055   3.522   3.150  17.142 -1.0088  0.1735  1.0644
12214TIP3   OH258056   0.755   3.888   2.704  0.1665  0.1333  0.7173
12214TIP3    H158057   0.781   3.842   2.624 -0.5240 -0.5141  0.8600
12214TIP3    H258058   0.742   3.979   2.675 -0.6859 -0.2207 -0.0404
12215TIP3   OH258059   1.053   4.689   4.220  0.0348 -0.8619  0.2848
12215TIP3    H158060   1.055   4.783   4.201 -0.1963 -0.4786  2.0351
12215TIP3    H258061   1.023   4.648   4.139 -0.6754  0.6456 -0.2310
12216TIP3   OH258062   2.132   4.141  13.891  0.4375  0.1055 -0.0513
12216TIP3    H158063   2.152   4.052  13.919 -2.1639  0.3240  2.7832
12216TIP3    H258064   2.044   4.136  13.855 -0.5632  1.8473  2.0370
12217TIP3   OH258065   0.548   2.283   0.165  0.2593  0.2074 -0.3265
12217TIP3    H158066   0.515   2.363   0.206 -1.5068 -1.0243  0.7338
12217TIP3    H258067   0.513   2.212   0.219  3.6204 -1.2336  0.0613
12218TIP3   OH258068   6.499   3.273  16.078 -0.1326 -0.0182  0.2270
12218TIP3    H158069   6.482   3.366  16.093  0.2064  0.1160 -0.1887
12218TIP3    H258070   6.593   3.269  16.058  0.6698 -0.9356  3.9561
12219TIP3   OH258071   6.656   1.476  16.541 -0.4096 -0.1269 -0.2275
12219TIP3    H158072   6.751   1.487  16.540 -0.4754  0.6873  1.7850
12219TIP3    H258073   6.625   1.531  16.469  0.5036  0.8417  0.1125
12220TIP3   OH258074   5.989   1.815   2.745  0.4939  0.2815  0.1623
12220TIP3    H158075   6.032   1.747   2.693 -0.7489  0.0402 -0.5621
12220TIP3    H258076   5.941   1.867   2.680  3.3306  3.3068  0.3825
12221TIP3   OH258077   3.859   5.730   2.336  0.0467 -0.4364 -0.5687
12221TIP3    H158078   3.809   5.762   2.410 -1.8520 -2.3696 -0.9664
12221TIP3    H258079   3.864   5.804   2.275  2.1931  1.3767  1.7026
12222TIP3   OH258080   6.713   2.993   4.718 -0.0934  0.1700 -0.4536
12222TIP3    H158081   6.717   3.084   4.750 -1.9335 -0.8732  3.0550
12222TIP3    H258082   6.788   2.950   4.759 -2.3081 -1.1180  2.4248
12223TIP3   OH258083   5.450   3.194  17.198 -0.2869  0.1585 -0.0428
12223TIP3    H158084   5.396   3.259  17.242 -1.9212 -2.0608  1.3300
12223TIP3    H258085   5.435   3.113  17.247  1.6377 -1.2828 -1.7362
12224TIP3   OH258086   0.338   2.741  12.972  0.0108  0.0752 -0.1486
12224TIP3    H158087   0.422   2.721  12.930 -0.2474  1.2922 -1.2736
12224TIP3    H258088   0.287   2.661  12.960  0.9046 -0.5830  0.3067
12225TIP3   OH258089   6.340   6.241  16.638  0.2048 -0.3270 -0.4436
12225TIP3    H158090   6.371   6.223  16.550 -2.3097  3.4404 -2.2017
12225TIP3    H258091   6.245   6.248  16.630 -0.0796  0.0508  2.5932
12226TIP3   OH258092   3.161   5.159   4.446 -0.0206  0.0590  0.4309
12226TIP3    H158093   3.167   5.144   4.540  1.0813  0.1431  0.3779
12226TIP3    H258094   3.142   5.252   4.437  2.8980  0.7035  0.5052
12227TIP3   OH258095   4.895   4.917   4.668 -0.7266 -0.2259  0.1001
12227TIP3    H158096   4.894   4.865   4.748 -0.9671  2.7699  2.1226
12227TIP3    H258097   4.987   4.925   4.645 -0.6691 -1.2454 -0.0515
12228TIP3   OH258098   0.158   0.334   0.090  0.3012  0.2964  0.0202
12228TIP3    H158099   0.174   0.256   0.144  2.2643 -0.4026 -1.5081
12228TIP3    H258100   0.235   0.341   0.034 -0.2135  2.8964 -0.4449
12229TIP3   OH258101   2.471   4.481   4.963 -0.5671  0.1523 -0.2631
12229TIP3    H158102   2.493   4.521   5.047  1.1075  0.3140 -0.7468
12229TIP3    H258103   2.451   4.555   4.906  3.6740  0.5401 -1.4861
12230TIP3   OH258104   4.485   4.371  15.188  0.2592 -0.0162 -0.0686
12230TIP3    H158105   4.570   4.377  15.232  0.6102  1.9775 -1.0146
12230TIP3    H258106   4.422   4.367  15.260  1.0138  0.4652  0.6301
12231TIP3   OH258107   3.481   0.774  11.099  0.0948  0.1850  0.7581
12231TIP3    H158108   3.535   0.825  11.039  1.0186 -2.1331 -0.4100
12231TIP3    H258109   3.537   0.761  11.176 -0.2282  1.1156  1.1574
12232TIP3   OH258110   6.483   1.785  14.387  0.2353  0.0208 -0.2459
12232TIP3    H158111   6.441   1.780  14.302 -1.6874 -0.6120  0.7115
12232TIP3    H258112   6.556   1.846  14.374  1.8254 -2.3932 -3.0701
12233TIP3   OH258113   4.827   6.399  12.907 -0.0879  0.2724  1.1882
12233TIP3    H158114   4.892   6.453  12.953 -0.3421  1.4075  0.2393
12233TIP3    H258115   4.857   6.309  12.920  0.6577  0.6717  2.3156
12234TIP3   OH258116   2.576   4.661  10.827  0.3600 -0.3920  0.2782
12234TIP3    H158117   2.572   4.676  10.921  0.1049 -1.6679  0.4702
12234TIP3    H258118   2.493   4.696  10.794  0.3051 -0.2458  0.5712
12235TIP3   OH258119   3.908   4.578  12.630  0.0042 -0.3682  0.4291
12235TIP3    H158120   3.849   4.532  12.572 -1.5133  0.1725  1.5218
12235TIP3    H258121   3.862   4.659  12.652  1.4483  0.3855  0.7340
12236TIP3   OH258122   5.162   4.915  14.292  0.2237 -0.5735  0.6569
12236TIP3    H158123   5.154   4.870  14.376 -0.5192 -1.7196 -0.0025
12236TIP3    H258124   5.079   4.961  14.282  0.8712  0.7559  1.1964
12237TIP3   OH258125   1.878   1.787  15.262 -0.2364  0.0426 -0.2827
12237TIP3    H158126   1.972   1.776  15.249 -0.1343  0.6107 -0.0728
12237TIP3    H258127   1.865   1.882  15.261 -0.5123  0.0497  1.7318
12238TIP3   OH258128   2.995   0.514   5.566 -0.3519  0.0325 -0.3655
12238TIP3    H158129   3.066   0.469   5.522  0.5449  0.2139  0.8629
12238TIP3    H258130   3.014   0.504   5.659 -0.7013  2.0286 -0.0501
12239TIP3   OH258131   3.259   1.196   3.282  0.3576  0.0669  0.7199
12239TIP3    H158132   3.317   1.124   3.307 -0.9449 -1.4580 -0.5217
12239TIP3    H258133   3.300   1.233   3.204  0.4309 -0.0511  0.7019
12240TIP3   OH258134   2.620   4.716   3.462  0.2144  0.4284  0.0675
12240TIP3    H158135   2.658   4.700   3.549 -1.2506 -1.6730  0.3629
12240TIP3    H258136   2.560   4.789   3.476 -0.6630 -0.4597  1.0442
12241TIP3   OH258137   5.074   5.734   5.066 -0.3163 -0.5814  0.6055
12241TIP3    H158138   4.991   5.781   5.068  0.9913  1.7087  2.2817
12241TIP3    H258139   5.076   5.692   4.980 -2.6293  0.3544  0.0775
12242TIP3   OH258140   1.683   4.765  12.162  0.3782 -0.2446  0.4270
12242TIP3    H158141   1.711   4.688  12.112  1.1821  0.6648 -0.5393
12242TIP3    H258142   1.618   4.807  12.106  1.5524  0.9815 -0.0371
12243TIP3   OH258143   0.807   1.340   4.367  0.2631 -0.4008  0.7485
12243TIP3    H158144   0.766   1.393   4.435  0.4896  0.3289  0.3251
12243TIP3    H258145   0.812   1.398   4.291  0.4088 -1.0668  0.2439
12244TIP3   OH258146   0.449   4.171   6.071  0.3006  0.0159 -0.6577
12244TIP3    H158147   0.459   4.103   6.004  2.0018  0.3092 -0.7318
12244TIP3    H258148   0.365   4.153   6.111  0.3852 -1.6792 -1.2041
12245TIP3   OH258149   4.198   1.049  13.208  0.1286 -0.1323  0.4386
12245TIP3    H158150   4.280   1.092  13.230 -0.4476  1.1611  0.0992
12245TIP3    H258151   4.201   1.036  13.113  0.8629 -2.0582  0.6950
12246TIP3   OH258152   2.836   6.473   2.332  0.1180 -0.0422 -0.3324
12246TIP3    H158153   2.909   6.444   2.387 -0.8339 -1.7886  0.0464
12246TIP3    H258154   2.868   6.553   2.291  2.3459 -0.8705 -0.3185
12247TIP3   OH258155   5.841   4.588  11.384 -0.3464 -0.1171 -0.2483
12247TIP3    H158156   5.882   4.583  11.470 -2.4187  0.0201  0.8020
12247TIP3    H258157   5.874   4.513  11.336 -0.5778 -1.2498  1.3322
12248TIP3   OH258158   3.472   2.165  15.894  0.2326  0.3150 -0.3735
12248TIP3    H158159   3.414   2.148  15.820  0.0713  1.5389 -0.5371
12248TIP3    H258160   3.422   2.135  15.970  0.3289 -0.7788 -0.7249
12249TIP3   OH258161   3.883   2.388  15.888  0.3687 -0.3341  0.2192
12249TIP3    H158162   3.789   2.402  15.899  0.7303  1.6178  0.8661
12249TIP3    H258163   3.908   2.448  15.818  1.2792 -0.3109  0.5594
12250TIP3   OH258164   0.247   4.641   5.390 -0.7168  0.1783  0.1826
12250TIP3    H158165   0.250   4.618   5.482  0.8382 -0.3631  0.0026
12250TIP3    H258166   0.296   4.723   5.384  0.6164 -0.6344 -0.3921
12251TIP3   OH258167   5.200   0.682   1.250  0.0870  0.5441 -0.4957
12251TIP3    H158168   5.193   0.590   1.226  1.1115  0.2274  0.3750
12251TIP3    H258169   5.189   0.683   1.345 -0.7825  1.4174 -0.5995
12252TIP3   OH258170   0.516   2.427  12.795 -0.1395 -0.2495  0.2694
12252TIP3    H158171   0.490   2.335  12.796 -0.8724 -0.0724 -1.2162
12252TIP3    H258172   0.441   2.473  12.758  0.5209  0.8620  0.2724
12253TIP3   OH258173   5.840   4.223  11.898  0.1094 -0.0213 -0.2279
12253TIP3    H158174   5.855   4.307  11.854  0.8802 -0.0365 -0.0049
12253TIP3    H258175   5.752   4.231  11.936 -0.6491 -0.1026 -1.9555
12254TIP3   OH258176   3.082   5.832   0.047 -0.0639 -0.3255  0.0021
12254TIP3    H158177   3.030   5.906   0.079 -1.7134 -1.6403  0.4250
12254TIP3    H258178   3.159   5.873   0.007 -0.4658  1.5703  1.0912
12255TIP3   OH258179   6.147   1.775  12.270  0.0148 -0.2314 -0.0484
12255TIP3    H158180   6.093   1.726  12.208  1.0068 -0.5276 -0.6973
12255TIP3    H258181   6.111   1.863  12.269 -0.0466 -0.2533 -0.9991
12256TIP3   OH258182   5.949   4.436   1.791  0.0191 -0.0248 -0.0517
12256TIP3    H158183   5.986   4.394   1.714  0.5708  1.4918 -0.6451
12256TIP3    H258184   5.857   4.410   1.791 -0.1991  0.6673 -1.7502
12257TIP3   OH258185   2.718   0.258   2.793  0.1374  0.0979 -0.2151
12257TIP3    H158186   2.727   0.174   2.748  0.5284 -0.1600  0.3544
12257TIP3    H258187   2.736   0.323   2.725 -0.2533 -0.2729 -0.6779
12258TIP3   OH258188   3.100   1.300  15.536 -0.3023 -0.5378  0.6815
12258TIP3    H158189   3.064   1.349  15.609  0.1030 -2.3298  2.1160
12258TIP3    H258190   3.168   1.245  15.575  0.9586 -0.4161 -1.2807
12259TIP3   OH258191   3.273   0.780  13.853  0.5137 -0.3082  0.3320
12259TIP3    H158192   3.307   0.740  13.933 -1.7526 -1.4491  0.7685
12259TIP3    H258193   3.195   0.729  13.832 -1.9267  3.2531  0.3403
12260TIP3   OH258194   1.766   1.447  17.023 -0.1499  0.4873 -0.0074
12260TIP3    H158195   1.861   1.455  17.021 -0.0342 -0.5029  1.1967
12260TIP3    H258196   1.748   1.366  16.975 -0.4531  1.0834 -0.9217
12261TIP3   OH258197   0.272   4.971   3.343 -0.0612  0.3658 -0.1058
12261TIP3    H158198   0.365   4.983   3.362  0.0235  0.4750 -0.5970
12261TIP3    H258199   0.270   4.898   3.281 -0.1264  2.0087 -2.0568
12262TIP3   OH258200   0.536   2.083   4.871 -0.0861 -0.0921 -0.1833
12262TIP3    H158201   0.535   2.139   4.793 -0.8041  1.9946  1.2823
12262TIP3    H258202   0.560   2.142   4.943 -1.6776 -1.4696  1.5311
12263TIP3   OH258203   4.466   0.709  16.169  0.5598  0.0616  0.1943
12263TIP3    H158204   4.488   0.775  16.103 -1.0908 -1.6086 -2.1043
12263TIP3    H258205   4.381   0.737  16.203 -0.4771 -1.1956 -1.2860
12264TIP3   OH258206   0.925   3.823   0.354 -0.0387  0.0131  0.1414
12264TIP3    H158207   1.011   3.838   0.315 -0.4797 -0.1818 -0.9151
12264TIP3    H258208   0.867   3.884   0.308 -0.3378  0.6535  1.3381
12265TIP3   OH258209   2.686   2.231   4.341 -0.0148  0.2377 -0.4033
12265TIP3    H158210   2.738   2.224   4.261  0.0775 -0.3461 -0.2923
12265TIP3    H258211   2.647   2.319   4.336  1.3695  0.8813 -0.2423
12266TIP3   OH258212   1.196   0.165  16.073  0.3827  0.4888  0.9093
12266TIP3    H158213   1.285   0.198  16.086  0.7872  0.4688 -1.4932
12266TIP3    H258214   1.155   0.231  16.017 -0.8292  0.0622  1.3028
12267TIP3   OH258215   6.579   1.328  12.907  0.0405  0.7749 -0.1516
12267TIP3    H158216   6.629   1.246  12.902  1.2760  1.4858  0.3146
12267TIP3    H258217   6.599   1.373  12.825 -2.6159 -0.4832 -1.5340
12268TIP3   OH258218   2.296   5.282  14.583  0.5406  0.2932 -0.1077
12268TIP3    H158219   2.341   5.198  14.597 -0.3644 -0.1478  0.2565
12268TIP3    H258220   2.334   5.340  14.649 -0.4170 -0.4824  1.1650
12269TIP3   OH258221   0.682   4.050   3.877  0.1481  0.6330  0.0329
12269TIP3    H158222   0.736   4.032   3.800  0.3365  0.1625  0.2721
12269TIP3    H258223   0.651   3.964   3.905 -0.3827  0.8588  0.1484
12270TIP3   OH258224   5.515   1.219   0.176  0.1742 -0.1174 -0.2624
12270TIP3    H158225   5.420   1.223   0.188  0.3212  0.1087  0.8350
12270TIP3    H258226   5.526   1.202   0.082 -0.9557 -0.6304 -0.3118
12271TIP3   OH258227   2.702   5.172   1.275 -0.5801 -0.2374 -0.0888
12271TIP3    H158228   2.608   5.176   1.257 -0.6193 -2.3581 -0.4191
12271TIP3    H258229   2.709   5.194   1.368 -1.1493  2.3165 -0.6067
12272TIP3   OH258230   0.285   1.720   4.749  0.5406 -0.1041  0.2799
12272TIP3    H158231   0.354   1.659   4.774  0.4438 -1.0303 -1.5493
12272TIP3    H258232   0.214   1.703   4.811  0.6483 -1.6507  0.0048
12273TIP3   OH258233   0.780   5.032   2.239  0.0412 -0.3921 -0.8279
12273TIP3    H158234   0.784   4.995   2.327 -0.2562  0.5606 -0.4054
12273TIP3    H258235   0.689   5.021   2.212 -0.4661  1.5190 -0.0243
12274TIP3   OH258236   5.195   0.399   1.210  0.3435  0.1577 -0.2105
12274TIP3    H158237   5.247   0.366   1.137 -1.1224 -2.0441 -0.2882
12274TIP3    H258238   5.105   0.394   1.180 -0.4349 -2.4455  2.3590
12275TIP3   OH258239   5.069   2.376   1.272  0.0231 -0.1066  0.1136
12275TIP3    H158240   5.020   2.450   1.307  0.1399 -0.5733  1.2991
12275TIP3    H258241   5.066   2.310   1.341  0.4683 -0.9692 -0.6680
12276TIP3   OH258242   1.040   4.579  13.482 -0.0416 -0.4700 -0.4417
12276TIP3    H158243   0.989   4.529  13.546 -1.1385 -0.1718 -1.0763
12276TIP3    H258244   0.997   4.665  13.478  1.9742  0.6355  0.8231
12277TIP3   OH258245   0.831   0.055  15.769 -0.1939  0.0466 -0.3571
12277TIP3    H158246   0.871   0.097  15.693 -0.5854 -0.0320 -0.6069
12277TIP3    H258247   0.877   0.092  15.844 -0.5746  0.9556 -0.5735
12278TIP3   OH258248   1.237   1.876  13.762 -0.3499  0.6002  0.1808
12278TIP3    H158249   1.147   1.894  13.790 -1.0616 -1.1707 -0.8605
12278TIP3    H258250   1.227   1.821  13.684  1.6519 -0.2461  0.4978
12279TIP3   OH258251   0.158   3.601  15.842 -0.2231  0.1551  0.0344
12279TIP3    H158252   0.231   3.624  15.785 -0.5449 -0.3133 -0.5764
12279TIP3    H258253   0.123   3.520  15.805  0.4818 -0.9658  1.7571
12280TIP3   OH258254   3.450   5.706   3.940  0.1840 -0.0994  0.3801
12280TIP3    H158255   3.496   5.751   4.010  0.1915  1.4366 -0.5986
12280TIP3    H258256   3.389   5.647   3.985 -0.5310  1.5978  1.6868
12281TIP3   OH258257   1.378   3.706   5.979 -0.2836  0.6022  0.5169
12281TIP3    H158258   1.317   3.643   5.942  0.7216  0.4460 -0.9150
12281TIP3    H258259   1.380   3.685   6.072 -2.5009  0.7089  0.6147
12282TIP3   OH258260   2.332   2.130  16.048  0.3853 -0.8954 -0.6805
12282TIP3    H158261   2.306   2.221  16.031  1.4972 -0.7795 -1.8444
12282TIP3    H258262   2.402   2.137  16.112 -0.6575 -1.0483  0.4944
12283TIP3   OH258263   4.219   1.614   4.418 -0.1025  0.6729  0.2408
12283TIP3    H158264   4.161   1.537   4.418 -1.0065  1.3394 -0.2545
12283TIP3    H258265   4.159   1.688   4.430  0.7236  1.3245  0.3398
12284TIP3   OH258266   3.702   6.075  14.977  0.0199  0.1363  0.6877
12284TIP3    H158267   3.628   6.059  14.917  0.1251  0.0951  0.5668
12284TIP3    H258268   3.686   6.162  15.012  0.4303  0.5349 -0.0932
12285TIP3   OH258269   5.540   4.073   0.340  0.0989 -0.1931 -0.5637
12285TIP3    H158270   5.481   4.130   0.290  1.5892  0.5013 -1.5909
12285TIP3    H258271   5.617   4.128   0.357  0.3493 -0.9999  0.9706
12286TIP3   OH258272   3.636   4.230   3.269 -0.2187  0.0242 -0.1853
12286TIP3    H158273   3.572   4.285   3.224  0.1253 -0.5748 -1.4335
12286TIP3    H258274   3.673   4.287   3.337 -1.9092  0.4258  0.4021
12287TIP3   OH258275   6.315   4.698   2.365  0.3546 -0.7596 -0.2253
12287TIP3    H158276   6.233   4.656   2.393  0.5848  0.6507  2.7043
12287TIP3    H258277   6.309   4.787   2.399  1.0722  0.8355 -4.0680
12288TIP3   OH258278   3.600   5.484   0.645 -0.4342 -0.3067  0.3500
12288TIP3    H158279   3.665   5.428   0.686 -0.5347 -1.4196 -1.0050
12288TIP3    H258280   3.516   5.442   0.666 -0.6692  0.5662  1.2218
12289TIP3   OH258281   1.457   5.498   4.400  0.5078  0.0976 -0.0362
12289TIP3    H158282   1.418   5.493   4.487  1.5056  0.5066  0.4356
12289TIP3    H258283   1.499   5.412   4.388 -1.2620 -0.6847 -0.9093
12290TIP3   OH258284   4.770   5.282  14.260  0.2473  0.0669  0.0516
12290TIP3    H158285   4.808   5.326  14.184  1.4499 -1.4295 -0.2164
12290TIP3    H258286   4.696   5.338  14.285 -0.1569  0.5715 -2.1953
12291TIP3   OH258287   3.783   3.666  11.128 -0.1955 -0.0095  0.1526
12291TIP3    H158288   3.718   3.666  11.198 -0.6164 -1.0082 -0.2321
12291TIP3    H258289   3.861   3.625  11.166 -1.0052 -2.1908 -0.4775
12292TIP3   OH258290   2.919   1.924  17.035 -0.3802  0.2029 -0.5315
12292TIP3    H158291   2.890   2.008  17.072  2.7880  1.2818 -0.3502
12292TIP3    H258292   2.984   1.948  16.969  1.0644 -2.1207 -0.0142
12293TIP3   OH258293   2.003   1.834   0.803 -1.0515 -0.4829  0.6913
12293TIP3    H158294   1.935   1.770   0.823  0.6224 -2.9834 -1.2981
12293TIP3    H258295   2.080   1.802   0.850 -0.3836  0.5033  0.2857
12294TIP3   OH258296   5.536   2.843  12.173  0.0646  0.2475  0.2698
12294TIP3    H158297   5.561   2.791  12.096  0.0262  1.5252 -0.6192
12294TIP3    H258298   5.585   2.803  12.245  2.5834  0.9606 -0.9676
12295TIP3   OH258299   3.415   6.093  13.563 -0.2706  0.4284 -0.4536
12295TIP3    H158300   3.415   6.181  13.601 -0.5635  0.9814 -1.6850
12295TIP3    H258301   3.493   6.091  13.508  0.8230 -0.7894  1.1056
12296TIP3   OH258302   6.066   1.106   0.238  0.5583  0.2725 -0.0803
12296TIP3    H158303   5.999   1.041   0.219  2.2899 -1.8311  0.6638
12296TIP3    H258304   6.043   1.141   0.324  0.4292 -0.4877  0.1969
12297TIP3   OH258305   4.298   3.338   4.972  0.4917  0.2888 -0.0331
12297TIP3    H158306   4.240   3.356   4.898  0.5910 -0.9419 -0.4182
12297TIP3    H258307   4.240   3.336   5.048 -0.0934 -1.7142 -0.5188
12298TIP3   OH258308   4.079   1.939  16.462  0.3336 -0.6292 -0.3271
12298TIP3    H158309   4.059   1.851  16.494 -1.8492  0.4938  1.6054
12298TIP3    H258310   4.030   1.946  16.379 -1.0309 -0.6167  0.4585
12299TIP3   OH258311   6.599   0.986   2.223  0.4395  0.4666 -0.7399
12299TIP3    H158312   6.528   0.935   2.262 -0.0460  1.0618 -0.8198
12299TIP3    H258313   6.576   1.077   2.242  1.4830  0.6382 -0.2767
12300TIP3   OH258314   0.590   5.724  10.728 -0.2193 -0.2687  0.0814
12300TIP3    H158315   0.509   5.772  10.742 -0.4516 -1.0271  1.4979
12300TIP3    H258316   0.563   5.640  10.691  0.0688  0.1248 -1.0497
12301TIP3   OH258317   4.477   4.634   3.290  0.3293 -0.6205 -0.0579
12301TIP3    H158318   4.462   4.564   3.354  1.8523 -1.5075 -0.6470
12301TIP3    H258319   4.523   4.702   3.339 -2.2479  0.5446  0.8346
12302TIP3   OH258320   0.026   6.015  17.046  0.4238  0.0437  0.2224
12302TIP3    H158321   0.113   5.983  17.024  0.3884  1.4141 -2.1222
12302TIP3    H258322  -0.033   5.966  16.989  0.1450  2.3758 -1.5831
12303TIP3   OH258323   1.488   6.682   3.954  0.5461  0.9460 -0.6138
12303TIP3    H158324   1.453   6.661   3.868 -1.1869  1.9859 -0.1883
12303TIP3    H258325   1.579   6.652   3.951 -0.3605 -1.7920 -1.7450
12304TIP3   OH258326   5.348   0.310   0.197 -0.1193 -0.1524  0.0802
12304TIP3    H158327   5.301   0.355   0.268  2.1420  1.9811  0.2777
12304TIP3    H258328   5.281   0.297   0.129 -1.4763  1.0375  1.1489
12305TIP3   OH258329   4.501   3.203  12.779 -0.2453 -0.0967 -0.6096
12305TIP3    H158330   4.544   3.245  12.853 -1.0546  1.1795 -0.8462
12305TIP3    H258331   4.549   3.121  12.766  1.3738  0.7579 -0.1579
12306TIP3   OH258332   5.104   5.084   5.319 -0.5629 -0.5187  0.6376
12306TIP3    H158333   5.079   5.092   5.411  1.6147 -0.6652  1.2714
12306TIP3    H258334   5.021   5.081   5.271 -1.6977  0.7512  2.4873
12307TIP3   OH258335   5.832   5.879  12.261 -0.0532 -0.2754 -0.0257
12307TIP3    H158336   5.739   5.893  12.240 -0.1366  0.5212  0.8224
12307TIP3    H258337   5.879   5.923  12.191 -0.3263  1.1125  0.6490
12308TIP3   OH258338   1.141   5.070   5.101  0.0655  0.3358  0.5705
12308TIP3    H158339   1.200   5.124   5.153  0.0466  0.5417  0.3788
12308TIP3    H258340   1.188   4.987   5.090  0.9338  1.0037 -0.8059
12309TIP3   OH258341   3.764   4.980   2.790  0.6108  0.4930  0.7847
12309TIP3    H158342   3.765   4.925   2.712 -0.7193  0.4311  0.7974
12309TIP3    H258343   3.701   5.049   2.770 -0.3753  0.0050  2.1054
12310TIP3   OH258344   2.311   4.194  12.875 -0.0582 -0.3704  0.3063
12310TIP3    H158345   2.271   4.275  12.843  1.5498  0.0286 -0.7596
12310TIP3    H258346   2.372   4.223  12.944  1.6415 -0.4841 -1.1154
12311TIP3   OH258347   6.253   6.539  10.557 -0.8334 -0.5331  0.1950
12311TIP3    H158348   6.311   6.469  10.525 -1.8778 -0.7100 -1.3700
12311TIP3    H258349   6.276   6.615  10.504 -0.3324  0.0957  1.2799
12312TIP3   OH258350   4.469   2.808  10.286  0.1551  0.2273 -0.4222
12312TIP3    H158351   4.488   2.899  10.266  0.9493 -0.0315 -0.8522
12312TIP3    H258352   4.528   2.786  10.358  1.1990 -0.4455 -1.4634
12313TIP3   OH258353   4.437   3.938  14.087  0.2138  0.2501  0.6213
12313TIP3    H158354   4.450   3.953  13.993  0.5935  1.6985  0.8904
12313TIP3    H258355   4.347   3.967  14.103  0.1666  0.0494  0.7183
12314TIP3   OH258356   2.574   6.432  11.343 -0.4450 -0.3355  0.2984
12314TIP3    H158357   2.628   6.461  11.270  0.9446  0.2533  1.5417
12314TIP3    H258358   2.631   6.376  11.395 -1.7793 -1.7001  0.3259
12315TIP3   OH258359   0.297   5.723  13.512 -0.2613 -0.1358  0.6050
12315TIP3    H158360   0.389   5.704  13.496 -0.5365  0.5432 -1.9469
12315TIP3    H258361   0.249   5.652  13.469 -0.9357 -0.8240  2.4418
12316TIP3   OH258362   0.937   2.733   5.019  0.0602 -0.2459  0.4825
12316TIP3    H158363   0.864   2.794   5.029 -1.0108 -1.4466 -0.0530
12316TIP3    H258364   0.919   2.685   4.939  0.9089 -1.2714  0.8842
12317TIP3   OH258365   0.545   2.823   6.119 -0.0740 -0.0134  0.2606
12317TIP3    H158366   0.539   2.915   6.094  0.1718 -0.0415  0.0913
12317TIP3    H258367   0.639   2.808   6.133 -0.1113 -0.2420  0.2713
12318TIP3   OH258368   4.719   6.436   0.242 -0.0884  0.5762 -0.0927
12318TIP3    H158369   4.715   6.442   0.147  0.5857  2.0598 -0.0368
12318TIP3    H258370   4.749   6.522   0.271 -0.9357  0.3570  1.5067
12319TIP3   OH258371   6.514   5.584   1.565  0.0321  0.2088 -0.4675
12319TIP3    H158372   6.496   5.657   1.623  1.2111  1.6450 -1.8452
12319TIP3    H258373   6.562   5.521   1.619 -2.7165 -0.4749  1.2674
12320TIP3   OH258374   5.547   5.735  14.701  0.0603  0.4738  0.1980
12320TIP3    H158375   5.476   5.761  14.759  0.4284 -1.1243  1.3995
12320TIP3    H258376   5.503   5.705  14.621 -0.5356  0.7822  0.4030
12321TIP3   OH258377   6.350   5.166   2.016  0.0853  0.6859  0.3112
12321TIP3    H158378   6.330   5.209   2.100 -0.4160 -0.3786  0.7363
12321TIP3    H258379   6.350   5.073   2.036  0.1396  0.4314 -0.8462
12322TIP3   OH258380   4.581   4.085  16.820 -0.1798 -0.2514  0.4486
12322TIP3    H158381   4.641   4.010  16.827 -0.2103 -0.2826  0.3769
12322TIP3    H258382   4.568   4.114  16.910  1.9686  1.3544  0.2743
12323TIP3   OH258383   5.999   1.587   3.789 -0.0642 -0.1167 -0.4433
12323TIP3    H158384   6.017   1.658   3.851  0.2625  0.6935 -1.4592
12323TIP3    H258385   5.984   1.631   3.706 -1.1922 -1.1554 -0.8038
12324TIP3   OH258386   0.625   1.135   3.240 -0.0049  0.0001 -0.8218
12324TIP3    H158387   0.585   1.207   3.289 -0.2906 -2.0447  1.9969
12324TIP3    H258388   0.711   1.169   3.214 -0.1404  1.3648  0.4735
12325TIP3   OH258389   5.693   0.569  12.614 -0.2499  0.6269  0.0285
12325TIP3    H158390   5.671   0.476  12.616 -2.6410  1.1025 -1.5871
12325TIP3    H258391   5.673   0.601  12.702 -0.1664 -0.2310  0.3577
12326TIP3   OH258392   3.204   0.569  11.981 -0.2074 -0.9054 -0.3584
12326TIP3    H158393   3.254   0.591  12.060 -0.2661 -1.0910 -0.2690
12326TIP3    H258394   3.270   0.540  11.918 -0.4030 -3.4504  0.5286
12327TIP3   OH258395   4.262   3.731  14.775  0.1120 -1.0524 -0.2289
12327TIP3    H158396   4.214   3.813  14.784 -1.0843 -1.9616  2.1158
12327TIP3    H258397   4.354   3.756  14.779 -0.1839  0.4508 -2.3478
12328TIP3   OH258398   5.881   6.434  12.664  0.1953  0.1550 -0.2412
12328TIP3    H158399   5.861   6.365  12.601 -1.3208  0.4736 -0.1167
12328TIP3    H258400   5.929   6.499  12.612 -0.0528 -0.1041 -0.8061
12329TIP3   OH258401   4.318   0.637   4.409  0.4695 -0.0426 -0.0542
12329TIP3    H158402   4.267   0.562   4.380 -0.0807 -0.5002  1.9831
12329TIP3    H258403   4.257   0.711   4.405 -0.0797 -0.3941  1.3635
12330TIP3   OH258404   1.542   0.942  11.996  0.0874 -0.6983  0.3035
12330TIP3    H158405   1.512   0.851  11.988 -1.2408 -0.2086 -0.3728
12330TIP3    H258406   1.588   0.959  11.914 -0.2880 -0.5437  0.1209
12331TIP3   OH258407   2.647   6.068   0.813  0.7769 -0.0198 -0.2010
12331TIP3    H158408   2.699   6.085   0.891  0.0334  0.9983  0.0721
12331TIP3    H258409   2.561   6.106   0.831  0.0151 -1.4124 -0.7768
12332TIP3   OH258410   6.366   5.329   6.295 -0.2073  0.3105 -0.4791
12332TIP3    H158411   6.308   5.270   6.344 -0.2750  1.4993  0.8949
12332TIP3    H258412   6.447   5.330   6.345 -0.0713  1.0779 -0.7121
12333TIP3   OH258413   0.199   3.047  12.018  0.2833  0.2786  0.4175
12333TIP3    H158414   0.118   3.049  12.068 -0.7337 -0.5637 -1.1725
12333TIP3    H258415   0.180   2.993  11.942  2.0204  0.9316 -0.5264
12334TIP3   OH258416   1.709   1.011   0.021 -0.1693 -0.2958  0.1038
12334TIP3    H158417   1.621   1.050   0.021  0.7941  1.9768 -0.2595
12334TIP3    H258418   1.714   0.963   0.104 -1.8013 -0.5970  0.0481
12335TIP3   OH258419   5.233   3.151   4.629 -0.0592  0.1492  0.0022
12335TIP3    H158420   5.309   3.106   4.593  0.2045  1.0180 -0.5528
12335TIP3    H258421   5.219   3.111   4.715 -2.1183 -3.5786 -1.9586
12336TIP3   OH258422   5.798   6.756  14.154  0.1702 -0.0950  0.0480
12336TIP3    H158423   5.849   6.818  14.102 -0.5721  0.7991  0.3889
12336TIP3    H258424   5.760   6.696  14.089  0.2992  0.2374 -0.3332
12337TIP3   OH258425   2.476   0.168  13.400 -0.3205  0.6306 -0.2398
12337TIP3    H158426   2.433   0.226  13.463 -0.0840  0.0244  0.4940
12337TIP3    H258427   2.419   0.091  13.395  0.5480 -0.0765  0.5672
12338TIP3   OH258428   6.197   2.100   2.350 -0.4793  0.0335 -0.8732
12338TIP3    H158429   6.280   2.133   2.315 -0.2277 -0.2792 -0.5798
12338TIP3    H258430   6.151   2.066   2.273 -0.9554  1.5056 -1.2555
12339TIP3   OH258431   6.462   5.255  11.248 -0.1033  0.2003 -0.1699
12339TIP3    H158432   6.399   5.327  11.244 -0.8888 -0.5812 -2.1519
12339TIP3    H258433   6.443   5.202  11.171  0.7455 -1.9149  1.0521
12340TIP3   OH258434   4.685   3.041   4.666  0.0994  0.0812 -0.2299
12340TIP3    H158435   4.635   3.107   4.713 -0.3886 -0.8559  0.6127
12340TIP3    H258436   4.720   2.985   4.736 -1.0495 -1.6349 -0.9884
12341TIP3   OH258437   3.870   0.428   3.031 -0.1417  0.1460 -0.0820
12341TIP3    H158438   3.868   0.464   3.120 -2.4813  1.3466 -0.5624
12341TIP3    H258439   3.778   0.409   3.012  0.3785 -0.3757 -2.1375
12342TIP3   OH258440   0.165   0.576  14.085 -0.1218 -0.1195  0.1920
12342TIP3    H158441   0.094   0.614  14.033  0.7655  3.4694  1.4680
12342TIP3    H258442   0.233   0.557  14.021 -1.4949 -1.9192 -0.7939
12343TIP3   OH258443   2.496   0.497  11.808 -0.4456  0.1204  0.3486
12343TIP3    H158444   2.586   0.465  11.799 -0.3569  0.4613  0.0420
12343TIP3    H258445   2.505   0.591  11.821 -0.7426  0.1073  0.6499
12344TIP3   OH258446   4.854   2.513   0.964  0.2807  0.0450  0.3879
12344TIP3    H158447   4.900   2.433   0.988 -1.0567 -0.9808 -0.4552
12344TIP3    H258448   4.845   2.561   1.046 -1.8315 -2.1775  1.5169
12345TIP3   OH258449   3.473   2.210   0.459 -0.0067  0.2962  0.0783
12345TIP3    H158450   3.477   2.190   0.553 -0.0681  0.3658  0.0968
12345TIP3    H258451   3.506   2.300   0.453 -0.3068  0.4059  0.0726
12346TIP3   OH258452   1.597   0.818   5.710 -0.3570  0.2170  0.1131
12346TIP3    H158453   1.566   0.877   5.642 -0.8188  1.0657  1.0550
12346TIP3    H258454   1.607   0.733   5.666  1.4997  1.2543 -1.5495
12347TIP3   OH258455   2.099   3.414   4.293 -0.7445  0.2398 -0.0248
12347TIP3    H158456   2.157   3.338   4.291  0.5502  1.2231 -1.9088
12347TIP3    H258457   2.013   3.378   4.314 -0.1528 -1.7408 -0.8557
12348TIP3   OH258458   4.706   2.124  15.717 -0.2170 -0.0350 -0.2219
12348TIP3    H158459   4.658   2.110  15.636  0.0670 -0.0863 -0.3837
12348TIP3    H258460   4.719   2.219  15.721 -1.5778  0.1278  0.5460
12349TIP3   OH258461   3.261   3.561  12.292  0.4395  0.4946  0.1098
12349TIP3    H158462   3.292   3.531  12.377 -1.1997 -1.3098  0.0957
12349TIP3    H258463   3.329   3.534  12.231  1.4556  1.4855  0.7896
12350TIP3   OH258464   5.532   5.208   1.355 -0.0260  0.7002 -0.5360
12350TIP3    H158465   5.499   5.276   1.413 -0.3422  1.0078 -1.0707
12350TIP3    H258466   5.612   5.245   1.317  1.4021 -0.3317  1.3325
12351TIP3   OH258467   5.555   1.791   3.158 -0.6699 -0.0690 -0.5932
12351TIP3    H158468   5.593   1.703   3.161 -0.0382  0.2478  0.7415
12351TIP3    H258469   5.549   1.811   3.064  0.6435 -0.8977 -0.8602
12352TIP3   OH258470   5.203   3.892  16.452  0.5265 -0.5393 -0.1490
12352TIP3    H158471   5.220   3.986  16.456  1.9792 -0.8307  0.9125
12352TIP3    H258472   5.287   3.851  16.473 -0.0069 -2.0852 -0.9062
12353TIP3   OH258473   0.729   6.634   1.047  0.3049 -0.0048 -0.3444
12353TIP3    H158474   0.648   6.623   1.098  0.8923  0.2055  0.6631
12353TIP3    H258475   0.703   6.687   0.972 -0.4257  0.3374  0.1397
12354TIP3   OH258476   2.735   3.272  15.680 -0.2133  0.3197 -0.1189
12354TIP3    H158477   2.795   3.338  15.714 -0.7373  2.3533 -2.9400
12354TIP3    H258478   2.791   3.198  15.656  0.8236  1.0969 -0.1294
12355TIP3   OH258479   4.909   1.922   2.076 -0.3676 -0.4479 -0.9852
12355TIP3    H158480   4.962   1.938   2.153 -2.3682  1.3471  0.1030
12355TIP3    H258481   4.958   1.963   2.004  0.9988 -1.2093 -0.4938
12356TIP3   OH258482   2.011   0.286  10.982  0.2297 -0.0528  0.3315
12356TIP3    H158483   2.080   0.341  10.944 -1.3933  1.2400 -0.8371
12356TIP3    H258484   1.984   0.332  11.061 -1.6624  1.3372 -1.0499
12357TIP3   OH258485   0.537   3.372   2.783 -0.5185 -0.1936  0.3750
12357TIP3    H158486   0.595   3.297   2.780 -0.4435 -0.1700  1.1115
12357TIP3    H258487   0.534   3.404   2.693  0.7343 -0.0908  0.3636
12358TIP3   OH258488   0.941   3.540   2.863 -0.1105  0.3041 -0.1674
12358TIP3    H158489   0.990   3.603   2.810 -0.0880 -1.1636 -1.9350
12358TIP3    H258490   0.927   3.465   2.805 -1.8289 -0.5373  1.2775
12359TIP3   OH258491   0.873   4.200  15.892 -0.1282  0.2538  0.1638
12359TIP3    H158492   0.930   4.132  15.929 -0.7421 -0.8156 -0.8068
12359TIP3    H258493   0.863   4.264  15.963  0.5586 -0.6032  1.0588
12360TIP3   OH258494   0.357   4.800   2.302  0.0360  0.3537  0.3646
12360TIP3    H158495   0.296   4.821   2.373 -0.5658 -2.1328  0.6440
12360TIP3    H258496   0.409   4.727   2.336 -0.2019 -0.8173 -1.6685
12361TIP3   OH258497   4.517   5.750   2.886  0.4673  0.2566 -0.2163
12361TIP3    H158498   4.509   5.802   2.966 -1.1871  0.1714 -0.3006
12361TIP3    H258499   4.442   5.690   2.889  0.5310  0.0800 -1.6877
12362TIP3   OH258500   4.931   2.774   6.059 -0.1750  0.9632  0.1580
12362TIP3    H158501   4.970   2.859   6.078 -0.1052  0.8832  0.3780
12362TIP3    H258502   4.837   2.788   6.072  0.1342  0.1005  3.7422
12363TIP3   OH258503   2.193   1.335  14.276  0.3074  0.0986 -0.4539
12363TIP3    H158504   2.262   1.321  14.211  1.3515 -2.5933  1.1477
12363TIP3    H258505   2.215   1.418  14.318  2.9004 -0.9541  0.3622
12364TIP3   OH258506   2.951   2.065   2.366 -0.3619 -0.3279  0.0682
12364TIP3    H158507   2.882   2.104   2.418  2.2771 -0.7711  4.1506
12364TIP3    H258508   2.919   1.977   2.344 -0.9868 -0.6310  2.1704
12365TIP3   OH258509   3.494   6.046   3.973  0.2507 -0.2690  0.1929
12365TIP3    H158510   3.584   6.055   4.005 -0.6662 -0.4102  2.8888
12365TIP3    H258511   3.456   6.133   3.984 -0.0604 -0.2854 -0.6780
12366TIP3   OH258512   6.705   0.931  15.316  0.4513  0.1071  0.1922
12366TIP3    H158513   6.783   0.898  15.359  2.3397  1.9194 -1.7188
12366TIP3    H258514   6.701   0.884  15.233  0.2377  0.9222 -0.2658
12367TIP3   OH258515   4.608   0.125  16.650 -0.8594 -0.3116 -0.1907
12367TIP3    H158516   4.564   0.157  16.571  0.5561 -0.4172 -1.0282
12367TIP3    H258517   4.701   0.123  16.627 -0.4564 -0.5314  1.4170
12368TIP3   OH258518   4.194   4.334  12.347  0.0094  0.1150  0.2476
12368TIP3    H158519   4.171   4.245  12.376 -1.9948  0.4273 -0.2612
12368TIP3    H258520   4.192   4.386  12.427  1.3201 -0.3032  0.5689
12369TIP3   OH258521   4.610   2.242   3.835 -0.0961 -0.3122 -0.3192
12369TIP3    H158522   4.626   2.321   3.782  0.3510 -0.7617 -0.8604
12369TIP3    H258523   4.698   2.207   3.851 -0.1352  0.4973  1.7721
12370TIP3   OH258524   6.251   2.483   2.851  0.0461  0.1901 -0.2264
12370TIP3    H158525   6.252   2.395   2.814  0.9564  0.7569 -1.5852
12370TIP3    H258526   6.306   2.534   2.792  2.3132  0.9173  2.4424
12371TIP3   OH258527   5.081   2.216  12.258  0.1347  0.4215  0.0644
12371TIP3    H158528   4.989   2.234  12.243  0.2913  0.6456 -0.6604
12371TIP3    H258529   5.090   2.210  12.354 -0.9229 -1.2545  0.0693
12372TIP3   OH258530   4.560   2.871   3.004 -0.0112 -0.1478 -0.1183
12372TIP3    H158531   4.480   2.923   3.004  0.7106  0.9940  0.0212
12372TIP3    H258532   4.609   2.903   2.928  0.7071 -0.2106  0.3144
12373TIP3   OH258533   1.768   5.602  14.448 -0.7086 -0.7771  0.8296
12373TIP3    H158534   1.838   5.667  14.444 -1.9999  0.6602  0.8258
12373TIP3    H258535   1.802   5.526  14.400 -0.3661  1.0569 -1.9508
12374TIP3   OH258536   3.041   4.376  12.770 -0.2862 -0.2515  0.4220
12374TIP3    H158537   3.074   4.288  12.758 -1.6831 -0.5430 -1.4841
12374TIP3    H258538   3.089   4.410  12.846 -0.0850 -2.8029  1.4795
12375TIP3   OH258539   1.555   3.717   6.233  0.0385  0.7664 -0.2245
12375TIP3    H158540   1.509   3.636   6.212 -0.5566  0.6760  1.3342
12375TIP3    H258541   1.648   3.696   6.224 -0.0977 -0.2475  0.7325
12376TIP3   OH258542   2.683   1.018  11.475  0.1420 -0.4426 -0.1303
12376TIP3    H158543   2.674   1.111  11.452  2.8201  0.3143  1.6259
12376TIP3    H258544   2.668   1.016  11.570  2.6308 -1.3779  0.2724
12377TIP3   OH258545   4.503   1.022  10.540  0.3137 -0.0352 -0.0901
12377TIP3    H158546   4.424   1.074  10.554  0.1541 -0.6269  1.1989
12377TIP3    H258547   4.575   1.084  10.551  0.0669  0.3023 -0.3623
12378TIP3   OH258548   1.328   1.250  12.068 -0.1367 -0.0541  0.0440
12378TIP3    H158549   1.326   1.337  12.110  1.5286 -0.4414  0.9626
12378TIP3    H258550   1.289   1.192  12.133  0.5669 -0.3246  0.2188
12379TIP3   OH258551   0.499   0.505   2.537 -0.3995  0.1951 -0.1976
12379TIP3    H158552   0.445   0.440   2.494 -0.7825  0.8608 -0.7380
12379TIP3    H258553   0.564   0.455   2.585  0.3463 -0.5809 -1.9548
12380TIP3   OH258554   5.787   5.882  11.774  0.0265  0.0577  0.0741
12380TIP3    H158555   5.751   5.876  11.686 -0.9452 -0.0713  0.4722
12380TIP3    H258556   5.847   5.956  11.771 -1.1770  1.0271 -0.2911
12381TIP3   OH258557   0.181   6.562   3.168  0.1449 -0.0143 -0.3410
12381TIP3    H158558   0.171   6.615   3.089 -2.8237  1.0195  0.6617
12381TIP3    H258559   0.189   6.626   3.239  1.1898 -0.9200  0.3666
12382TIP3   OH258560   5.788   1.524   2.317 -0.4305  0.2270  0.2107
12382TIP3    H158561   5.765   1.467   2.244 -1.7787  1.0289 -0.0075
12382TIP3    H258562   5.719   1.590   2.319  1.1730  1.9654  0.3456
12383TIP3   OH258563   0.852   1.853  14.126 -0.5444  0.0398  0.3363
12383TIP3    H158564   0.896   1.894  14.201 -1.1359 -0.3570  0.9094
12383TIP3    H258565   0.905   1.776  14.107  1.0101  1.4649 -1.2346
12384TIP3   OH258566   2.130   0.481  14.626 -0.1904  0.0716  0.1427
12384TIP3    H158567   2.196   0.412  14.628  0.5546  0.7918  0.4460
12384TIP3    H258568   2.085   0.469  14.542 -0.6135 -1.2894  0.5498
12385TIP3   OH258569   5.670   0.121  16.615  0.0397 -0.6071 -0.3564
12385TIP3    H158570   5.606   0.128  16.686  0.6414 -3.0300  0.4833
12385TIP3    H258571   5.624   0.155  16.538 -2.1764 -1.9767  0.2891
12386TIP3   OH258572   1.718   3.074   4.219  0.3658 -0.0487 -0.2662
12386TIP3    H158573   1.736   3.044   4.308 -1.9181 -1.1125 -0.1227
12386TIP3    H258574   1.711   2.994   4.167 -0.2633  0.4662 -0.9931
12387TIP3   OH258575   5.627   3.025   4.201 -0.3232  0.3073  0.2238
12387TIP3    H158576   5.635   2.936   4.167 -1.3015  0.0431  0.6625
12387TIP3    H258577   5.637   3.016   4.295  0.2130  0.7488  0.2084
12388TIP3   OH258578   0.593   1.036   2.673  0.1470  0.0446 -0.3349
12388TIP3    H158579   0.607   1.127   2.648 -0.0136 -0.2446 -1.5371
12388TIP3    H258580   0.660   1.018   2.739  0.9346  0.6824 -0.9553
12389TIP3   OH258581   3.883   0.312  11.611 -0.1384  0.5467  0.4293
12389TIP3    H158582   3.876   0.265  11.527 -2.4962 -0.7404  1.2961
12389TIP3    H258583   3.857   0.247  11.676  1.4132  1.6273  2.1537
12390TIP3   OH258584   2.183   5.489  13.466  0.3459 -0.2062 -0.1661
12390TIP3    H158585   2.166   5.578  13.435 -3.0730 -0.8811 -0.3935
12390TIP3    H258586   2.159   5.490  13.559  0.2916 -0.9210 -0.1670
12391TIP3   OH258587   4.729   0.871  14.737  0.2192 -0.6686 -0.2670
12391TIP3    H158588   4.767   0.878  14.650  0.0016 -2.3671 -0.5139
12391TIP3    H258589   4.712   0.961  14.763  2.4949  0.0169 -0.9933
12392TIP3   OH258590   5.952   4.002  11.776 -0.2947 -0.2042  0.1632
12392TIP3    H158591   5.897   3.985  11.699  0.4001  0.2628 -0.4485
12392TIP3    H258592   5.898   4.057  11.832 -0.8318 -0.5998  0.0409
12393TIP3   OH258593   0.893   4.957   2.527  0.2617 -0.4399 -0.1781
12393TIP3    H158594   0.986   4.937   2.536 -0.1128 -1.7934  0.8465
12393TIP3    H258595   0.848   4.875   2.551 -1.2317  0.6680  0.9054
12394TIP3   OH258596   6.612   1.112   4.470  0.0368 -0.0495 -0.2014
12394TIP3    H158597   6.550   1.183   4.453 -2.1845 -1.9007 -0.1462
12394TIP3    H258598   6.615   1.064   4.387  2.2241  0.6079 -0.5226
12395TIP3   OH258599   2.717   0.124   5.019 -0.0638 -0.5848  0.2382
12395TIP3    H158600   2.768   0.189   5.067  0.6994  0.9403 -2.5045
12395TIP3    H258601   2.782   0.063   4.985 -0.4419 -0.7833 -0.1317
12396TIP3   OH258602   3.921   5.069   2.031  0.0276  0.0230 -0.4975
12396TIP3    H158603   3.870   5.083   2.111 -0.9126  0.3559 -1.1445
12396TIP3    H258604   3.914   5.151   1.983  2.8198  0.7818  0.2865
12397TIP3   OH258605   3.721   0.933   1.637  0.1178  0.3200 -0.4986
12397TIP3    H158606   3.794   0.995   1.626 -0.9450  2.1999  2.5048
12397TIP3    H258607   3.645   0.979   1.603  0.1056 -1.4176 -3.0550
12398TIP3   OH258608   2.088   3.716   6.063  0.2062  0.4934 -0.1647
12398TIP3    H158609   2.138   3.666   5.999  1.0463 -0.3139  1.0989
12398TIP3    H258610   2.154   3.763   6.114 -0.5335  2.4340 -0.9349
12399TIP3   OH258611   3.458   6.152  11.421  0.3439 -0.1425  0.4283
12399TIP3    H158612   3.532   6.129  11.365  0.2030  0.8986 -0.2024
12399TIP3    H258613   3.407   6.214  11.369 -0.0279  0.4880  1.5230
12400TIP3   OH258614   3.821   2.140   4.048 -0.2620  0.1345  0.3168
12400TIP3    H158615   3.732   2.173   4.064  0.2528  1.2978  0.8910
12400TIP3    H258616   3.811   2.078   3.976 -1.1169  2.3294 -1.5178
12401TIP3   OH258617   6.431   6.538  15.248  0.7638 -0.0844 -0.1998
12401TIP3    H158618   6.373   6.580  15.311 -0.3416  0.6521 -1.6800
12401TIP3    H258619   6.434   6.599  15.174  2.3039 -0.7754 -0.7327
12402TIP3   OH258620   5.283   1.044   4.886  0.0734  1.1391 -0.1146
12402TIP3    H158621   5.332   1.127   4.890 -0.9247  1.7110  0.4389
12402TIP3    H258622   5.212   1.055   4.949  0.3484 -0.4250  0.4736
12403TIP3   OH258623   1.267   6.683  16.052  0.0075 -0.0456  0.4151
12403TIP3    H158624   1.336   6.727  16.003  0.6025 -0.8490  0.5437
12403TIP3    H258625   1.230   6.752  16.108  1.0900  0.2450  0.7792
12404TIP3   OH258626   2.781   5.522  13.532  0.0277  0.3971  0.2927
12404TIP3    H158627   2.732   5.589  13.484  1.2340  0.7806 -0.4059
12404TIP3    H258628   2.779   5.446  13.474  0.7335  0.5872  0.0158
12405TIP3   OH258629   0.118   4.380   4.296  0.0253 -0.7626  0.1323
12405TIP3    H158630   0.079   4.298   4.265  0.4521 -0.3014 -1.6661
12405TIP3    H258631   0.044   4.427   4.335 -0.2713 -1.8940  0.9768
12406TIP3   OH258632   1.062   0.923  11.334 -0.0929  0.4294  0.7716
12406TIP3    H158633   1.131   0.988  11.319 -0.4073  1.1621  2.3348
12406TIP3    H258634   1.027   0.905  11.247  1.6443  0.5201  0.0378
12407TIP3   OH258635   4.393   0.258  14.917  0.1534  0.4868  0.1986
12407TIP3    H158636   4.467   0.308  14.883  0.7795 -0.3603  0.2856
12407TIP3    H258637   4.344   0.232  14.838 -0.0663  1.0776  0.1432
12408TIP3   OH258638   2.074   4.198   3.009 -0.2948  0.2988  0.1190
12408TIP3    H158639   2.129   4.185   2.932  0.2344 -0.6867  0.6430
12408TIP3    H258640   2.128   4.250   3.069 -1.3560  2.5452 -0.8512
12409TIP3   OH258641   3.985   6.580  15.949  0.7691  0.2993  0.3099
12409TIP3    H158642   3.918   6.515  15.927 -0.5317  1.4950  0.6818
12409TIP3    H258643   4.051   6.572  15.880  0.7766 -1.6215  0.5242
12410TIP3   OH258644   0.545   4.717   1.995  0.9319  0.6329  0.4052
12410TIP3    H158645   0.475   4.658   2.023  1.7172 -0.6122 -0.2249
12410TIP3    H258646   0.501   4.779   1.937  0.4129 -0.3798 -0.3031
12411TIP3   OH258647   0.489   4.272   1.530  0.0367  0.3632 -0.6153
12411TIP3    H158648   0.490   4.351   1.475 -0.5736  1.6525  1.1765
12411TIP3    H258649   0.401   4.271   1.568  0.7033 -0.0295  0.9774
12412TIP3   OH258650   5.473   0.733   0.335 -0.1421 -0.1444  0.2653
12412TIP3    H158651   5.526   0.732   0.255  1.1934  0.1768  1.1316
12412TIP3    H258652   5.499   0.654   0.382  0.6539  0.7772  1.3922
12413TIP3   OH258653   5.666   0.739   1.976  0.3381 -0.0144 -0.2376
12413TIP3    H158654   5.712   0.726   1.893  0.1589  1.2686 -0.5568
12413TIP3    H258655   5.611   0.662   1.987  1.7819 -1.0836 -0.3699
12414TIP3   OH258656   5.154   2.587  15.988 -0.3339 -0.0623  0.0323
12414TIP3    H158657   5.078   2.645  15.992 -1.3096 -1.1655 -1.8417
12414TIP3    H258658   5.123   2.505  16.026  0.4292 -0.0139  0.7753
12415TIP3   OH258659   5.861   4.164  14.360  0.2517  0.2162 -0.5343
12415TIP3    H158660   5.931   4.228  14.376  1.9574 -1.6226 -0.4887
12415TIP3    H258661   5.800   4.177  14.432  1.8380  0.1230  0.8488
12416TIP3   OH258662   5.279   3.349  15.288 -0.1898 -0.2575 -0.6805
12416TIP3    H158663   5.222   3.400  15.346  1.1876  0.1232  0.3425
12416TIP3    H258664   5.367   3.364  15.320  0.4014 -1.8758 -1.4735
12417TIP3   OH258665   5.133   0.147  13.220 -0.3441  0.3502  0.1571
12417TIP3    H158666   5.169   0.087  13.154  0.1150 -1.7658  2.2995
12417TIP3    H258667   5.175   0.121  13.302 -2.1079  1.9024  1.5883
12418TIP3   OH258668   6.419   6.139  13.521 -0.4923 -0.1932  0.2993
12418TIP3    H158669   6.488   6.149  13.587  0.1851 -0.3258 -0.3794
12418TIP3    H258670   6.423   6.220  13.470 -0.6730 -0.3081  0.1025
12419TIP3   OH258671   4.255   1.678  15.985 -0.1269 -0.1792 -0.1478
12419TIP3    H158672   4.201   1.614  15.939 -0.5803  0.8261 -1.0321
12419TIP3    H258673   4.324   1.701  15.924 -0.2911  0.5945 -0.0480
12420TIP3   OH258674   1.916   6.481   4.082 -0.0827  0.0669  0.3141
12420TIP3    H158675   1.976   6.415   4.118 -0.3205 -0.9979 -1.2036
12420TIP3    H258676   1.882   6.527   4.159  1.0708 -0.7339  1.3100
12421TIP3   OH258677   0.174   6.289  13.242  0.4005 -0.7327 -0.5333
12421TIP3    H158678   0.205   6.199  13.233 -0.9161 -1.2309 -0.1888
12421TIP3    H258679   0.106   6.285  13.309  2.5497  1.0743  1.8547
12422TIP3   OH258680   6.657   1.215  10.604 -0.4237  0.9167  0.4518
12422TIP3    H158681   6.715   1.265  10.662 -1.6068 -0.1021  2.5952
12422TIP3    H258682   6.589   1.277  10.578 -1.5549  0.6329  2.6146
12423TIP3   OH258683   3.357   0.362  15.447 -0.1324 -0.3625  0.9586
12423TIP3    H158684   3.346   0.341  15.355  2.8104 -1.2653  0.7349
12423TIP3    H258685   3.409   0.289  15.482 -0.4069  0.4236  3.1096
12424TIP3   OH258686   4.762   0.997   4.046 -0.1318 -0.3241  0.2943
12424TIP3    H158687   4.682   1.026   4.003  0.8595 -0.1605 -1.4593
12424TIP3    H258688   4.761   1.043   4.131 -0.9891  1.0759 -0.4507
12425TIP3   OH258689   0.230   0.910   1.783 -0.8976  0.6133 -0.0812
12425TIP3    H158690   0.196   0.843   1.842 -3.6097  1.8215 -0.2132
12425TIP3    H258691   0.200   0.884   1.696 -1.2302  1.5368 -0.2525
12426TIP3   OH258692   6.762   3.779  12.298 -0.0426  0.5740 -0.4261
12426TIP3    H158693   6.736   3.858  12.347  1.4699 -0.5811  2.3531
12426TIP3    H258694   6.828   3.737  12.353 -0.3153 -2.2924 -2.1810
12427TIP3   OH258695   4.618   5.038  15.608  0.1234  0.2339  0.6001
12427TIP3    H158696   4.632   4.958  15.658 -0.4984  1.3183  2.5630
12427TIP3    H258697   4.704   5.060  15.573  0.5862 -0.5014  1.2535
12428TIP3   OH258698   5.726   1.407   1.024 -0.7890 -0.1369  0.1562
12428TIP3    H158699   5.660   1.348   1.059 -1.7155 -0.0299 -1.3748
12428TIP3    H258700   5.685   1.446   0.947  0.2848  1.5124  0.3773
12429TIP3   OH258701   2.931   0.043   3.663 -0.0731  0.2508 -0.0326
12429TIP3    H158702   2.836   0.055   3.663  0.0395  1.1922 -0.3910
12429TIP3    H258703   2.952   0.017   3.573  0.3434  2.9835 -0.7806
12430TIP3   OH258704   6.691   6.469  14.957 -0.0934  0.3911 -0.2993
12430TIP3    H158705   6.634   6.397  14.983 -0.1510  0.4929 -0.1419
12430TIP3    H258706   6.780   6.434  14.966 -0.1025  0.5228  0.3323
12431TIP3   OH258707   3.593   0.604  13.640  0.5208 -0.1360  0.2793
12431TIP3    H158708   3.666   0.578  13.584  0.5507  1.2416 -0.3492
12431TIP3    H258709   3.534   0.529  13.640 -0.2081  0.3750 -2.8621
12432TIP3   OH258710   0.430   0.647   3.167 -0.6572 -0.3396  0.1572
12432TIP3    H158711   0.457   0.575   3.224 -0.7926 -1.5837 -1.3181
12432TIP3    H258712   0.385   0.604   3.094  2.0753  0.9708 -2.4024
12433TIP3   OH258713   4.080   0.581   5.770  0.2200  0.1038 -0.2542
12433TIP3    H158714   4.101   0.547   5.683 -1.1269 -0.1243 -0.4950
12433TIP3    H258715   4.014   0.648   5.754 -2.0541 -1.8171  0.8230
12434TIP3   OH258716   0.962   1.541   3.127  0.2754 -0.4937 -0.7363
12434TIP3    H158717   0.988   1.464   3.177  1.2696  1.8948  2.6449
12434TIP3    H258718   1.040   1.564   3.077  1.1561  0.2611  0.9198
12435TIP3   OH258719   5.196   0.292   5.550 -0.8893  0.0125 -0.1027
12435TIP3    H158720   5.272   0.350   5.540  0.2897 -1.2984  1.0399
12435TIP3    H258721   5.126   0.349   5.582  0.6616  0.5452  2.4436
12436TIP3   OH258722   0.942   2.243  11.668  0.2147  0.5536  0.0195
12436TIP3    H158723   0.998   2.209  11.738  0.6845 -1.7620 -1.4214
12436TIP3    H258724   0.997   2.240  11.590 -1.4395 -0.3909 -1.1525
12437TIP3   OH258725   3.068   2.052  14.015 -0.2460  0.5596  0.4214
12437TIP3    H158726   3.009   2.121  13.982  1.3984  0.5720 -2.6712
12437TIP3    H258727   3.019   1.971  14.001  0.3518  0.5722 -2.1094
12438TIP3   OH258728   0.069   6.681  17.202 -0.1532  0.6268 -0.2867
12438TIP3    H158729   0.026   6.747  17.147  0.2315 -0.8159 -2.4003
12438TIP3    H258730  -0.002   6.622  17.227 -0.0058  0.1864 -0.8908
12439TIP3   OH258731   3.316   3.332  12.941  0.2499  0.2182 -0.7829
12439TIP3    H158732   3.393   3.285  12.910 -0.1037 -0.9383  0.0803
12439TIP3    H258733   3.274   3.365  12.861  0.7328 -0.5610 -1.3642
12440TIP3   OH258734   5.449   3.125   1.295 -0.6055  0.1149 -0.0563
12440TIP3    H158735   5.399   3.068   1.354  2.7531 -1.6189  1.2742
12440TIP3    H258736   5.466   3.071   1.218  0.1732  0.2848 -0.0066
12441TIP3   OH258737   3.022   2.288   1.269 -0.5086 -0.1625  0.3258
12441TIP3    H158738   3.097   2.229   1.269 -0.9068 -0.6814 -0.1519
12441TIP3    H258739   2.957   2.244   1.324 -0.6704  0.0032  0.2660
12442TIP3   OH258740   1.714   6.398  15.471  0.1409  0.2128 -0.0096
12442TIP3    H158741   1.664   6.331  15.516  0.7965 -1.0744 -1.1632
12442TIP3    H258742   1.778   6.349  15.418 -0.1472  1.6964 -1.7717
12443TIP3   OH258743   0.439   4.896  12.544  0.6420 -0.2855  0.5836
12443TIP3    H158744   0.531   4.906  12.569  0.8219  0.0570 -0.2090
12443TIP3    H258745   0.425   4.801  12.543  1.0213 -0.3444  0.5923
12444TIP3   OH258746   1.762   0.163  14.479  0.4569  0.9090  0.5301
12444TIP3    H158747   1.826   0.093  14.464  0.4977  1.0850 -0.1010
12444TIP3    H258748   1.779   0.227  14.411 -2.4958 -0.5362 -1.7037
12445TIP3   OH258749   6.413   5.335  14.412  0.2622  0.2842  0.0280
12445TIP3    H158750   6.319   5.323  14.407  0.4102 -0.7617 -0.4007
12445TIP3    H258751   6.447   5.287  14.336  1.5388 -3.8656  3.0817
12446TIP3   OH258752   0.005   1.916   2.291  0.2837 -0.2187 -0.3708
12446TIP3    H158753  -0.015   1.987   2.352  0.1886 -0.9441  0.4510
12446TIP3    H258754   0.017   1.839   2.346 -0.4315 -1.0248 -1.3212
12447TIP3   OH258755   2.620   4.560   0.321 -0.2041 -0.1693  0.6502
12447TIP3    H158756   2.681   4.547   0.248 -3.7076 -0.9934 -2.3293
12447TIP3    H258757   2.631   4.482   0.375  0.6808 -0.7896 -0.4040
12448TIP3   OH258758   4.906   4.492   5.827 -0.1031 -0.2969  0.0947
12448TIP3    H158759   4.895   4.587   5.840 -0.1658 -0.3337  0.3190
12448TIP3    H258760   4.884   4.478   5.735  1.6684  0.1639 -0.4259
12449TIP3   OH258761   2.238   5.899  12.312  0.2120 -0.0030  0.2420
12449TIP3    H158762   2.180   5.858  12.376  0.3293 -0.6213 -0.0383
12449TIP3    H258763   2.221   5.992  12.319 -0.4012 -0.1422  0.5662
12450TIP3   OH258764   0.436   3.147  14.087 -0.2106  0.1121  0.0149
12450TIP3    H158765   0.454   3.205  14.161 -2.0953 -0.8961  1.3028
12450TIP3    H258766   0.457   3.059  14.118  1.1886 -0.0868 -1.4274
12451TIP3   OH258767   2.938   1.988   1.024 -0.1931  0.6564  0.3131
12451TIP3    H158768   2.880   1.966   1.097 -1.6656 -1.0152 -1.3300
12451TIP3    H258769   2.892   2.058   0.977  0.5031  1.3615  0.6692
12452TIP3   OH258770   1.281   5.650  13.382 -0.1745  0.1718 -0.3788
12452TIP3    H158771   1.356   5.602  13.416 -1.1356 -0.3506  1.0630
12452TIP3    H258772   1.206   5.594  13.401 -1.1026  1.3801 -0.4034
12453TIP3   OH258773   3.940   4.572   3.515 -0.2853  0.3354  0.1768
12453TIP3    H158774   4.010   4.631   3.545  0.5117  0.3041 -1.5618
12453TIP3    H258775   3.986   4.492   3.489 -1.2675 -0.6930  1.5551
12454TIP3   OH258776   3.472   5.977  16.207 -0.1145  0.2810  0.2109
12454TIP3    H158777   3.523   5.948  16.131 -1.4754  0.3123 -0.7406
12454TIP3    H258778   3.507   6.063  16.228  0.2280  0.3040 -0.4312
12455TIP3   OH258779   3.287   3.583  17.037 -0.0657 -0.1841 -0.1737
12455TIP3    H158780   3.254   3.656  16.984 -0.8681  0.4627  1.1627
12455TIP3    H258781   3.337   3.529  16.976  1.7502  2.2353 -0.9059
12456TIP3   OH258782   6.445   1.078   5.737 -0.0165  0.2406  0.0501
12456TIP3    H158783   6.469   1.123   5.818  0.9562  0.2739 -0.2397
12456TIP3    H258784   6.368   1.025   5.759  0.2065  0.3031  0.9752
12457TIP3   OH258785   3.890   1.132  10.395  0.6860  0.2767 -0.6784
12457TIP3    H158786   3.952   1.136  10.322  0.6783 -0.2026 -0.7156
12457TIP3    H258787   3.931   1.071  10.457  0.8293  0.8957 -0.1517
12458TIP3   OH258788   3.933   2.153   3.730  0.0991  0.0115  0.2290
12458TIP3    H158789   3.890   2.073   3.760  0.2070 -0.1938 -0.1724
12458TIP3    H258790   3.862   2.209   3.699 -0.0348  0.2913  1.0037
12459TIP3   OH258791   3.254   1.473   4.221 -0.1394 -0.2927  0.3897
12459TIP3    H158792   3.303   1.544   4.180  0.2820 -0.8190 -0.0427
12459TIP3    H258793   3.298   1.393   4.189 -2.1605 -0.8188 -1.1385
12460TIP3   OH258794   0.365   5.296  12.856 -0.3736  0.1240 -0.5088
12460TIP3    H158795   0.424   5.294  12.781  0.6890 -0.1549  0.3185
12460TIP3    H258796   0.422   5.276  12.931 -1.8453 -1.9528  0.0906
12461TIP3   OH258797   3.283   1.355   1.459 -0.1125  0.1437  0.9186
12461TIP3    H158798   3.269   1.445   1.428 -0.2589  0.0087  0.5910
12461TIP3    H258799   3.339   1.315   1.392 -1.0767 -0.3856  0.4165
12462TIP3   OH258800   5.070   6.249   4.688  0.2623 -0.3942 -0.1112
12462TIP3    H158801   5.056   6.312   4.617 -1.2740  0.5089  0.9547
12462TIP3    H258802   5.155   6.274   4.725 -0.0065  0.5972 -0.1477
12463TIP3   OH258803   3.905   0.776  11.965 -0.3769  0.2998 -0.6163
12463TIP3    H158804   3.825   0.752  11.918 -0.4815 -0.1909 -0.1899
12463TIP3    H258805   3.912   0.712  12.035  0.0187  0.7619 -0.2292
12464TIP3   OH258806   0.001   4.677   1.400 -0.1738 -0.0510  0.3139
12464TIP3    H158807  -0.042   4.595   1.375 -1.7135  1.2392 -1.4243
12464TIP3    H258808   0.081   4.649   1.444 -0.3198 -2.4919 -0.8659
12465TIP3   OH258809   2.496   1.220  16.827  0.2603  0.2926  0.5836
12465TIP3    H158810   2.444   1.140  16.835 -0.0846  0.7403  3.1189
12465TIP3    H258811   2.543   1.210  16.744 -0.6056 -2.0323  0.3474
12466TIP3   OH258812   0.288   1.766   2.417  0.3181 -0.1476  0.3124
12466TIP3    H158813   0.285   1.849   2.371 -1.4747 -0.5310 -0.2951
12466TIP3    H258814   0.376   1.732   2.401  0.5706  0.9468 -0.6349
12467TIP3   OH258815   4.416   1.990  13.010  0.3780  0.2415  0.6920
12467TIP3    H158816   4.502   2.003  13.051  0.6126 -1.8372  0.9076
12467TIP3    H258817   4.377   2.077  13.009  0.7538  0.5376  4.4869
12468TIP3   OH258818   4.444   1.053  12.479 -0.0290 -0.6998  0.6027
12468TIP3    H158819   4.476   1.121  12.420 -0.0453  0.6358  2.1186
12468TIP3    H258820   4.478   0.971  12.442 -0.9105  0.0021 -1.8390
12469TIP3   OH258821   1.388   1.010   1.475  0.9188  0.0175  0.4400
12469TIP3    H158822   1.314   0.950   1.478  1.5609 -0.8406 -0.7548
12469TIP3    H258823   1.362   1.078   1.413  1.4602 -0.7503 -0.6495
12470TIP3   OH258824   2.194   5.576   0.634 -0.0729  0.5751  0.1423
12470TIP3    H158825   2.205   5.631   0.557  0.9807 -0.2448 -0.3079
12470TIP3    H258826   2.109   5.602   0.670  0.3200  2.3474 -0.1632
12471TIP3   OH258827   3.771   2.659  13.462 -0.2788  0.3212 -0.0590
12471TIP3    H158828   3.799   2.701  13.544 -1.2260  0.7530  0.0458
12471TIP3    H258829   3.689   2.615  13.484 -1.6466  2.1899 -1.2899
12472TIP3   OH258830   2.814   0.519   3.023  0.0943 -0.3196 -0.2800
12472TIP3    H158831   2.724   0.551   3.010  0.2801  0.5905  0.6125
12472TIP3    H258832   2.844   0.497   2.935 -0.0293  2.0815 -0.9680
12473TIP3   OH258833   5.091   1.265   0.412  0.4524  0.2774 -0.2768
12473TIP3    H158834   5.004   1.292   0.380  0.5019  0.5347 -0.1987
12473TIP3    H258835   5.073   1.193   0.472  0.1521  1.3570  0.9650
12474TIP3   OH258836   2.046   2.247   2.829  0.4444 -0.1284  0.3813
12474TIP3    H158837   2.099   2.173   2.858 -1.0858 -1.7935 -1.0100
12474TIP3    H258838   2.010   2.284   2.909  2.6605  0.2540  1.2367
12475TIP3   OH258839   4.466   4.266  13.532  0.7590 -0.3771  0.0930
12475TIP3    H158840   4.413   4.267  13.452  0.7219  0.7322  0.1223
12475TIP3    H258841   4.539   4.208  13.512  2.0180  1.7140 -1.5976
12476TIP3   OH258842   5.085   3.457  13.223 -0.0804 -0.4295 -0.5715
12476TIP3    H158843   5.172   3.452  13.183  0.3110 -1.9221  0.4252
12476TIP3    H258844   5.099   3.498  13.308 -0.3254 -0.7809 -0.3560
12477TIP3   OH258845   1.997   0.733  15.846  0.0455  0.0225  0.0249
12477TIP3    H158846   1.911   0.761  15.876  0.3024  0.2925  0.5307
12477TIP3    H258847   2.052   0.812  15.855  0.6884 -0.5341  1.1019
12478TIP3   OH258848   5.687   3.275   5.749  0.0046  0.8357  0.0793
12478TIP3    H158849   5.721   3.353   5.793  2.3637 -0.3442  0.3862
12478TIP3    H258850   5.720   3.202   5.800 -0.1591 -0.4455 -1.6188
12479TIP3   OH258851   1.470   4.027  13.089  0.3533 -0.2725 -0.2959
12479TIP3    H158852   1.504   4.114  13.067  0.1542  0.5172  2.3677
12479TIP3    H258853   1.383   4.025  13.050  0.8857  0.2062 -1.5223
12480TIP3   OH258854   2.322   3.408  11.768  0.2418  0.2235 -0.1296
12480TIP3    H158855   2.389   3.418  11.836  1.2091 -0.7712 -0.9293
12480TIP3    H258856   2.370   3.377  11.691 -1.1468 -0.6117 -0.6751
12481TIP3   OH258857   0.443   0.277  16.544 -0.2706  0.6138  0.2142
12481TIP3    H158858   0.417   0.350  16.488  0.1647  1.4118  1.0418
12481TIP3    H258859   0.443   0.313  16.632  1.0320 -0.0833  0.5123
12482TIP3   OH258860   5.012   4.306  16.867  0.0218  0.1892  0.3390
12482TIP3    H158861   5.022   4.287  16.960 -0.8524 -1.2829  0.1498
12482TIP3    H258862   5.075   4.249  16.823  0.7375  1.1844  0.0358
12483TIP3   OH258863   6.019   2.692  13.063  0.1873 -0.0081 -0.5992
12483TIP3    H158864   5.950   2.672  13.000 -0.0041  0.6916 -0.6146
12483TIP3    H258865   6.015   2.621  13.127 -1.4037  0.7312  0.1207
12484TIP3   OH258866   1.671   1.127   1.518  0.7037  0.6292 -0.7759
12484TIP3    H158867   1.725   1.203   1.541  0.8774 -0.1798  1.6311
12484TIP3    H258868   1.668   1.074   1.598 -2.0232 -0.3494 -1.4597
12485TIP3   OH258869   2.831   5.957  14.665 -0.2279 -0.0850  0.2957
12485TIP3    H158870   2.843   5.997  14.578  1.0135 -0.6411  0.1915
12485TIP3    H258871   2.785   6.024  14.715  0.5614  0.9398 -0.2978
12486TIP3   OH258872   4.016   4.805   0.426 -0.4111 -0.0912  0.0237
12486TIP3    H158873   3.989   4.870   0.361 -0.2075  0.1694  0.2017
12486TIP3    H258874   3.938   4.752   0.440 -0.2222 -0.6640 -1.0525
12487TIP3   OH258875   3.363   6.286   6.361  0.0351 -0.0899  0.1001
12487TIP3    H158876   3.345   6.352   6.428 -0.7129  0.0509 -0.2308
12487TIP3    H258877   3.283   6.233   6.358  0.6649 -1.0887  0.4453
12488TIP3   OH258878   6.750   3.456  14.837  0.5400 -0.2110 -0.5439
12488TIP3    H158879   6.815   3.499  14.782  2.4092 -0.6079  1.3027
12488TIP3    H258880   6.685   3.524  14.854  1.6824  0.8879 -0.4700
12489TIP3   OH258881   0.936   4.097   0.333  0.2855 -0.1063  0.0792
12489TIP3    H158882   0.898   4.152   0.264  0.3496 -0.6127 -0.3694
12489TIP3    H258883   0.972   4.158   0.396  0.8366  0.3603 -0.6806
12490TIP3   OH258884   4.546   6.109  16.386  0.5304  0.0553 -0.0717
12490TIP3    H158885   4.502   6.067  16.312  0.7468 -0.9444  0.3523
12490TIP3    H258886   4.614   6.046  16.411 -0.8294 -0.5436  2.2327
12491TIP3   OH258887   3.296   6.185   5.051  0.4375 -0.0436 -0.0577
12491TIP3    H158888   3.225   6.179   5.115 -1.0965  1.4582 -1.5316
12491TIP3    H258889   3.343   6.101   5.058 -2.4541 -1.7447 -0.1158
12492TIP3   OH258890   4.048   1.616   5.374  0.0508 -0.3316  0.6332
12492TIP3    H158891   4.065   1.708   5.393  0.7508 -0.7201  1.9272
12492TIP3    H258892   4.135   1.578   5.361 -0.3797 -0.0578 -3.6401
12493TIP3   OH258893   1.671   0.047  12.626  0.3087 -0.8535  0.1269
12493TIP3    H158894   1.689   0.096  12.546  0.3829 -1.5588 -0.2933
12493TIP3    H258895   1.614  -0.024  12.597 -0.7715 -0.3230  0.9379
12494TIP3   OH258896   4.959   4.481  15.053  1.0649 -0.4173 -0.9026
12494TIP3    H158897   4.865   4.465  15.047  0.9651  0.5382 -2.0612
12494TIP3    H258898   4.966   4.569  15.089  1.5534 -1.1298  0.8136
12495TIP3   OH258899   0.836   1.322  12.706 -0.4377  0.3762  0.1798
12495TIP3    H158900   0.839   1.241  12.654  0.7925  0.2737  0.3843
12495TIP3    H258901   0.827   1.392  12.641  1.8215  0.3025 -0.2454
12496TIP3   OH258902   2.969   5.922   1.916  0.2334  0.1919 -0.6975
12496TIP3    H158903   3.031   5.979   1.961  0.6496 -0.4782 -0.4147
12496TIP3    H258904   3.020   5.845   1.893 -0.6625 -0.6640  0.1435
12497TIP3   OH258905   5.565   3.386  16.949  0.6001  0.6139  0.0290
12497TIP3    H158906   5.477   3.381  16.986  0.6194  0.4747  0.0531
12497TIP3    H258907   5.557   3.346  16.863  0.5983  0.7705 -0.0471
12498TIP3   OH258908   2.877   1.677   0.074  0.4115  0.1801 -0.3989
12498TIP3    H158909   2.928   1.755   0.096 -1.3784  0.7085  2.1161
12498TIP3    H258910   2.924   1.605   0.116  1.0806  0.1330 -1.2094
12499TIP3   OH258911   2.705   3.508  15.822 -0.1190 -0.1239  0.0653
12499TIP3    H158912   2.690   3.426  15.775 -0.6191  0.9557 -1.7005
12499TIP3    H258913   2.634   3.512  15.886 -0.1561 -1.0143  0.0879
12500TIP3   OH258914   3.791   2.572  16.843  0.3155 -0.2138  0.7214
12500TIP3    H158915   3.774   2.489  16.886  1.3898 -0.4973  0.5968
12500TIP3    H258916   3.804   2.549  16.751 -1.7848  0.3655  0.2406
12501TIP3   OH258917   3.571   2.191   4.221 -0.0671  0.2178  0.0476
12501TIP3    H158918   3.517   2.121   4.185  1.9073 -0.7938 -1.0474
12501TIP3    H258919   3.586   2.166   4.312  1.5350 -1.4020 -0.6290
12502TIP3   OH258920   2.263   1.910   1.267 -0.8323  0.2879 -0.2740
12502TIP3    H158921   2.175   1.947   1.262 -1.2939 -0.4853  1.6351
12502TIP3    H258922   2.268   1.872   1.355  1.7752  1.2339  0.0271
12503TIP3   OH258923   5.820   5.773  11.219  0.6641 -0.3665 -0.1894
12503TIP3    H158924   5.822   5.683  11.188 -0.3258 -0.6147  0.4659
12503TIP3    H258925   5.894   5.779  11.280  2.0331 -0.1332 -1.8434
12504TIP3   OH258926   4.095   1.585  14.850  0.9002  0.5902 -0.6459
12504TIP3    H158927   4.045   1.627  14.920 -0.5141 -2.0604  0.0254
12504TIP3    H258928   4.180   1.629  14.851  0.3748  1.6338  1.7321
12505TIP3   OH258929   4.654   4.431   0.619  0.3276  0.4197  0.4206
12505TIP3    H158930   4.585   4.367   0.600  1.1144  0.1506 -1.7079
12505TIP3    H258931   4.735   4.382   0.606  0.9215  1.1580  1.3480
12506TIP3   OH258932   4.902   5.341  16.768  0.1273 -1.0109  0.0531
12506TIP3    H158933   4.943   5.286  16.835 -0.5597 -1.8915 -0.2486
12506TIP3    H258934   4.812   5.352  16.798 -0.1614 -1.3422 -0.6824
12507TIP3   OH258935   0.527   0.495   4.038 -0.2227  0.5769  0.1051
12507TIP3    H158936   0.471   0.481   3.962  1.7452 -0.0223 -1.3020
12507TIP3    H258937   0.595   0.428   4.030  1.1556  1.7873  1.2714
12508TIP3   OH258938   6.193   4.955   5.062  0.2203  0.9072  0.3892
12508TIP3    H158939   6.281   4.962   5.100  1.1888  1.5507 -1.8764
12508TIP3    H258940   6.184   4.863   5.038 -1.2362  0.0063  3.9653
12509TIP3   OH258941   4.665   0.708  16.700  0.5271  0.8823  0.2289
12509TIP3    H158942   4.616   0.641  16.652 -1.2363  1.2558  1.4581
12509TIP3    H258943   4.721   0.749  16.634 -2.2470  1.7690 -1.6473
12510TIP3   OH258944   3.475   2.579   3.140  0.2562  0.3904  0.3963
12510TIP3    H158945   3.543   2.532   3.091 -0.0688 -0.1853  0.4941
12510TIP3    H258946   3.523   2.641   3.194  0.5963  1.2570 -0.8966
12511TIP3   OH258947   2.188   2.034   2.872  0.6065  0.2330  0.9227
12511TIP3    H158948   2.228   1.948   2.858 -1.3313 -1.1577  3.5088
12511TIP3    H258949   2.241   2.074   2.940  0.0591  0.0902  1.4330
12512TIP3   OH258950   0.346   1.211   0.299 -0.6065 -0.2444 -0.5073
12512TIP3    H158951   0.435   1.246   0.299 -0.3373 -0.9057 -1.3713
12512TIP3    H258952   0.318   1.217   0.390 -0.1269  1.0914 -0.4370
12513TIP3   OH258953   2.263   5.729   1.249  0.1537  0.4340 -0.1935
12513TIP3    H158954   2.285   5.800   1.308 -0.6275  0.6732 -0.1842
12513TIP3    H258955   2.198   5.677   1.297 -1.6467  1.4949 -1.4268
12514TIP3   OH258956   0.887   4.047   5.511  0.3124 -0.2484  0.3291
12514TIP3    H158957   0.844   4.127   5.541  1.3076  0.8668 -1.1135
12514TIP3    H258958   0.846   4.028   5.426  0.4982 -0.9308  0.3875
12515TIP3   OH258959   3.460   4.800  16.544 -0.0087 -0.2617 -0.4903
12515TIP3    H158960   3.389   4.748  16.506  0.3027 -1.0821  0.0426
12515TIP3    H258961   3.500   4.844  16.468 -1.5787  0.8599 -0.7053
12516TIP3   OH258962   3.047   3.316  14.292 -0.3028  0.4606  0.2665
12516TIP3    H158963   3.120   3.309  14.354  0.3179 -0.8016 -0.5817
12516TIP3    H258964   3.074   3.384  14.230  0.1981 -0.0642 -0.0943
12517TIP3   OH258965   5.896   0.375  13.853  0.1541  0.4213  0.2636
12517TIP3    H158966   5.941   0.330  13.781  1.0078 -1.1802  1.7554
12517TIP3    H258967   5.818   0.321  13.868 -0.5004  1.2713 -0.0474
12518TIP3   OH258968   4.167   2.641   0.310 -0.0747 -0.1420 -0.2405
12518TIP3    H158969   4.252   2.671   0.343 -0.5664  1.1663 -0.1330
12518TIP3    H258970   4.171   2.656   0.216 -0.9748  1.9375  0.0362
12519TIP3   OH258971   3.437   1.980  12.815 -0.0696 -0.2547 -0.1794
12519TIP3    H158972   3.425   1.999  12.908  0.0239 -1.3467  0.0577
12519TIP3    H258973   3.530   1.959  12.806 -0.1231 -0.3666 -0.4794
12520TIP3   OH258974   3.783   3.286  16.738 -0.4163 -0.1981  0.3325
12520TIP3    H158975   3.832   3.306  16.817 -1.2246  1.2864  0.4611
12520TIP3    H258976   3.715   3.353  16.733 -1.8772 -1.6910 -0.3335
12521TIP3   OH258977   2.942   4.920   0.642 -0.1364  0.3876 -0.1677
12521TIP3    H158978   2.936   5.011   0.674  0.4679  0.7081 -0.9488
12521TIP3    H258979   2.851   4.888   0.644  0.0644 -0.2017  3.5336
12522TIP3   OH258980   3.118   5.747   4.108  0.1229  0.0445  0.2968
12522TIP3    H158981   3.185   5.679   4.102 -1.8066 -1.8683 -0.0251
12522TIP3    H258982   3.155   5.821   4.058  0.9770 -1.8126 -1.8949
12523TIP3   OH258983   1.070   6.507  14.892 -0.8929 -0.2898 -0.6865
12523TIP3    H158984   1.008   6.524  14.963 -1.2291 -0.8343 -0.8516
12523TIP3    H258985   1.016   6.472  14.821 -0.3882 -0.8086 -0.8131
12524TIP3   OH258986   6.544   5.900   0.353 -0.3139 -0.2063 -0.1771
12524TIP3    H158987   6.535   5.976   0.411  0.4915 -0.8098  0.7647
12524TIP3    H258988   6.621   5.921   0.299  2.2389 -1.9238  2.6268
12525TIP3   OH258989   5.761   1.991  11.227  0.1519  0.3680  0.0356
12525TIP3    H158990   5.701   2.052  11.183  0.4513  1.3022  0.9053
12525TIP3    H258991   5.758   1.912  11.173 -0.2266  1.1594 -1.1296
12526TIP3   OH258992   5.070   5.542   3.418 -0.8027 -0.0611 -0.1161
12526TIP3    H158993   5.010   5.516   3.489 -0.4787 -0.6050 -0.0324
12526TIP3    H258994   5.019   5.531   3.338 -0.2947 -2.1528 -0.1746
12527TIP3   OH258995   4.823   1.429   5.420  0.2719 -0.2541 -0.5182
12527TIP3    H158996   4.752   1.471   5.468 -0.3155 -1.6965 -0.0740
12527TIP3    H258997   4.779   1.372   5.357  1.0131 -2.0805  0.5852
12528TIP3   OH258998   0.475   4.372   1.969 -0.5951 -0.2530 -0.1372
12528TIP3    H158999   0.427   4.414   2.040 -0.3774  0.4046 -0.3789
12528TIP3    H259000   0.559   4.348   2.007 -1.1767 -1.5775  0.3399
12529TIP3   OH259001   3.699   2.487  13.201 -0.5560 -0.0724 -0.3239
12529TIP3    H159002   3.761   2.467  13.131  0.0679  0.7313 -0.0202
12529TIP3    H259003   3.694   2.583  13.202 -1.8824 -0.1288 -0.4097
12530TIP3   OH259004   0.995   5.285  12.966  0.1790  0.5594 -0.2657
12530TIP3    H159005   1.018   5.333  12.886 -0.0010 -0.6679 -1.0687
12530TIP3    H259006   1.076   5.243  12.993 -0.1497 -0.4080 -0.7686
12531TIP3   OH259007   4.569   4.943   2.017  0.4269 -0.0584 -0.0088
12531TIP3    H159008   4.549   5.036   2.006 -1.4084 -0.1611  2.0619
12531TIP3    H259009   4.488   4.898   1.993  1.3485 -1.1321 -1.1393
12532TIP3   OH259010   1.530   6.411   5.429  0.4449 -0.3859 -0.4921
12532TIP3    H159011   1.576   6.490   5.457  0.9575 -0.1332 -2.0031
12532TIP3    H259012   1.523   6.358   5.508  0.7775  0.8378  0.3717
12533TIP3   OH259013   6.030   2.429  13.900  0.4442 -0.1874  0.3686
12533TIP3    H159014   5.975   2.447  13.977 -0.2749 -1.2528  0.1173
12533TIP3    H259015   5.969   2.428  13.826  1.0294  0.1426 -0.1246
12534TIP3   OH259016   6.784   5.859   2.948  0.1806 -0.2924  0.0085
12534TIP3    H159017   6.701   5.819   2.923 -0.0473 -0.2041  0.6088
12534TIP3    H259018   6.830   5.791   2.997  0.2171 -0.1488  0.1735
12535TIP3   OH259019   6.069   6.267   2.875 -0.4695 -0.1683  0.2467
12535TIP3    H159020   6.144   6.316   2.909 -0.8365  1.0252 -0.6418
12535TIP3    H259021   6.105   6.181   2.853  0.3427 -0.0539  1.0708
12536TIP3   OH259022   3.177   3.758   3.183  0.2353  0.1083  0.0479
12536TIP3    H159023   3.097   3.706   3.178  0.2785 -0.1683  1.9567
12536TIP3    H259024   3.168   3.822   3.113 -1.5108 -0.1297  0.0319
12537TIP3   OH259025   0.638   4.081   1.133  0.3903  0.1000 -0.1932
12537TIP3    H159026   0.638   4.037   1.048 -1.3302  1.3464 -0.8705
12537TIP3    H259027   0.687   4.162   1.118  2.1519 -0.7805  0.6391
12538TIP3   OH259028   2.585   1.491   4.343 -0.2406  0.3133  0.1139
12538TIP3    H159029   2.627   1.460   4.424  0.3988 -0.1642 -0.3967
12538TIP3    H259030   2.627   1.575   4.325 -0.4852  0.4876  0.3550
12539TIP3   OH259031   0.914   1.790  15.081  0.1319  0.1827  0.0870
12539TIP3    H159032   0.917   1.713  15.137 -0.5711  0.3561  0.3683
12539TIP3    H259033   0.835   1.837  15.108  0.2063  0.6710 -0.5149
12540TIP3   OH259034   6.417   5.336   6.029  0.1971  0.0374 -0.3013
12540TIP3    H159035   6.384   5.251   5.998  0.4659  0.1108 -0.8017
12540TIP3    H259036   6.370   5.351   6.111  1.0094 -1.1476  0.3989
12541TIP3   OH259037   6.453   6.178   0.738 -0.2562  0.0803 -0.0482
12541TIP3    H159038   6.384   6.170   0.804  1.4462  0.0640  1.7877
12541TIP3    H259039   6.483   6.269   0.746  0.6329 -0.2053 -0.0877
12542TIP3   OH259040   2.694   4.190   1.945 -0.2123 -0.1578  0.7971
12542TIP3    H159041   2.656   4.191   1.857  0.0169  1.9902  0.6867
12542TIP3    H259042   2.620   4.210   2.003  0.1026  0.7764  0.8765
12543TIP3   OH259043   2.759   0.922   3.473 -0.5713 -0.4110 -0.3112
12543TIP3    H159044   2.818   0.986   3.433 -0.5277  0.6371  1.3740
12543TIP3    H259045   2.818   0.853   3.503 -0.3060  0.0942  0.3526
12544TIP3   OH259046   3.878   1.502   0.732  0.5123  0.6141  0.6926
12544TIP3    H159047   3.933   1.425   0.749 -0.0325  0.2152  0.6617
12544TIP3    H259048   3.799   1.487   0.783 -0.0995  0.5731 -0.2405
12545TIP3   OH259049   1.387   6.257  12.327 -1.1847 -0.0999 -0.4617
12545TIP3    H159050   1.338   6.295  12.400 -0.6582  0.6299 -0.4806
12545TIP3    H259051   1.460   6.212  12.368 -0.2403  1.2909 -0.5990
12546TIP3   OH259052   5.261   3.642  12.243 -0.3153 -0.0446  0.3959
12546TIP3    H159053   5.217   3.557  12.247  0.0610 -0.3217 -1.0258
12546TIP3    H259054   5.338   3.632  12.300  1.4470 -1.7225 -2.1704
12547TIP3   OH259055   6.641   0.795   0.852 -0.0240 -0.3997 -0.2480
12547TIP3    H159056   6.639   0.715   0.799 -0.8809  0.4506 -1.5384
12547TIP3    H259057   6.593   0.773   0.932 -3.3840 -0.1610 -2.1026
12548TIP3   OH259058   1.724   2.750   2.623  0.2778 -0.2182  0.6565
12548TIP3    H159059   1.764   2.672   2.661 -1.1116 -0.6623  1.2499
12548TIP3    H259060   1.630   2.733   2.626  0.0738  0.0950 -2.2044
12549TIP3   OH259061   1.083   6.681  11.712 -0.2644 -0.5371 -0.7008
12549TIP3    H159062   1.159   6.735  11.689  0.0703 -0.1302  1.3031
12549TIP3    H259063   1.110   6.635  11.791 -3.3075  2.2764  2.1287
12550TIP3   OH259064   4.042   2.392   1.378  0.1087 -0.2549  0.2546
12550TIP3    H159065   4.001   2.456   1.320  0.8206 -0.5540 -0.5867
12550TIP3    H259066   4.080   2.445   1.448  0.2753  0.2149 -0.1812
12551TIP3   OH259067   5.547   2.277  15.320 -0.4163  0.4138  0.0291
12551TIP3    H159068   5.552   2.231  15.404  0.3927  0.7606  0.1705
12551TIP3    H259069   5.606   2.352  15.330 -1.8908  1.6138 -0.1204
12552TIP3   OH259070   6.463   4.432   5.535 -0.1864  0.3772  0.1094
12552TIP3    H159071   6.381   4.447   5.581  0.0925  0.6235  0.5319
12552TIP3    H259072   6.519   4.506   5.560  0.5010 -0.3020  0.6149
12553TIP3   OH259073   3.513   4.004  14.659  0.2251 -0.2522 -0.1235
12553TIP3    H159074   3.509   3.929  14.719  2.9593  0.9114  1.6117
12553TIP3    H259075   3.465   4.073  14.704  1.3429  0.2918  0.2639
12554TIP3   OH259076   3.675   4.553   4.809 -0.6496 -0.4189 -0.4602
12554TIP3    H159077   3.630   4.469   4.796  0.4442 -1.2915  1.2525
12554TIP3    H259078   3.650   4.605   4.733 -1.5819 -2.1944 -1.4070
12555TIP3   OH259079   3.430   6.525  12.985 -0.3904  0.1560 -0.2081
12555TIP3    H159080   3.488   6.602  12.985  0.1440 -0.2294 -1.1096
12555TIP3    H259081   3.451   6.479  13.066  0.0414  0.4143 -0.1681
12556TIP3   OH259082   1.146   2.195   4.121  0.0885 -0.7707  0.2195
12556TIP3    H159083   1.202   2.239   4.057 -0.2400 -0.2005  0.3164
12556TIP3    H259084   1.058   2.197   4.082  0.1626 -1.8115 -0.0074
12557TIP3   OH259085   4.438   0.491  15.215 -0.5438 -0.0552  0.3528
12557TIP3    H159086   4.391   0.549  15.275 -2.2057 -1.1704  0.1773
12557TIP3    H259087   4.437   0.538  15.131  0.6031  0.9102  0.8779
12558TIP3   OH259088   3.250   3.756  15.198 -0.4698  0.2564  0.5195
12558TIP3    H159089   3.282   3.667  15.214 -1.5871 -0.2105  0.2006
12558TIP3    H259090   3.321   3.813  15.229 -0.2315 -0.7190  1.8161
12559TIP3   OH259091   4.121   1.363   1.808  0.5307  0.3638  0.2807
12559TIP3    H159092   4.182   1.351   1.735 -2.3100 -3.4447 -1.7033
12559TIP3    H259093   4.042   1.399   1.767  0.0494  1.3565  2.0619
12560TIP3   OH259094   2.474   0.814  16.489  0.1612 -0.4791 -0.4788
12560TIP3    H159095   2.435   0.728  16.499 -0.7900 -0.0312 -0.2605
12560TIP3    H259096   2.553   0.799  16.438 -0.2026 -1.4188 -0.7751
12561TIP3   OH259097   5.393   6.528   1.405  0.8973  0.5671 -0.3937
12561TIP3    H159098   5.429   6.454   1.453 -0.4427 -0.1375 -0.4642
12561TIP3    H259099   5.459   6.547   1.338  1.4648 -0.2471 -0.0791
12562TIP3   OH259100   6.749   3.607   4.174  0.5677  0.5084  0.4026
12562TIP3    H159101   6.758   3.682   4.234  0.8326  0.7999  0.0010
12562TIP3    H259102   6.655   3.589   4.172  0.6261  0.0505  1.4539
12563TIP3   OH259103   1.665   6.223  16.451  0.1786 -0.2922  0.5450
12563TIP3    H159104   1.656   6.314  16.424  1.9231  0.8066  3.4371
12563TIP3    H259105   1.703   6.179  16.375  1.1648  1.8271 -0.2243
12564TIP3   OH259106   2.050   0.463  15.782 -0.0484 -0.0315  0.0002
12564TIP3    H159107   1.989   0.407  15.830  0.3338 -0.4757 -0.0350
12564TIP3    H259108   2.017   0.552  15.796 -0.3356 -0.2193  0.5088
12565TIP3   OH259109   2.556   2.495   1.867  0.5811 -0.6566  0.2891
12565TIP3    H159110   2.499   2.524   1.795  0.7056 -2.6784 -0.6455
12565TIP3    H259111   2.498   2.493   1.943 -0.6174 -2.6510 -0.6497
12566TIP3   OH259112   5.726   5.985   0.994  0.0818 -0.1263  0.3122
12566TIP3    H159113   5.761   5.903   0.958  2.0093  0.0589  1.6998
12566TIP3    H259114   5.779   6.054   0.955 -0.9122  0.4056 -0.1177
12567TIP3   OH259115   3.695   6.243  16.389  0.2756  0.2458  0.2729
12567TIP3    H159116   3.668   6.319  16.441 -0.5231 -0.3765  0.7728
12567TIP3    H259117   3.644   6.251  16.308 -0.6847 -0.3913  0.8094
12568TIP3   OH259118   2.994   1.121  16.919  0.0698  0.4355 -0.5578
12568TIP3    H159119   2.937   1.187  16.878  0.2155  1.3085  0.6078
12568TIP3    H259120   3.044   1.171  16.984  0.5567 -0.7410 -0.0241
12569TIP3   OH259121   5.586   5.197   4.633  0.0545  0.4120  0.7755
12569TIP3    H159122   5.551   5.109   4.619 -2.1215  0.9080  2.6084
12569TIP3    H259123   5.508   5.253   4.632  1.3022  2.1740  0.6402
12570TIP3   OH259124   5.255   5.473  13.318 -0.4389 -0.4732 -0.2228
12570TIP3    H159125   5.180   5.490  13.375 -0.6838 -0.2367 -0.6176
12570TIP3    H259126   5.302   5.557  13.315 -1.2778 -0.0500 -1.6277
12571TIP3   OH259127   3.027   2.222  14.627  0.1181 -0.2044  0.6225
12571TIP3    H159128   2.992   2.141  14.590 -0.7310  0.4095  0.0567
12571TIP3    H259129   3.000   2.290  14.565  3.0929  0.1774 -0.3305
12572TIP3   OH259130   6.655   0.128   0.842  0.9202 -0.1039 -0.4584
12572TIP3    H159131   6.589   0.144   0.909 -0.0175 -2.0095 -0.8838
12572TIP3    H259132   6.736   0.161   0.879 -0.4899  3.6788 -0.5363
12573TIP3   OH259133   0.696   1.986  12.440  0.3016  0.3286 -0.2085
12573TIP3    H159134   0.791   1.973  12.447  0.4116  1.4331  0.5129
12573TIP3    H259135   0.666   1.989  12.531 -0.1521  1.8406 -0.3924
12574TIP3   OH259136   6.580   0.654  15.742 -0.3329 -0.8362 -0.4043
12574TIP3    H159137   6.653   0.684  15.795 -1.6251 -0.0902  0.9901
12574TIP3    H259138   6.578   0.715  15.667 -0.2104 -0.1732  0.1295
12575TIP3   OH259139   0.706   1.891   1.344 -0.5412 -0.2704 -0.3861
12575TIP3    H159140   0.652   1.905   1.422 -0.3289 -1.4081 -0.0294
12575TIP3    H259141   0.779   1.837   1.374  0.1702  0.2465 -1.1294
12576TIP3   OH259142   4.772   1.512   2.038 -0.1294 -0.1124  0.0030
12576TIP3    H159143   4.845   1.497   2.098 -0.1950  1.9195  0.6278
12576TIP3    H259144   4.790   1.454   1.964  1.1635 -0.9589  0.9463
12577TIP3   OH259145   0.448   6.162  13.424  0.2632 -0.3195 -0.4032
12577TIP3    H159146   0.497   6.244  13.419  0.6750 -0.5799 -0.6767
12577TIP3    H259147   0.399   6.169  13.506  2.8500 -1.2101  1.2920
12578TIP3   OH259148   5.160   2.705  14.731  0.0537  0.3094 -0.0561
12578TIP3    H159149   5.068   2.693  14.754  0.0888  0.5394  0.2099
12578TIP3    H259150   5.183   2.792  14.765  0.5787 -0.0692  0.5767
12579TIP3   OH259151   5.425   0.139   5.274  0.3279  0.4278 -0.1078
12579TIP3    H159152   5.493   0.146   5.340  0.9713  0.8340 -0.8045
12579TIP3    H259153   5.411   0.045   5.263  1.6782  0.3043 -0.8674
12580TIP3   OH259154   0.755   5.863   6.307 -0.2208 -0.7906  0.3721
12580TIP3    H159155   0.737   5.777   6.270 -1.3214  0.1969 -1.4559
12580TIP3    H259156   0.678   5.884   6.359  0.9274 -1.7702  2.5561
12581TIP3   OH259157   2.967   3.962  16.236  0.0251 -0.1240 -0.0748
12581TIP3    H159158   2.938   4.032  16.295  1.6745  0.3298  0.2103
12581TIP3    H259159   3.005   3.896  16.293  0.6860 -0.1499 -0.5386
12582TIP3   OH259160   2.786   4.070   2.208 -0.0779  0.5234  0.5780
12582TIP3    H159161   2.871   4.115   2.208  0.7300 -0.9618  0.2353
12582TIP3    H259162   2.734   4.117   2.143  1.2935  0.0285 -0.9275
12583TIP3   OH259163   4.348   1.076  17.239 -0.1759 -0.4631 -0.3726
12583TIP3    H159164   4.338   1.023  17.318  0.6486  1.0615  0.7885
12583TIP3    H259165   4.441   1.101  17.239 -0.3990  0.4063 -1.2533
12584TIP3   OH259166   2.724   5.197  15.018 -0.5988 -0.3000  0.2673
12584TIP3    H159167   2.797   5.135  15.017 -0.6466 -0.3544  0.0194
12584TIP3    H259168   2.734   5.244  15.101 -1.4470 -1.6835  1.1761
12585TIP3   OH259169   3.662   4.803   3.367  0.0179  0.0806 -0.0470
12585TIP3    H159170   3.712   4.802   3.449  0.0083 -0.9947 -0.0427
12585TIP3    H259171   3.703   4.872   3.315  1.4107 -0.6557  0.0256
12586TIP3   OH259172   3.632   1.916   1.409  0.0947  0.0315 -0.5226
12586TIP3    H159173   3.640   1.821   1.411 -0.0039  0.0153 -0.9845
12586TIP3    H259174   3.540   1.933   1.432  0.8285  0.1387  2.6188
12587TIP3   OH259175   0.284   1.134  11.630  0.0260  0.0850  0.5076
12587TIP3    H159176   0.300   1.087  11.712 -0.2516 -0.2797  0.3527
12587TIP3    H259177   0.294   1.068  11.562  0.3190  0.4021  0.2404
12588TIP3   OH259178   5.770   4.145   0.788 -0.4641  0.1153 -0.2102
12588TIP3    H159179   5.737   4.184   0.707 -1.9651  0.3770  0.5137
12588TIP3    H259180   5.708   4.173   0.855  1.6137  1.2105  1.3239
12589TIP3   OH259181   6.122   2.221   4.411  0.1531  0.5440 -0.2002
12589TIP3    H159182   6.121   2.213   4.506 -1.3653  0.9253 -0.1685
12589TIP3    H259183   6.189   2.287   4.393 -0.1600  1.1043  0.6610
12590TIP3   OH259184   6.674   5.498   0.708  0.6553  0.7150 -0.2118
12590TIP3    H159185   6.749   5.481   0.651  0.9559 -1.6312  0.8121
12590TIP3    H259186   6.606   5.529   0.649  1.0791 -1.3052 -1.8462
12591TIP3   OH259187   0.868   0.212  11.938  0.3873  0.4851  0.4111
12591TIP3    H159188   0.781   0.219  11.977  0.4870 -0.1728  0.7684
12591TIP3    H259189   0.860   0.254  11.853 -0.7479 -1.1174 -0.3102
12592TIP3   OH259190   6.479   3.523   4.120 -0.3091 -1.1145  0.3053
12592TIP3    H159191   6.526   3.458   4.171 -0.1687  2.3995  4.9704
12592TIP3    H259192   6.387   3.498   4.127 -0.3181 -0.4960  2.6383
12593TIP3   OH259193   6.279   4.624  11.548  0.3199 -0.7801  0.3185
12593TIP3    H159194   6.189   4.596  11.565  0.0170  0.9120  1.6655
12593TIP3    H259195   6.280   4.645  11.455 -0.5280 -1.3328  0.1749
12594TIP3   OH259196   2.676   4.485  16.055  0.1306 -0.0039  0.1951
12594TIP3    H159197   2.612   4.514  16.120  0.8176  0.7066  0.5611
12594TIP3    H259198   2.699   4.396  16.082  1.4809  0.8127  1.7587
12595TIP3   OH259199   1.430   0.617  10.985  0.1019  0.0580 -0.2724
12595TIP3    H159200   1.467   0.530  10.970 -0.6527 -0.1197 -1.1276
12595TIP3    H259201   1.504   0.676  10.973  0.6007 -0.4536  0.2386
12596TIP3   OH259202   1.820   2.962  16.956 -0.1446 -0.2064  0.0381
12596TIP3    H159203   1.735   3.006  16.965  0.3342  0.4311  1.6360
12596TIP3    H259204   1.822   2.932  16.865 -2.9081 -1.9601  0.4952
12597TIP3   OH259205   5.410   0.879   4.594  0.0201  0.1271  0.0256
12597TIP3    H159206   5.453   0.878   4.508  1.3167 -1.4198  0.6710
12597TIP3    H259207   5.370   0.793   4.602  0.2715  0.1105  1.1584
12598TIP3   OH259208   5.756   2.043  14.775  0.5608  0.1985 -0.6784
12598TIP3    H159209   5.713   1.990  14.842  0.5603  0.9782 -0.0624
12598TIP3    H259210   5.849   2.023  14.783  0.7091  1.2711  0.4369
12599TIP3   OH259211   4.903   5.158   1.922  0.0583 -0.5967 -0.3077
12599TIP3    H159212   4.887   5.251   1.939 -0.1420 -1.1008  2.3953
12599TIP3    H259213   4.829   5.131   1.868 -1.3086  0.1953  1.1352
12600TIP3   OH259214   4.819   1.011   0.928  0.5021  0.2611  0.1420
12600TIP3    H159215   4.833   0.962   0.848  2.5657 -1.2450  1.3771
12600TIP3    H259216   4.774   0.950   0.987 -1.1065  1.3864  0.1221
12601TIP3   OH259217   6.287   3.514   3.479 -0.6381 -0.2800 -0.3133
12601TIP3    H159218   6.381   3.533   3.483 -0.5781 -0.2099 -1.8266
12601TIP3    H259219   6.259   3.515   3.571  0.6546  0.6193  0.0947
12602TIP3   OH259220   5.838   1.544   5.698 -0.1578 -0.5090 -0.5319
12602TIP3    H159221   5.832   1.576   5.608 -0.8377 -2.1282 -1.0872
12602TIP3    H259222   5.793   1.459   5.696 -0.4539 -0.4214  1.4049
12603TIP3   OH259223   5.487   4.500   5.248  0.4155  0.2844 -0.2512
12603TIP3    H159224   5.519   4.482   5.336  2.3982 -0.8311 -1.1636
12603TIP3    H259225   5.494   4.595   5.238 -1.3296  0.6109  1.3268
12604TIP3   OH259226   1.258   0.934  13.431  0.0095 -0.2340  0.3360
12604TIP3    H159227   1.218   0.958  13.347  1.3359 -0.5972 -0.4114
12604TIP3    H259228   1.243   1.010  13.487 -0.7804  0.0603 -0.2623
12605TIP3   OH259229   2.576   4.034   0.222 -0.1199  0.0797  0.4928
12605TIP3    H159230   2.527   3.964   0.263  0.3523 -0.9655 -0.6593
12605TIP3    H259231   2.535   4.045   0.136  1.5440 -0.7311 -0.4369
12606TIP3   OH259232   5.210   6.349   2.016  0.0159 -0.1891  0.9893
12606TIP3    H159233   5.175   6.431   1.981 -0.7929 -0.1574  1.8421
12606TIP3    H259234   5.260   6.311   1.944 -1.7457 -0.2102 -0.2488
12607TIP3   OH259235   0.196   5.439   4.395 -0.7160 -0.2810 -0.5925
12607TIP3    H159236   0.285   5.416   4.369 -1.3819 -2.2206 -1.2353
12607TIP3    H259237   0.144   5.430   4.315 -1.8145 -0.9954  0.1829
12608TIP3   OH259238   6.721   0.330  12.084  0.6153  1.0360 -0.6552
12608TIP3    H159239   6.773   0.255  12.057  1.2024  1.2774 -0.2174
12608TIP3    H259240   6.782   0.404  12.080  0.4363  1.2412  0.3300
12609TIP3   OH259241   4.204   2.626   3.398 -0.1507 -0.1522  0.3828
12609TIP3    H159242   4.242   2.681   3.467 -0.1686  0.0018  0.2702
12609TIP3    H259243   4.279   2.580   3.360  0.3230  2.3287 -1.7979
12610TIP3   OH259244   2.280   5.887  15.137 -0.2216  0.2402 -0.3499
12610TIP3    H159245   2.225   5.844  15.203  0.3700 -0.9609 -0.6484
12610TIP3    H259246   2.287   5.978  15.168  0.7903 -0.5277  1.7147
12611TIP3   OH259247   4.756   3.136  15.047 -0.1366 -0.4090  0.2660
12611TIP3    H159248   4.727   3.132  15.138 -2.1456  0.3525 -0.2953
12611TIP3    H259249   4.785   3.226  15.035  0.0733 -0.4923  0.1425
12612TIP3   OH259250   1.788   5.011  13.890 -0.3251  0.4147 -0.1854
12612TIP3    H159251   1.766   4.974  13.976 -2.8900 -1.3456 -1.5477
12612TIP3    H259252   1.863   5.068  13.908 -0.4518 -0.3218  3.1271
12613TIP3   OH259253   1.867   6.012   2.855 -0.1346  0.4800 -0.2354
12613TIP3    H159254   1.795   6.022   2.793 -1.2793 -3.1041  0.3677
12613TIP3    H259255   1.857   5.923   2.889  4.5962 -0.1394 -0.1307
12614TIP3   OH259256   6.152   5.456   4.452 -0.4579 -0.2420  0.1294
12614TIP3    H159257   6.234   5.497   4.425 -1.3699  1.1063 -0.6932
12614TIP3    H259258   6.178   5.386   4.511  1.3511 -0.7138 -1.1910
12615TIP3   OH259259   3.000   0.457  14.889  0.0400 -0.2811 -0.6920
12615TIP3    H159260   2.996   0.485  14.797  0.6157  0.9254 -0.3525
12615TIP3    H259261   3.091   0.467  14.914 -0.1262 -0.5379  0.0445
12616TIP3   OH259262   4.399   3.294   1.959  0.7027 -0.4625 -0.4390
12616TIP3    H159263   4.404   3.329   2.048  0.2299 -1.6712  0.0744
12616TIP3    H259264   4.305   3.293   1.939  0.7784 -0.6246 -0.7870
12617TIP3   OH259265   4.318   6.614  16.987 -0.2049  0.0166 -0.0288
12617TIP3    H159266   4.369   6.619  16.906  1.3478 -0.1433  0.9277
12617TIP3    H259267   4.304   6.520  17.000 -1.5454  0.0974 -0.7633
12618TIP3   OH259268   0.239   1.670  16.267  0.3067 -0.0768  0.4749
12618TIP3    H159269   0.303   1.622  16.215  0.7851  0.1805  0.8281
12618TIP3    H259270   0.283   1.686  16.350 -1.3054 -2.5762  1.8609
12619TIP3   OH259271   3.931   1.098   4.861 -0.8174  0.5128  0.5230
12619TIP3    H159272   3.938   1.009   4.827 -0.4325  1.3767 -1.7791
12619TIP3    H259273   3.898   1.088   4.950  0.6625 -2.0046  0.8195
12620TIP3   OH259274   1.132   4.654   0.849 -0.0469 -0.2001 -0.3635
12620TIP3    H159275   1.224   4.635   0.832 -0.0440  0.2716 -0.9187
12620TIP3    H259276   1.111   4.605   0.929  0.2838 -1.4788 -1.0460
12621TIP3   OH259277   3.524   2.320   5.652  0.3981 -0.5331  0.3759
12621TIP3    H159278   3.598   2.324   5.591 -0.0461 -1.7966 -0.2592
12621TIP3    H259279   3.495   2.411   5.660 -0.3591 -0.4833 -2.3188
12622TIP3   OH259280   5.396   1.799   1.068 -0.4434 -0.4351  0.4592
12622TIP3    H159281   5.376   1.828   0.979 -2.3685 -0.4130  0.8708
12622TIP3    H259282   5.352   1.863   1.125 -1.8788 -2.2080  1.3888
12623TIP3   OH259283   3.832   4.686  16.048  0.0985  0.3909 -0.0597
12623TIP3    H159284   3.866   4.599  16.070  1.6315  0.8463 -0.5688
12623TIP3    H259285   3.757   4.669  15.991 -0.1764 -0.6143  0.5773
12624TIP3   OH259286   2.064   1.373  15.840 -0.0457 -0.3391  0.7654
12624TIP3    H159287   2.131   1.319  15.799  0.0866 -0.0606  0.6089
12624TIP3    H259288   2.078   1.460  15.804  0.6079  0.0935  2.0515
12625TIP3   OH259289   3.469   5.186   0.032  0.1574 -0.4787 -0.0006
12625TIP3    H159290   3.392   5.203  -0.021 -0.6257  3.6303  2.2670
12625TIP3    H259291   3.539   5.237  -0.008  0.5367 -0.4921  0.6296
12626TIP3   OH259292   4.235   4.329   1.193  0.4071  0.3030  0.2848
12626TIP3    H159293   4.184   4.402   1.159  1.4610  0.1713 -1.6494
12626TIP3    H259294   4.174   4.255   1.191 -0.1339  0.7335  0.5929
12627TIP3   OH259295   4.566   3.221   1.287  0.0053 -0.7170 -0.1327
12627TIP3    H159296   4.622   3.235   1.210  1.4954 -1.1973  0.8450
12627TIP3    H259297   4.479   3.247   1.258  0.3889 -1.7129 -2.2580
12628TIP3   OH259298   2.892   3.107   5.408  0.5821 -0.0384  0.0433
12628TIP3    H159299   2.939   3.079   5.328  0.2797  0.2270 -0.2282
12628TIP3    H259300   2.841   3.183   5.380 -0.1229 -0.4191  0.3115
12629TIP3   OH259301   6.469   1.627   0.401 -0.0984 -0.4587 -0.1555
12629TIP3    H159302   6.382   1.603   0.367 -0.4277 -0.0611  0.4062
12629TIP3    H259303   6.495   1.552   0.455 -0.2623 -0.4084 -0.0067
12630TIP3   OH259304   0.999   0.464   5.045 -0.4994 -0.1591 -0.0527
12630TIP3    H159305   1.062   0.497   4.980  0.3826 -2.5918 -0.4744
12630TIP3    H259306   0.925   0.434   4.993 -1.8861  2.2991  0.4185
12631TIP3   OH259307   0.151   2.543  15.055  0.1641 -0.0767 -0.5629
12631TIP3    H159308   0.120   2.508  15.138  0.0247  1.4379  0.0431
12631TIP3    H259309   0.081   2.602  15.026 -0.1512 -1.2129 -2.1641
12632TIP3   OH259310   4.246   0.707   1.160  0.0584 -0.5783 -0.0465
12632TIP3    H159311   4.210   0.772   1.221 -0.3807  1.2052 -2.1503
12632TIP3    H259312   4.322   0.671   1.206  0.3510  1.4984  1.1609
12633TIP3   OH259313   2.135   1.723  15.183 -0.1139 -0.0358 -0.0611
12633TIP3    H159314   2.215   1.744  15.134 -0.1634 -0.8080 -0.4779
12633TIP3    H259315   2.076   1.686  15.118 -1.3340  1.7696 -0.0324
12634TIP3   OH259316   1.108   6.659   5.906  0.4780 -0.1791  0.4360
12634TIP3    H159317   1.177   6.594   5.910  0.4243 -0.2193  0.6839
12634TIP3    H259318   1.154   6.743   5.896  0.5687 -0.1820  0.8382
12635TIP3   OH259319   5.876   2.907  11.009  0.3220  0.0051  0.0863
12635TIP3    H159320   5.832   2.917  10.924  0.9864 -1.9636 -0.5307
12635TIP3    H259321   5.968   2.919  10.989  0.4300  0.0840  0.6337
12636TIP3   OH259322   4.678   1.592  14.661  0.5102 -0.0087  0.0965
12636TIP3    H159323   4.638   1.672  14.628  0.4792 -0.0193  0.1072
12636TIP3    H259324   4.771   1.612  14.670  0.2749  0.4858  1.5075
12637TIP3   OH259325   4.748   6.378  15.351  0.0534  0.6142  0.2943
12637TIP3    H159326   4.840   6.358  15.372  0.8588  4.0135  0.2504
12637TIP3    H259327   4.711   6.407  15.435 -0.2942  1.6603 -0.2213
12638TIP3   OH259328   5.020   1.855   3.964 -0.5090 -0.2259 -0.9328
12638TIP3    H159329   5.054   1.767   3.979 -1.5375 -0.4014  0.5068
12638TIP3    H259330   5.090   1.900   3.916  1.6565 -0.6778  1.6703
12639TIP3   OH259331   5.525   5.920   4.590  0.1103 -0.7998  0.7727
12639TIP3    H159332   5.612   5.905   4.628  1.2194  0.6955 -1.0958
12639TIP3    H259333   5.542   5.944   4.499 -2.2714 -0.4579  0.3852
12640TIP3   OH259334   1.525   4.110   4.801 -0.1284  0.3812  0.7129
12640TIP3    H159335   1.491   4.057   4.729  1.3264 -1.2325  1.1907
12640TIP3    H259336   1.496   4.199   4.781  0.0300 -0.0903 -1.7209
12641TIP3   OH259337   1.695   0.565   0.453  0.0669 -0.2988  0.3337
12641TIP3    H159338   1.728   0.495   0.397  2.9034 -0.5325  2.2004
12641TIP3    H259339   1.662   0.631   0.391  0.6768 -1.6870 -1.5251
12642TIP3   OH259340   1.982   4.320   3.959  0.3076  0.1608  0.1554
12642TIP3    H159341   2.069   4.322   3.999 -0.1224 -0.4890  1.1554
12642TIP3    H259342   1.954   4.229   3.966 -0.4312  0.3558 -0.2000
12643TIP3   OH259343   6.622   4.147   1.951  0.0838 -0.3362 -0.4583
12643TIP3    H159344   6.589   4.057   1.958 -0.7051 -0.1790 -1.8994
12643TIP3    H259345   6.570   4.186   1.880  0.4299  1.2552  0.1402
12644TIP3   OH259346   3.881   4.439  13.949  0.2799 -0.1512  0.0829
12644TIP3    H159347   3.887   4.479  14.036  0.7530 -2.8657  1.3461
12644TIP3    H259348   3.804   4.479  13.909 -0.2739  0.6977  1.9699
12645TIP3   OH259349   1.917   1.868  13.677 -0.8628  0.6498 -0.3923
12645TIP3    H159350   1.902   1.949  13.630 -0.9599  0.3391 -0.9008
12645TIP3    H259351   2.011   1.854  13.675 -0.6944  1.4862  0.9371
12646TIP3   OH259352   5.776   4.128  15.706 -0.2786 -0.5717  0.8471
12646TIP3    H159353   5.798   4.157  15.617  0.5002  0.9853  1.5309
12646TIP3    H259354   5.861   4.106  15.745 -0.0620  3.2491  2.7411
12647TIP3   OH259355   1.874   6.206  11.243 -0.3722  0.0693  0.3175
12647TIP3    H159356   1.817   6.153  11.187  0.1491 -0.7375  0.5579
12647TIP3    H259357   1.922   6.262  11.182  0.7783 -1.3689 -0.1031
12648TIP3   OH259358   2.239   5.181   4.658 -0.3285  0.6549  0.0331
12648TIP3    H159359   2.290   5.238   4.601 -1.4555  0.2776 -1.3686
12648TIP3    H259360   2.236   5.227   4.742 -0.6392  2.3231 -0.8834
12649TIP3   OH259361   5.545   0.013   4.302  0.7689  0.0401 -0.7054
12649TIP3    H159362   5.476   0.073   4.275  0.2530 -1.0912 -1.9693
12649TIP3    H259363   5.600   0.064   4.361 -1.0700  0.9968  0.2175
12650TIP3   OH259364   6.472   4.603  13.566 -0.5678 -0.0448  0.3586
12650TIP3    H159365   6.490   4.694  13.587  0.7472  0.5752 -3.0698
12650TIP3    H259366   6.544   4.554  13.605  0.7415  0.8346 -0.9002
12651TIP3   OH259367   4.208   5.155   3.309 -0.0193  0.5797 -0.0208
12651TIP3    H159368   4.243   5.079   3.263  1.4876  0.6678  0.9564
12651TIP3    H259369   4.200   5.223   3.242 -2.0996 -0.6485 -1.0588
12652TIP3   OH259370   0.954   5.240   3.820  0.0552 -0.6183  0.2972
12652TIP3    H159371   1.043   5.215   3.796  0.5348  0.4105  0.9957
12652TIP3    H259372   0.911   5.260   3.737  1.1202  1.0120  0.1323
12653TIP3   OH259373   3.402   5.625  13.929 -0.0505  0.1434 -0.0839
12653TIP3    H159374   3.475   5.579  13.888 -1.4345 -0.2393 -2.1786
12653TIP3    H259375   3.393   5.706  13.878 -0.0899  0.9326  1.1627
12654TIP3   OH259376   0.379   0.132  13.631  0.0281  0.1449 -0.0109
12654TIP3    H159377   0.322   0.108  13.704  1.1823 -0.1345  0.8138
12654TIP3    H259378   0.343   0.086  13.556 -0.5444 -0.4258  0.6071
12655TIP3   OH259379   5.833   4.899  11.838  0.4672 -0.8558  0.2244
12655TIP3    H159380   5.897   4.833  11.864 -1.6135 -2.9627  0.1702
12655TIP3    H259381   5.792   4.863  11.759 -1.8800 -0.2925  1.1605
12656TIP3   OH259382   2.989   5.905   5.202  0.1949  0.7287 -0.1116
12656TIP3    H159383   2.906   5.946   5.180 -0.2458  0.1562  0.4568
12656TIP3    H259384   3.027   5.961   5.270 -0.2297  0.4121  0.3928
12657TIP3   OH259385   3.344   2.270   5.460  0.1953 -0.2845  0.0395
12657TIP3    H159386   3.418   2.266   5.522  0.3261  0.9779 -0.0354
12657TIP3    H259387   3.340   2.361   5.433 -1.9417 -0.1667  0.6900
12658TIP3   OH259388   4.546   2.210  16.528 -0.3465 -0.3087 -0.0395
12658TIP3    H159389   4.480   2.271  16.562  0.3415  0.1916  0.4149
12658TIP3    H259390   4.613   2.207  16.597 -0.9660 -2.5409  0.5169
12659TIP3   OH259391   5.908   0.118  13.548 -0.5965  0.2355  0.9277
12659TIP3    H159392   5.867   0.168  13.477 -1.2804 -0.0469  1.1186
12659TIP3    H259393   5.908   0.028  13.516  0.6199  0.3333  0.5878
12660TIP3   OH259394   2.749   3.676   0.406 -0.0002  0.3062  0.1350
12660TIP3    H159395   2.753   3.638   0.319  0.4646 -0.9212  0.6843
12660TIP3    H259396   2.822   3.737   0.410  0.1185  0.1854 -0.2522
12661TIP3   OH259397   4.132   5.817   5.612  0.3123  0.2580 -0.0260
12661TIP3    H159398   4.202   5.882   5.617  0.4901  0.0894 -0.3326
12661TIP3    H259399   4.136   5.783   5.522 -3.1665  3.6052 -1.5987
12662TIP3   OH259400   5.525   5.618  13.456 -0.2683  0.1762  0.4982
12662TIP3    H159401   5.500   5.596  13.546  2.3665  1.1286  1.5240
12662TIP3    H259402   5.480   5.701  13.439 -0.2588  0.3301  1.1854
12663TIP3   OH259403   4.954   1.681   0.171  0.2734 -0.5854 -0.4239
12663TIP3    H159404   5.041   1.717   0.189  0.0968 -0.4126  0.1084
12663TIP3    H259405   4.896   1.730   0.229 -0.2078 -0.5622 -0.9239
12664TIP3   OH259406   0.294   2.926  17.165  0.2758  0.2499  0.1458
12664TIP3    H159407   0.341   2.999  17.125  2.4360 -0.6901  0.9141
12664TIP3    H259408   0.304   2.939  17.259  0.2247 -0.7313  0.2935
12665TIP3   OH259409   1.596   2.027   3.311  0.3702 -0.0455  0.0312
12665TIP3    H159410   1.610   1.990   3.398  0.8456  0.4646  0.1777
12665TIP3    H259411   1.541   2.104   3.327  1.2653  0.6057 -0.0030
12666TIP3   OH259412   6.696   3.771   1.743 -0.1025 -0.2108 -0.4962
12666TIP3    H159413   6.732   3.715   1.674  1.8828 -0.9199  1.0744
12666TIP3    H259414   6.717   3.860   1.715  1.0761 -0.5209 -0.6014
12667TIP3   OH259415   2.791   5.715  11.495 -0.3067 -0.2990 -0.3665
12667TIP3    H159416   2.769   5.793  11.445  0.7303  1.0384  1.2315
12667TIP3    H259417   2.752   5.728  11.581 -1.0651 -2.0543 -0.4116
12668TIP3   OH259418   3.113   4.059   2.068  0.1558  0.0317  0.1536
12668TIP3    H159419   3.094   4.024   1.981 -2.1969 -1.0903  1.1008
12668TIP3    H259420   3.079   4.148   2.066 -2.0733 -0.7868  0.6759
12669TIP3   OH259421   3.346   5.395   0.891  0.3512  0.5342  0.0192
12669TIP3    H159422   3.358   5.465   0.956  1.2516  0.1654  0.2656
12669TIP3    H259423   3.254   5.400   0.866 -0.3302 -0.1786  2.3118
12670TIP3   OH259424   2.019   6.653  12.302  0.0911 -0.3386  0.0197
12670TIP3    H159425   2.068   6.572  12.319 -0.7522 -0.8006  0.2500
12670TIP3    H259426   2.000   6.650  12.209  0.1330 -0.3607  0.0126
12671TIP3   OH259427   4.213   4.290   5.100 -0.6825 -0.2631 -0.1528
12671TIP3    H159428   4.282   4.242   5.054 -3.0819 -0.0844 -4.2780
12671TIP3    H259429   4.256   4.368   5.135  1.1038  0.2853 -3.3782
12672TIP3   OH259430   1.972   5.841  13.148  0.0388  0.2919 -0.6579
12672TIP3    H159431   2.061   5.820  13.121  0.1527 -0.4630  0.2767
12672TIP3    H259432   1.974   5.935  13.169  0.9094  0.0245  0.4963
12673TIP3   OH259433   5.221   5.427   2.866 -0.4863  0.1885  0.0942
12673TIP3    H159434   5.275   5.425   2.945 -0.6619  0.2022  0.2143
12673TIP3    H259435   5.135   5.398   2.895 -0.3989 -0.3829 -0.2085
12674TIP3   OH259436   3.198   4.812  15.752 -0.1882 -0.1134  0.5635
12674TIP3    H159437   3.151   4.893  15.734  0.9235  0.1621 -1.1336
12674TIP3    H259438   3.211   4.813  15.847  1.0477  2.3964  0.4151
12675TIP3   OH259439   2.625   2.242  11.044  0.0279 -0.4392 -0.5283
12675TIP3    H159440   2.631   2.337  11.032 -0.4678 -0.4098 -0.5506
12675TIP3    H259441   2.673   2.225  11.125  2.4857 -0.5043 -1.9482
12676TIP3   OH259442   1.867   4.287   1.751  0.2067 -0.6003 -0.3132
12676TIP3    H159443   1.786   4.331   1.726  0.2526 -0.1429  0.3324
12676TIP3    H259444   1.856   4.267   1.844  1.9270  1.9376  0.5163
12677TIP3   OH259445   5.274   6.623  16.177 -0.0748 -0.3785  0.3948
12677TIP3    H159446   5.251   6.686  16.246 -0.0393 -0.5304  0.5487
12677TIP3    H259447   5.236   6.660  16.097  0.1135 -0.0657  0.4506
12678TIP3   OH259448   5.175   0.487  16.140  0.2231  0.5040  0.6893
12678TIP3    H159449   5.254   0.457  16.095  0.5152  0.9144  0.9276
12678TIP3    H259450   5.161   0.576  16.109 -2.3696 -0.8585 -2.3285
12679TIP3   OH259451   1.505   5.715  11.608  0.2005  0.2314  0.1385
12679TIP3    H159452   1.568   5.702  11.679  0.5397 -1.5106 -0.4567
12679TIP3    H259453   1.523   5.803  11.575  2.8455 -0.5295 -0.5277
12680TIP3   OH259454   0.789   6.370  11.227 -0.2153  0.0094 -0.5408
12680TIP3    H159455   0.876   6.401  11.199 -0.2291 -0.0371 -0.6337
12680TIP3    H259456   0.758   6.317  11.155  1.5536 -3.6223  1.2355
12681TIP3   OH259457   0.264   3.201  14.880 -0.3771  0.6172  0.2710
12681TIP3    H159458   0.284   3.234  14.792 -0.3949 -0.1532 -0.0273
12681TIP3    H259459   0.303   3.265  14.939  0.9295  0.3485 -0.2991
12682TIP3   OH259460   0.964   3.638   5.067 -0.6978  0.3915  0.1399
12682TIP3    H159461   1.030   3.617   5.132 -1.1814  1.5723  1.0366
12682TIP3    H259462   0.884   3.595   5.098 -0.1223 -1.9496 -1.5150
12683TIP3   OH259463   0.040   4.044   5.610  0.4841 -0.8467 -0.4819
12683TIP3    H159464  -0.048   4.013   5.588 -0.1067  0.3196  0.1864
12683TIP3    H259465   0.072   3.982   5.676 -0.5096 -0.3180  0.5084
12684TIP3   OH259466   3.761   2.626   3.563 -0.1974 -0.0310  0.0782
12684TIP3    H159467   3.857   2.623   3.561 -0.2128 -0.1467 -0.7791
12684TIP3    H259468   3.741   2.696   3.624  0.3925 -2.1336  2.8167
12685TIP3   OH259469   1.638   3.706  16.179 -0.6031  0.4372 -0.4519
12685TIP3    H159470   1.641   3.719  16.084  2.4413  1.6507 -0.2788
12685TIP3    H259471   1.588   3.626  16.191 -0.5922 -0.0310 -3.1373
12686TIP3   OH259472   5.375   0.049   1.727  0.3940 -0.0908 -0.0613
12686TIP3    H159473   5.433   0.097   1.786 -0.0003 -0.2646  0.4737
12686TIP3    H259474   5.381   0.096   1.644  1.1459  0.0092  0.0451
12687TIP3   OH259475   2.101   3.480   2.543  0.2396 -0.5038 -0.8274
12687TIP3    H159476   2.100   3.417   2.615  0.0432  2.3143  1.7470
12687TIP3    H259477   2.194   3.498   2.528  0.2867 -1.2260 -1.4036
12688TIP3   OH259478   3.842   3.965   1.465 -0.2371 -0.3588  0.0922
12688TIP3    H159479   3.749   3.985   1.459 -0.2427 -0.5013 -0.3116
12688TIP3    H259480   3.873   4.016   1.540 -1.3352 -2.9251  2.3991
12689TIP3   OH259481   0.219   6.734  16.016  0.1927  0.6248 -0.2888
12689TIP3    H159482   0.310   6.746  16.043  0.5989 -3.3374  0.3334
12689TIP3    H259483   0.170   6.725  16.097 -0.5376  1.1308 -0.6606
12690TIP3   OH259484   1.827   4.485   5.940  0.0663  0.3314 -0.3680
12690TIP3    H159485   1.841   4.444   6.026  2.7603 -2.4149 -1.9789
12690TIP3    H259486   1.824   4.579   5.958  0.2010 -0.2108  2.7628
12691TIP3   OH259487   0.043   4.447  15.902  0.2171 -0.4514  0.0622
12691TIP3    H159488   0.135   4.421  15.895  0.3889  0.0125  0.6068
12691TIP3    H259489   0.023   4.439  15.995  0.2240  1.2294  0.2143
12692TIP3   OH259490   1.190   1.208  15.542 -0.0363  0.1971 -0.3436
12692TIP3    H159491   1.285   1.206  15.543  0.0049  1.9251 -0.2069
12692TIP3    H259492   1.165   1.132  15.490  1.3785 -0.9379  0.5880
12693TIP3   OH259493   5.933   3.620   1.174  0.1576  0.3616 -0.1111
12693TIP3    H159494   5.951   3.653   1.262 -0.0891 -1.9730  0.8500
12693TIP3    H259495   5.842   3.644   1.157  0.6007  1.9796 -0.2851
12694TIP3   OH259496   2.283   2.520  15.458  0.0361  0.6189  0.2330
12694TIP3    H159497   2.198   2.528  15.501 -0.7632  0.6033 -1.2959
12694TIP3    H259498   2.262   2.502  15.366  1.6882 -2.8559  0.4377
12695TIP3   OH259499   2.885   3.252   3.925 -0.2157 -0.7181  0.0946
12695TIP3    H159500   2.806   3.265   3.873  0.0142  0.6143  0.0580
12695TIP3    H259501   2.957   3.259   3.863 -0.0376 -1.3983  0.2177
12696TIP3   OH259502   6.090   4.741   1.950  0.0729 -0.4509 -0.3416
12696TIP3    H159503   6.023   4.803   1.977 -0.1947 -0.7058 -0.4185
12696TIP3    H259504   6.074   4.663   2.003  1.0408 -0.0953  0.4880
12697TIP3   OH259505   1.771   1.437   0.095 -0.2065  0.0878  0.3698
12697TIP3    H159506   1.756   1.467   0.005  0.6575 -1.1141 -0.1923
12697TIP3    H259507   1.683   1.430   0.133 -0.4646  2.7686  0.3587
12698TIP3   OH259508   3.832   6.273   2.563 -0.1653  0.0409  0.8773
12698TIP3    H159509   3.815   6.352   2.615  0.2626  0.7260 -0.0113
12698TIP3    H259510   3.752   6.222   2.571 -0.9010  1.1178  0.4947
12699TIP3   OH259511   5.148   2.499   0.185  0.1855  0.4502  0.4884
12699TIP3    H159512   5.106   2.451   0.114  0.5935 -2.1606  1.9476
12699TIP3    H259513   5.087   2.492   0.259  0.9324  0.8879  1.1545
12700TIP3   OH259514   6.591   0.626  11.780 -0.2042 -0.0989 -0.5309
12700TIP3    H159515   6.566   0.699  11.838  1.0510  0.9638 -1.2857
12700TIP3    H259516   6.515   0.613  11.724 -1.2692 -0.8493  1.0708
12701TIP3   OH259517   5.480   3.912  11.271  0.7250 -0.1537 -0.5494
12701TIP3    H159518   5.522   3.870  11.196 -1.2588  2.7151 -3.4166
12701TIP3    H259519   5.386   3.897  11.258  0.2460  1.8407  0.4178
12702TIP3   OH259520   5.976   6.713   0.317 -0.5784  0.4667 -0.0836
12702TIP3    H159521   5.905   6.698   0.255 -1.5650  0.2627  1.0768
12702TIP3    H259522   5.997   6.626   0.351 -0.1186  0.5881 -0.0594
12703TIP3   OH259523   2.275   3.928  12.875 -0.5919  0.0492  0.4039
12703TIP3    H159524   2.250   4.019  12.864  2.2086  0.8065 -0.1946
12703TIP3    H259525   2.210   3.878  12.826 -1.5048  1.8021 -0.1833
12704TIP3   OH259526   0.484   2.510  11.894  0.0177 -0.3387  0.8910
12704TIP3    H159527   0.448   2.497  11.982 -1.8069 -0.6859  0.1177
12704TIP3    H259528   0.478   2.425  11.852  1.2736 -0.2722  0.5482
12705TIP3   OH259529   0.691   1.517  10.699 -0.2643 -0.3994 -0.1272
12705TIP3    H159530   0.723   1.575  10.630  1.4204 -2.3049 -1.0040
12705TIP3    H259531   0.705   1.565  10.780  2.6758 -0.2112 -0.7001
12706TIP3   OH259532   6.171   6.402   4.315  0.0337 -0.4544 -0.2937
12706TIP3    H159533   6.203   6.381   4.227  0.7864 -0.4739 -0.0257
12706TIP3    H259534   6.152   6.496   4.312  0.9006 -0.2651 -0.2384
12707TIP3   OH259535   4.360   4.318   5.618 -0.4822  0.3146 -0.0033
12707TIP3    H159536   4.366   4.237   5.568 -0.7117  0.0771  0.3531
12707TIP3    H259537   4.441   4.320   5.670 -0.4162  0.3771 -0.1089
12708TIP3   OH259538   4.753   4.042  12.570  0.1694 -0.2368 -0.5602
12708TIP3    H159539   4.808   4.086  12.505  0.6132  0.5262  0.3277
12708TIP3    H259540   4.788   3.952  12.573  0.7760 -0.0052 -0.6664
12709TIP3   OH259541   6.018   1.952   0.348 -0.1669  0.3733 -0.1836
12709TIP3    H159542   5.959   1.882   0.374  0.8616  0.2555  1.8899
12709TIP3    H259543   6.017   1.950   0.252 -2.0525 -0.8371 -0.1565
12710TIP3   OH259544   1.064   0.120  12.685  0.2734 -0.0048  0.2350
12710TIP3    H159545   1.027   0.042  12.644 -1.2988  0.5654  0.5198
12710TIP3    H259546   1.008   0.135  12.762  2.3277 -0.2655  1.8113
12711TIP3   OH259547   1.703   6.381  16.715  0.0100  0.0681 -0.4741
12711TIP3    H159548   1.785   6.397  16.762  0.5802  0.0450 -1.4572
12711TIP3    H259549   1.729   6.331  16.638 -0.8065  0.8458 -1.2609
12712TIP3   OH259550   5.429   5.976  13.641  0.2705 -0.2122  0.4465
12712TIP3    H159551   5.393   6.026  13.715  0.4795 -0.1995  0.5397
12712TIP3    H259552   5.511   5.939  13.675 -0.1849 -1.1296  0.5773
12713TIP3   OH259553   5.235   3.493   2.973  0.4428 -0.3148 -0.0569
12713TIP3    H159554   5.144   3.503   2.999  1.1362  1.1379  1.9039
12713TIP3    H259555   5.285   3.541   3.039  2.5449  0.0098 -1.8116
12714TIP3   OH259556   3.822   0.883   1.263 -0.3675  0.3861 -0.1544
12714TIP3    H159557   3.759   0.886   1.191 -0.9185  0.1308  0.3165
12714TIP3    H259558   3.773   0.845   1.336  1.0148 -2.1391 -0.4848
12715TIP3   OH259559   4.519   3.659   5.213  0.3234  0.0906 -0.1448
12715TIP3    H159560   4.469   3.586   5.250  0.9879  1.3546  3.4017
12715TIP3    H259561   4.611   3.637   5.230  0.6653  0.7000 -1.1350
12716TIP3   OH259562   5.605   1.108   4.250 -0.5058 -0.1571 -0.4764
12716TIP3    H159563   5.559   1.122   4.332  0.0845 -2.7080  0.3343
12716TIP3    H259564   5.552   1.154   4.185 -1.4730  1.1246  1.1746
12717TIP3   OH259565   3.806   1.150   0.381 -0.0340  0.4947 -1.1948
12717TIP3    H159566   3.852   1.106   0.453 -1.2431 -1.4116 -1.5746
12717TIP3    H259567   3.802   1.242   0.409  0.0579 -0.1084  0.9002
12718TIP3   OH259568   1.777   6.293  10.680  0.0175  0.3471 -0.0649
12718TIP3    H159569   1.814   6.234  10.615  1.4525  1.6938 -0.5225
12718TIP3    H259570   1.813   6.379  10.657 -1.4056  1.2644  1.0370
12719TIP3   OH259571   2.410   4.947  11.714  0.0830  0.0226 -0.4480
12719TIP3    H159572   2.422   4.999  11.793  0.9839 -2.1096  0.8577
12719TIP3    H259573   2.495   4.905  11.699 -1.1142 -2.5165 -0.3919
12720TIP3   OH259574   2.853   6.149   4.890 -0.1940 -0.2846  0.3727
12720TIP3    H159575   2.807   6.072   4.856  0.3949 -1.6541  2.6051
12720TIP3    H259576   2.944   6.136   4.863 -0.0795 -0.3939  0.8219
12721TIP3   OH259577   4.393   3.769   3.389  0.3085 -0.0578 -0.0827
12721TIP3    H159578   4.399   3.788   3.482 -2.1641 -0.0684  0.1141
12721TIP3    H259579   4.326   3.700   3.383  3.0422 -2.7359 -1.5318
12722TIP3   OH259580   4.755   4.247  14.700 -0.0499  0.0394 -0.2714
12722TIP3    H159581   4.805   4.183  14.650 -0.3152 -1.2537  1.0576
12722TIP3    H259582   4.799   4.330  14.685  1.7650 -0.8695 -0.0983
12723TIP3   OH259583   3.521   1.339  11.677 -0.1661  0.1136 -0.4200
12723TIP3    H159584   3.489   1.325  11.587 -1.1644 -0.9953  0.0794
12723TIP3    H259585   3.495   1.259  11.724 -0.8872  1.2687  1.1927
12724TIP3   OH259586   0.110   3.719  16.957 -0.2249 -0.1001  0.5325
12724TIP3    H159587   0.018   3.744  16.954 -0.0379  0.6436  0.8992
12724TIP3    H259588   0.132   3.717  17.050  0.1600 -0.1464  0.4430
12725TIP3   OH259589   5.468   4.856  12.716 -0.1485 -0.2599 -0.1474
12725TIP3    H159590   5.558   4.886  12.726 -0.3596  1.1325 -2.2081
12725TIP3    H259591   5.451   4.805  12.795  2.3487 -0.3130  0.3818
12726TIP3   OH259592   5.744   1.424   2.849 -0.2631  0.3910 -0.2983
12726TIP3    H159593   5.785   1.450   2.767 -0.4983 -1.6721 -1.0954
12726TIP3    H259594   5.650   1.428   2.832 -0.3265  0.6603  0.0992
12727TIP3   OH259595   3.009   3.078   1.500  0.1002  0.1352  0.0619
12727TIP3    H159596   3.032   2.986   1.513 -2.6397 -0.2846  2.5015
12727TIP3    H259597   3.087   3.127   1.527  1.2694 -1.4328 -0.4409
12728TIP3   OH259598   4.967   4.221   1.220  0.1658 -0.0738  0.5204
12728TIP3    H159599   4.880   4.260   1.208  0.3759 -0.0395 -0.9603
12728TIP3    H259600   5.027   4.293   1.199  0.5544 -0.1117  1.5041
12729TIP3   OH259601   2.005   2.610  14.247 -0.0716  0.3881  0.4026
12729TIP3    H159602   1.936   2.675  14.262  0.1535  0.1459  2.6267
12729TIP3    H259603   2.086   2.661  14.247 -0.0748  0.3900  0.0272
12730TIP3   OH259604   4.884   1.260  15.573 -0.4934  0.2046  0.0604
12730TIP3    H159605   4.821   1.212  15.519  0.5476 -0.7282 -0.3493
12730TIP3    H259606   4.868   1.228  15.662  1.0302 -1.8468 -0.3811
12731TIP3   OH259607   6.559   3.717  14.509  0.0480  0.3140  0.5679
12731TIP3    H159608   6.589   3.790  14.562  1.3083 -0.7279  1.3318
12731TIP3    H259609   6.638   3.684  14.466 -0.3076 -1.2164  1.0375
12732TIP3   OH259610   3.822   2.746   6.190 -0.7178 -0.4538  0.0140
12732TIP3    H159611   3.728   2.758   6.174 -0.6599  0.0147 -0.0014
12732TIP3    H259612   3.861   2.746   6.102 -0.7302 -0.8611  0.0114
12733TIP3   OH259613   0.038   3.638  11.527  0.5619 -0.6416  0.2727
12733TIP3    H159614   0.090   3.675  11.456 -0.6364  0.2154 -0.1912
12733TIP3    H259615   0.005   3.714  11.574 -0.4080 -1.1562  0.4408
12734TIP3   OH259616   0.819   5.666   0.912 -0.4991  0.4799  0.2772
12734TIP3    H159617   0.757   5.724   0.867 -1.1943  0.5433  1.2829
12734TIP3    H259618   0.889   5.652   0.849 -1.6406  0.2371 -0.9615
12735TIP3   OH259619   0.429   2.150  12.897  0.1938 -0.1928 -0.4825
12735TIP3    H159620   0.380   2.200  12.963  0.7446 -3.1180  2.3143
12735TIP3    H259621   0.363   2.090  12.860  0.9332 -2.1837  1.2759
12736TIP3   OH259622   1.881   1.686   2.294  0.7482 -0.5220 -0.1476
12736TIP3    H159623   1.909   1.598   2.321  0.4100  0.1289  2.3958
12736TIP3    H259624   1.963   1.731   2.272  0.7945 -2.0146 -3.3111
12737TIP3   OH259625   5.812   0.018   3.098  0.6157  0.1786 -0.8345
12737TIP3    H159626   5.831   0.040   3.006 -0.1022  1.3396 -0.7138
12737TIP3    H259627   5.718   0.000   3.099  0.5439  0.6118 -0.2336
12738TIP3   OH259628   4.581   1.374  15.610 -0.3476 -0.4008  0.5407
12738TIP3    H159629   4.621   1.456  15.580  1.7227 -1.2052  1.0386
12738TIP3    H259630   4.599   1.371  15.704 -0.8235 -1.2118  0.6119
12739TIP3   OH259631   3.891   3.073   4.096  0.0335  0.0097  0.2497
12739TIP3    H159632   3.979   3.108   4.109  0.2126  1.6083 -4.1961
12739TIP3    H259633   3.904   2.996   4.040 -1.3968  0.6302 -0.9874
12740TIP3   OH259634   0.126   2.661  15.664  0.1518  0.1658 -0.4486
12740TIP3    H159635   0.185   2.733  15.643  0.7279  0.2117  1.2211
12740TIP3    H259636   0.184   2.592  15.697 -0.3513 -1.1975 -2.3500
12741TIP3   OH259637   4.444   4.743   0.601 -0.2620  0.8862  0.2361
12741TIP3    H159638   4.468   4.744   0.694  0.0361 -0.1899  0.1811
12741TIP3    H259639   4.357   4.783   0.599 -1.6637 -1.9417  1.4321
12742TIP3   OH259640   3.992   3.354  13.426  0.0886  0.3090 -0.3803
12742TIP3    H159641   3.901   3.344  13.455  0.4168 -0.4245  0.4000
12742TIP3    H259642   3.986   3.412  13.350 -1.0226  0.3513 -0.2712
12743TIP3   OH259643   1.722   0.299  15.136  0.8011  0.2520 -0.0055
12743TIP3    H159644   1.764   0.262  15.214 -0.2295  0.8487  0.8485
12743TIP3    H259645   1.777   0.375  15.115 -0.6720  1.9499  2.0351
12744TIP3   OH259646   0.657   2.939  12.249  0.4893  0.1895  0.4040
12744TIP3    H159647   0.601   2.907  12.319  0.5576  1.5465  1.0805
12744TIP3    H259648   0.713   2.864  12.227  1.0034 -0.0228  2.3218
12745TIP3   OH259649   6.055   0.569   1.744 -0.3982  0.6511  0.2039
12745TIP3    H159650   6.029   0.646   1.693 -0.5439  1.0222  0.8307
12745TIP3    H259651   6.120   0.602   1.806 -0.0772  0.1616  0.1316
12746TIP3   OH259652   3.256   2.421   1.840 -0.1715  0.5960  0.2074
12746TIP3    H159653   3.196   2.423   1.765 -0.1350  0.9648  0.1856
12746TIP3    H259654   3.324   2.485   1.817 -0.6804  1.4231  0.9905
12747TIP3   OH259655   2.474   0.169   5.542  0.6211  0.4284 -0.1014
12747TIP3    H159656   2.450   0.261   5.551  2.4755  0.9854 -0.6072
12747TIP3    H259657   2.464   0.150   5.449  1.1482  0.3835 -0.1500
12748TIP3   OH259658   4.262   5.957  15.209 -0.2742 -0.0573 -0.0854
12748TIP3    H159659   4.193   5.898  15.179 -0.4765 -0.3675  0.9660
12748TIP3    H259660   4.243   6.041  15.167 -1.0170 -0.2668 -0.1636
12749TIP3   OH259661   3.949   0.196  16.416 -0.1286 -0.1407 -0.7777
12749TIP3    H159662   3.906   0.253  16.352 -0.5064  0.0253 -0.3874
12749TIP3    H259663   3.949   0.248  16.497 -1.2298 -0.9988 -0.1992
12750TIP3   OH259664   3.622   3.806  14.464 -0.1246  0.0684  0.2535
12750TIP3    H159665   3.577   3.873  14.516  0.2852 -1.0026  2.0425
12750TIP3    H259666   3.691   3.773  14.522 -1.2395 -2.9231 -0.0027
12751TIP3   OH259667   6.273   1.747  12.527  0.1708 -0.1019  0.0569
12751TIP3    H159668   6.228   1.815  12.577 -0.8082  0.0123 -0.9593
12751TIP3    H259669   6.217   1.731  12.451 -0.2687 -2.9295  0.8996
12752TIP3   OH259670   6.333   4.917  12.652 -0.2337 -0.2136 -0.1581
12752TIP3    H159671   6.421   4.946  12.629 -0.9584  3.2739  1.1880
12752TIP3    H259672   6.347   4.847  12.717  1.5182 -0.4304 -0.7343
12753TIP3   OH259673   4.810   5.879  14.396 -0.4067 -0.4493  0.0228
12753TIP3    H159674   4.804   5.796  14.349  0.4102 -1.8213  2.3060
12753TIP3    H259675   4.902   5.903  14.391 -0.5546  0.0826 -0.2137
12754TIP3   OH259676   1.899   0.727   0.182  0.2291 -0.1207  0.7920
12754TIP3    H159677   1.806   0.732   0.204 -0.2632 -0.4155 -1.0668
12754TIP3    H259678   1.934   0.658   0.238 -0.7801 -0.3355  1.1636
12755TIP3   OH259679   1.874   2.545   5.900 -0.7355  0.1494  0.1973
12755TIP3    H159680   1.835   2.631   5.917 -0.3321  0.2422  0.6425
12755TIP3    H259681   1.811   2.483   5.937 -2.1073  0.1316 -2.0195
12756TIP3   OH259682   0.075   6.189  14.559  0.0873  0.2859 -0.2242
12756TIP3    H159683   0.137   6.161  14.627 -0.5895 -0.2462  0.1834
12756TIP3    H259684   0.056   6.109  14.511 -1.1005  0.2329  0.3227
12757TIP3   OH259685   3.986   3.525   3.921 -0.8202  0.0132 -0.3335
12757TIP3    H159686   3.965   3.435   3.897 -1.3986  0.0567 -0.0165
12757TIP3    H259687   4.004   3.522   4.015  1.4707 -0.1621 -0.7677
12758TIP3   OH259688   4.050   0.743   2.066  0.0372  0.3135 -0.5536
12758TIP3    H159689   4.041   0.767   1.974  0.7952 -2.3888 -1.3563
12758TIP3    H259690   3.974   0.687   2.084 -0.3591  1.2010  0.6170
12759TIP3   OH259691   5.773   3.220  16.971 -0.1624  0.1811 -0.1478
12759TIP3    H159692   5.831   3.158  17.015  0.6173 -1.5460 -3.4566
12759TIP3    H259693   5.688   3.207  17.012  0.7258 -0.6757  1.4773
12760TIP3   OH259694   2.099   4.511  15.197  0.2466 -0.2340  0.5285
12760TIP3    H159695   2.081   4.461  15.276  3.5342 -2.1139  0.2040
12760TIP3    H259696   2.027   4.574  15.190 -0.9457 -1.1318  4.0748
12761TIP3   OH259697   1.403   2.239   3.274  0.5720 -0.8013 -0.3174
12761TIP3    H159698   1.333   2.193   3.228 -0.2690 -0.1318  0.2718
12761TIP3    H259699   1.443   2.294   3.207  0.6111 -1.2689 -0.6831
12762TIP3   OH259700   4.777   5.514   5.623 -0.0017 -0.3597  0.0507
12762TIP3    H159701   4.751   5.423   5.605 -3.7075  0.6716 -0.1957
12762TIP3    H259702   4.717   5.567   5.571  2.2299  2.2713  0.0483
12763TIP3   OH259703   1.782   0.753  13.234 -0.6895 -0.0342  0.2443
12763TIP3    H159704   1.831   0.686  13.187 -1.5797 -2.1024  2.1584
12763TIP3    H259705   1.690   0.731  13.219 -0.9910  0.0704  1.7702
12764TIP3   OH259706   0.001   1.614  13.453  0.0845 -0.1186 -0.5134
12764TIP3    H159707  -0.027   1.525  13.432  0.4744 -0.6160  1.0380
12764TIP3    H259708  -0.061   1.643  13.520  0.0298  0.7525 -0.9318
12765TIP3   OH259709   2.750   2.364  13.935 -1.1029 -0.3492 -0.0028
12765TIP3    H159710   2.819   2.376  14.000  1.1513 -2.4509 -1.9201
12765TIP3    H259711   2.748   2.448  13.888 -0.0246 -0.1679  0.2446
12766TIP3   OH259712   5.193   2.498  12.756 -0.4720  0.4217  0.3680
12766TIP3    H159713   5.143   2.418  12.770 -0.9660  0.7413  0.4227
12766TIP3    H259714   5.265   2.492  12.819 -0.5017  0.0178  0.3650
12767TIP3   OH259715   1.176   6.265  15.898  0.0990 -0.4784 -0.3505
12767TIP3    H159716   1.267   6.296  15.901  0.3807 -1.2956 -0.0884
12767TIP3    H259717   1.123   6.344  15.903  0.7900 -0.0515  0.3540
12768TIP3   OH259718   4.176   5.261  12.878  0.6939 -0.3716  0.6035
12768TIP3    H159719   4.119   5.185  12.888  0.3696 -0.1956  0.1218
12768TIP3    H259720   4.139   5.309  12.804  1.7545 -0.5061 -0.0191
12769TIP3   OH259721   2.562   6.574   0.988  0.4292  0.7141 -0.3306
12769TIP3    H159722   2.523   6.490   1.013  0.5896  1.2359  1.8215
12769TIP3    H259723   2.656   6.561   1.002  0.5789  0.8892 -1.1502
12770TIP3   OH259724   4.656   6.007   4.358  0.2624 -0.1369  0.2649
12770TIP3    H159725   4.561   6.022   4.364  0.3631  0.5796  0.1535
12770TIP3    H259726   4.695   6.085   4.397  0.8170  0.1614 -0.8541
12771TIP3   OH259727   3.547   4.389  13.020 -0.1576  0.1175 -0.4767
12771TIP3    H159728   3.608   4.350  13.083 -1.0426 -1.1819 -0.3815
12771TIP3    H259729   3.485   4.318  13.001 -0.8382  0.9961 -1.5919
12772TIP3   OH259730   5.021   2.831  16.841  0.2775 -0.1396 -0.1280
12772TIP3    H159731   4.926   2.821  16.831 -0.1170  1.2470  1.8208
12772TIP3    H259732   5.038   2.921  16.812  1.2468 -0.8646 -1.8821
12773TIP3   OH259733   4.200   4.947   2.541 -0.8282  0.3959  0.2024
12773TIP3    H159734   4.207   4.867   2.593  0.1286  0.7820  0.6821
12773TIP3    H259735   4.263   5.007   2.581 -0.4489  0.8759 -1.1007
12774TIP3   OH259736   5.887   6.195  15.360  0.3803  0.2557 -0.1033
12774TIP3    H159737   5.935   6.204  15.442 -0.1453 -2.2008  0.5185
12774TIP3    H259738   5.830   6.272  15.357  0.7619  0.6235  1.5798
12775TIP3   OH259739   6.429   4.299   2.468  0.0934  0.6506  0.6666
12775TIP3    H159740   6.383   4.374   2.505  1.7515  1.5983  0.8492
12775TIP3    H259741   6.487   4.270   2.538 -0.0933 -0.4274  0.3829
12776TIP3   OH259742   0.779   6.707  12.459 -0.3427  0.2076  0.0372
12776TIP3    H159743   0.859   6.705  12.511 -0.1406 -0.9988 -0.3000
12776TIP3    H259744   0.733   6.785  12.489  0.6412  0.5406  0.7099
12777TIP3   OH259745   1.790   5.117   4.144 -0.3794 -0.7695 -0.0185
12777TIP3    H159746   1.726   5.088   4.080  0.6641 -0.7217 -1.1035
12777TIP3    H259747   1.754   5.089   4.229 -1.5605 -1.2004 -0.6490
12778TIP3   OH259748   4.149   6.637   0.696 -0.5489  0.3470 -0.0183
12778TIP3    H159749   4.197   6.710   0.735  0.4748 -0.0466 -0.5075
12778TIP3    H259750   4.217   6.577   0.666 -1.3740 -0.7282  0.2097
12779TIP3   OH259751   3.202   1.902   4.310 -0.0013 -0.9700 -0.5225
12779TIP3    H159752   3.137   1.832   4.307 -0.7992 -0.2578 -0.0910
12779TIP3    H259753   3.170   1.967   4.247  0.2969 -0.6242 -0.3204
12780TIP3   OH259754   3.261   3.571   3.563  0.2694 -0.3492 -0.5470
12780TIP3    H159755   3.307   3.528   3.635  1.1635 -0.5798 -1.2521
12780TIP3    H259756   3.274   3.513   3.488 -1.8222 -0.8170 -0.5791
12781TIP3   OH259757   6.036   5.076   2.395 -0.5550 -0.1054 -0.2290
12781TIP3    H159758   5.953   5.094   2.439 -0.6539  2.1798 -1.3177
12781TIP3    H259759   6.024   5.110   2.306  1.9906  1.4434 -0.0196
12782TIP3   OH259760   1.822   5.274   4.950  0.3786 -0.3217  0.7120
12782TIP3    H159761   1.841   5.324   4.871  0.1506 -0.0947  0.8005
12782TIP3    H259762   1.897   5.216   4.960  1.4887  1.2274  1.5887
12783TIP3   OH259763   3.294   5.446   4.368  0.0689  0.4207  0.5777
12783TIP3    H159764   3.317   5.528   4.411 -2.4194 -0.3422  3.5788
12783TIP3    H259765   3.199   5.438   4.380 -0.1144 -1.7636 -1.7302
12784TIP3   OH259766   2.820   3.373   1.835  0.3338  0.4449  0.1774
12784TIP3    H159767   2.801   3.426   1.912  0.0707  1.4804 -0.5987
12784TIP3    H259768   2.905   3.333   1.854 -0.4568 -0.6026  1.6994
12785TIP3   OH259769   4.389   5.010   2.932  0.0561 -0.3166 -0.4702
12785TIP3    H159770   4.304   4.999   2.976 -0.3658  0.6197 -1.0276
12785TIP3    H259771   4.444   4.942   2.969 -0.9778 -1.0092 -0.1725
12786TIP3   OH259772   0.370   1.926  11.764  0.1034  0.4380  0.6061
12786TIP3    H159773   0.369   1.888  11.851  1.7669  1.6284  1.1681
12786TIP3    H259774   0.442   1.883  11.719 -2.5219 -2.2639 -1.1997
12787TIP3   OH259775   5.208   6.326  15.798 -0.0373  0.3435 -0.2987
12787TIP3    H159776   5.223   6.420  15.807  0.0552  0.3591 -0.6252
12787TIP3    H259777   5.208   6.293  15.888 -1.0522  0.8035 -0.1298
12788TIP3   OH259778   5.769   2.200   2.938  0.1354  0.4723 -0.0669
12788TIP3    H159779   5.758   2.218   3.031  0.7241  0.3386  0.0345
12788TIP3    H259780   5.862   2.175   2.929 -0.3141 -1.1476 -0.4226
12789TIP3   OH259781   6.160   2.295   0.464  0.5259 -0.8927  0.0808
12789TIP3    H159782   6.120   2.293   0.377  4.1112 -0.4423 -1.6660
12789TIP3    H259783   6.123   2.219   0.509 -1.7913 -0.8178 -1.6228
12790TIP3   OH259784   6.483   5.460  13.114 -0.1660  0.0928 -0.0726
12790TIP3    H159785   6.465   5.554  13.112  0.9470  0.3882  2.1967
12790TIP3    H259786   6.561   5.449  13.060 -0.2286  0.4768 -0.2441
12791TIP3   OH259787   3.582   0.566  15.794 -0.0019 -0.0210 -0.2564
12791TIP3    H159788   3.607   0.474  15.794 -0.7408 -0.2216 -1.0776
12791TIP3    H259789   3.515   0.573  15.862  0.1210 -0.0698 -0.1299
12792TIP3   OH259790   6.461   4.391  15.409  0.2736  0.0776  0.2759
12792TIP3    H159791   6.408   4.456  15.456 -0.2005  0.7036 -1.1104
12792TIP3    H259792   6.488   4.435  15.329  0.1782 -1.3476 -0.5552
12793TIP3   OH259793   1.561   6.664   5.535 -0.1034  0.5494 -0.3658
12793TIP3    H159794   1.596   6.687   5.621  0.5152  0.9575 -0.7162
12793TIP3    H259795   1.602   6.727   5.476  0.9274 -0.9025 -1.2335
12794TIP3   OH259796   5.541   4.787   5.191 -0.6651  0.4832 -0.0833
12794TIP3    H159797   5.572   4.776   5.101 -0.3504 -1.9182  0.2845
12794TIP3    H259798   5.458   4.835   5.182 -1.6233 -1.4195 -1.8142
12795TIP3   OH259799   3.781   6.484  12.357 -0.2843 -0.1665  0.3264
12795TIP3    H159800   3.771   6.524  12.271 -1.3846  1.6325  1.2765
12795TIP3    H259801   3.733   6.402  12.352 -0.3651 -0.0525 -0.7592
12796TIP3   OH259802   2.565   2.986   4.573  0.1016  0.0699 -0.0130
12796TIP3    H159803   2.589   2.911   4.518  0.0662  0.5756 -0.7126
12796TIP3    H259804   2.642   3.042   4.572  0.1548  0.0088  0.5764
12797TIP3   OH259805   1.597   2.818  13.415  0.4900  0.0040  0.2259
12797TIP3    H159806   1.621   2.869  13.338 -0.5411  1.4761  0.8543
12797TIP3    H259807   1.503   2.832  13.425  0.2750 -1.6654  0.6776
12798TIP3   OH259808   0.007   2.472   0.281  0.1340 -0.6191 -0.2995
12798TIP3    H159809  -0.013   2.495   0.190 -1.6301 -2.4130 -0.3813
12798TIP3    H259810  -0.001   2.555   0.329 -1.2121 -0.0927 -1.4087
12799TIP3   OH259811   3.503   2.864   5.699  0.7749  0.7530 -0.2676
12799TIP3    H159812   3.484   2.942   5.646  2.0951  0.9206 -0.5021
12799TIP3    H259813   3.492   2.893   5.790 -0.1095  0.8371 -0.3996
12800TIP3   OH259814   6.533   3.397   4.887 -0.1415 -0.3336 -0.1954
12800TIP3    H159815   6.453   3.439   4.916  0.3604  0.3174  0.2762
12800TIP3    H259816   6.573   3.461   4.828  1.5723  0.7180  1.9983
12801TIP3   OH259817   2.068   4.315   1.367 -0.4667  0.3897 -0.3125
12801TIP3    H159818   2.015   4.279   1.438  1.1251 -1.0761  0.1801
12801TIP3    H259819   2.134   4.369   1.411  0.1586 -0.0458 -0.6978
12802TIP3   OH259820   3.086   5.528   4.809 -0.4234  0.5816  0.2763
12802TIP3    H159821   3.073   5.622   4.796 -0.7154  0.6445  0.9859
12802TIP3    H259822   3.177   5.512   4.782  0.1234  1.3474  1.5965
12803TIP3   OH259823   2.935   5.838   4.295  0.0622 -0.1117 -0.4394
12803TIP3    H159824   2.852   5.850   4.248  0.1651 -0.0834 -0.6129
12803TIP3    H259825   2.994   5.800   4.230 -0.0256 -0.8036 -0.1122
12804TIP3   OH259826   4.530   4.579  13.207  0.3261  0.1329 -0.5117
12804TIP3    H159827   4.550   4.491  13.175  1.1021  0.8154 -1.9187
12804TIP3    H259828   4.536   4.635  13.130  1.2652  1.6419  0.6267
12805TIP3   OH259829   4.670   1.651  15.609  0.4539 -0.2747  0.2944
12805TIP3    H159830   4.647   1.742  15.590 -0.0957 -0.3034  0.8059
12805TIP3    H259831   4.703   1.653  15.698  0.9262 -0.4955  0.1237
12806TIP3   OH259832   2.004   2.502   1.440 -0.1778  0.0028  0.2239
12806TIP3    H159833   1.945   2.427   1.445  1.1122 -0.9870  1.0769
12806TIP3    H259834   1.956   2.574   1.482  0.3109 -1.5512  3.6090
12807TIP3   OH259835   1.975   1.214  14.802  0.4894 -0.4778  0.1791
12807TIP3    H159836   2.010   1.298  14.773  0.2610 -0.2917  0.4376
12807TIP3    H259837   1.969   1.223  14.897 -0.6291 -0.3642  0.1021
12808TIP3   OH259838   0.951   5.241  15.945  0.2135  0.2744 -0.2521
12808TIP3    H159839   0.995   5.259  16.028 -0.9136 -0.9014  0.6199
12808TIP3    H259840   0.997   5.165  15.910  0.1745  0.2845 -0.3240
12809TIP3   OH259841   6.734   6.442   1.872  0.2062 -0.4428 -1.1752
12809TIP3    H159842   6.734   6.531   1.837  1.4265  0.0134 -0.0470
12809TIP3    H259843   6.770   6.388   1.801  0.5124  0.1357 -1.4613
12810TIP3   OH259844   5.574   3.377   4.821 -0.4220  0.3545  0.6447
12810TIP3    H159845   5.601   3.421   4.902  1.0889 -2.0346  1.4594
12810TIP3    H259846   5.615   3.429   4.751  1.6201  0.0857  1.6048
12811TIP3   OH259847   1.068   0.038  11.446  0.0990  0.0191 -0.8902
12811TIP3    H159848   1.090   0.008  11.534 -1.4606 -0.3386 -0.6216
12811TIP3    H259849   1.127  -0.012  11.389  0.3016 -0.6009 -0.1457
12812TIP3   OH259850   1.020   5.653  14.791  0.0342 -0.3953 -0.0437
12812TIP3    H159851   0.932   5.615  14.795  0.0759 -0.6180 -0.9698
12812TIP3    H259852   1.077   5.579  14.771  0.5025 -0.3409  1.0920
12813TIP3   OH259853   2.775   4.678   0.929  0.3094  0.2419 -0.3398
12813TIP3    H159854   2.788   4.608   0.993 -0.8345  0.8957  0.6230
12813TIP3    H259855   2.687   4.664   0.896  0.2947  0.8795 -0.5726
12814TIP3   OH259856   0.132   5.249   0.629 -0.5106  0.5541  0.1289
12814TIP3    H159857   0.055   5.262   0.573 -0.5226  1.7146  0.4035
12814TIP3    H259858   0.203   5.229   0.568 -0.8537  0.2607 -0.1816
12815TIP3   OH259859   3.754   0.894   4.394  0.3317 -0.5880 -0.1409
12815TIP3    H159860   3.765   0.800   4.380 -3.0195 -0.8202 -1.6290
12815TIP3    H259861   3.801   0.936   4.322 -0.4996 -1.2179 -1.0513
12816TIP3   OH259862   0.618   5.385  11.792  0.2021 -0.0808 -0.4330
12816TIP3    H159863   0.705   5.423  11.781  0.2136 -0.5407 -2.1717
12816TIP3    H259864   0.607   5.375  11.886  1.8154  0.4675 -0.1763
12817TIP3   OH259865   0.383   3.937   4.271  0.1938  0.2414  0.0454
12817TIP3    H159866   0.457   3.930   4.332  0.2102 -1.0065 -0.1072
12817TIP3    H259867   0.386   4.027   4.240  2.1092  0.0140 -0.5121
12818TIP3   OH259868   2.627   0.121  11.882 -0.1856 -0.0976 -0.0599
12818TIP3    H159869   2.601   0.147  11.794  2.1350  1.3215 -0.3864
12818TIP3    H259870   2.545   0.099  11.926 -1.4309 -0.3691 -2.4082
12819TIP3   OH259871   4.662   5.692   0.396 -0.3918  0.2881 -0.0632
12819TIP3    H159872   4.736   5.649   0.440 -1.1182 -0.8003  0.1198
12819TIP3    H259873   4.620   5.742   0.466 -0.8876 -0.5485  0.2502
12820TIP3   OH259874   2.437   5.498   2.200  0.3372 -0.2731  0.1555
12820TIP3    H159875   2.364   5.536   2.250 -0.4675 -1.5100 -0.0576
12820TIP3    H259876   2.394   5.447   2.131  1.4266 -0.0859 -0.6623
12821TIP3   OH259877   6.410   5.198  13.454 -0.3344  0.0207 -0.3625
12821TIP3    H159878   6.432   5.228  13.542 -2.4227  0.4727  0.0255
12821TIP3    H259879   6.469   5.125  13.438 -0.4851 -0.5850  1.7274
12822TIP3   OH259880   2.251   5.017  12.911 -0.4074  0.1511  0.1079
12822TIP3    H159881   2.258   5.067  12.993 -1.8438 -2.7924  2.0939
12822TIP3    H259882   2.341   5.013  12.878 -0.1259  3.2417  0.3342
12823TIP3   OH259883   0.171   5.577   4.704 -0.1756 -0.5193  0.1929
12823TIP3    H159884   0.147   5.570   4.612  0.2069  3.5093 -0.2782
12823TIP3    H259885   0.253   5.627   4.704  0.9511 -2.2648  2.6197
12824TIP3   OH259886   6.493   1.127   0.798  0.2224  0.9257  0.1495
12824TIP3    H159887   6.404   1.129   0.761  0.3230 -0.2401 -0.1774
12824TIP3    H259888   6.522   1.218   0.796 -1.5672  1.5485  1.7494
12825TIP3   OH259889   5.435   4.882   2.831  0.4875  0.1548 -0.2259
12825TIP3    H159890   5.434   4.884   2.735  2.2212 -1.2485 -0.3086
12825TIP3    H259891   5.356   4.929   2.857 -0.1598  0.3012 -2.3431
12826TIP3   OH259892   1.869   2.718   1.546  0.0552 -0.0790  0.1097
12826TIP3    H159893   1.833   2.805   1.530  0.4619  0.3130  1.2379
12826TIP3    H259894   1.821   2.686   1.623 -0.3417 -0.9984 -0.5103
12827TIP3   OH259895   1.698   3.670  12.292 -0.4499 -0.4381 -0.4062
12827TIP3    H159896   1.648   3.608  12.346  0.6701 -1.0249 -0.0227
12827TIP3    H259897   1.784   3.674  12.334 -0.3848  1.1088 -0.6438
12828TIP3   OH259898   3.805   4.140  10.825  0.2082 -0.0779  0.1061
12828TIP3    H159899   3.824   4.082  10.751  0.8149 -0.1819  0.3461
12828TIP3    H259900   3.816   4.228  10.789  0.3860 -0.1257  0.0466
12829TIP3   OH259901   5.485   0.678  15.519  0.1232  0.1681 -0.3419
12829TIP3    H159902   5.491   0.771  15.498  0.6398 -0.1200 -1.4684
12829TIP3    H259903   5.397   0.653  15.491  0.4818 -0.0008 -1.3445
12830TIP3   OH259904   6.542   4.323   1.159 -0.0820 -0.2271 -0.4024
12830TIP3    H159905   6.504   4.361   1.238  1.0871 -0.2084  0.1555
12830TIP3    H259906   6.628   4.363   1.151  1.1084 -2.5605  0.0868
12831TIP3   OH259907   1.090   6.036  12.842  0.4373 -0.0014 -0.1125
12831TIP3    H159908   1.004   6.059  12.806 -0.0337  0.3356  1.1980
12831TIP3    H259909   1.081   6.052  12.936  1.8985 -0.0954  0.0456
12832TIP3   OH259910   6.777   3.468  13.393 -0.0441 -0.1602 -0.4041
12832TIP3    H159911   6.732   3.408  13.333 -1.9862 -0.8588  1.7010
12832TIP3    H259912   6.822   3.412  13.455  0.1182  0.5595  0.1377
12833TIP3   OH259913   4.761   4.735   2.698  0.0018 -0.0132 -0.2766
12833TIP3    H159914   4.824   4.802   2.672  0.3534 -0.8112 -1.5636
12833TIP3    H259915   4.677   4.767   2.666  0.1126 -0.0004 -0.5605
12834TIP3   OH259916   0.482   2.068  15.244  0.3623 -0.2723  0.0637
12834TIP3    H159917   0.455   2.106  15.161 -1.0983 -0.7552  0.3093
12834TIP3    H259918   0.533   2.137  15.286 -0.8971  0.8377 -0.1968
12835TIP3   OH259919   1.839   3.763   4.323 -0.0767  0.1186 -0.1596
12835TIP3    H159920   1.864   3.697   4.258  0.3298 -0.1393  0.2607
12835TIP3    H259921   1.744   3.755   4.330 -0.0979 -0.0084 -0.5510
12836TIP3   OH259922   2.306   4.890  15.639 -0.3264 -0.1042 -0.8345
12836TIP3    H159923   2.313   4.936  15.722 -1.2376 -0.7943 -0.3576
12836TIP3    H259924   2.248   4.816  15.658 -0.1760 -0.5244 -1.9723
12837TIP3   OH259925   3.151   0.734   5.762 -0.6017  0.0231  1.3679
12837TIP3    H159926   3.150   0.756   5.669  0.2775  1.9090  1.7709
12837TIP3    H259927   3.101   0.653   5.768 -1.0054  0.0830 -0.6930
12838TIP3   OH259928   4.558   3.930   3.928 -0.5393  0.1669 -0.1096
12838TIP3    H159929   4.480   3.981   3.904  0.4673  1.9438  0.3362
12838TIP3    H259930   4.590   3.971   4.009  0.5437 -0.8913  0.0074
12839TIP3   OH259931   5.876   3.595   4.511 -0.2548  0.2202  0.1717
12839TIP3    H159932   5.895   3.600   4.605 -1.4702  1.1475  0.3818
12839TIP3    H259933   5.863   3.686   4.484 -2.6259 -0.2035 -0.2902
12840TIP3   OH259934   3.078   6.320   0.747  0.1014 -0.0182  0.6959
12840TIP3    H159935   3.092   6.411   0.771 -0.3839  0.4774 -0.8024
12840TIP3    H259936   2.986   6.316   0.721 -0.0660 -1.0985  1.4178
12841TIP3   OH259937   0.141   1.322   2.644 -0.2016 -0.1782  0.0609
12841TIP3    H159938   0.204   1.290   2.579 -0.9386 -0.5706 -0.4610
12841TIP3    H259939   0.144   1.256   2.714  0.0838 -0.1090  0.1177
12842TIP3   OH259940   4.907   0.352   3.244 -0.8945 -0.3689 -0.5351
12842TIP3    H159941   4.955   0.385   3.168 -1.9705 -0.9971 -1.4906
12842TIP3    H259942   4.919   0.420   3.311  2.4419 -1.1185 -0.2933
12843TIP3   OH259943   4.752   4.702  15.074  0.4786  0.5013 -0.2230
12843TIP3    H159944   4.749   4.716  15.169 -0.3446  0.5965 -0.2671
12843TIP3    H259945   4.669   4.660  15.053  0.5619  0.6953 -0.9379
12844TIP3   OH259946   2.355   4.984  13.299  0.3646 -0.0109  0.0021
12844TIP3    H159947   2.414   5.039  13.352  0.3250 -0.1442  0.1848
12844TIP3    H259948   2.271   5.030  13.302  0.4583  0.1836 -0.2650
12845TIP3   OH259949   3.755   2.315  16.943  0.2044  0.3168 -0.4243
12845TIP3    H159950   3.723   2.235  16.987  0.2591  0.7027  0.3337
12845TIP3    H259951   3.836   2.336  16.988  1.7381 -0.8401 -2.5745
12846TIP3   OH259952   4.928   0.607  13.531  0.0254 -0.0679  0.5032
12846TIP3    H159953   4.850   0.559  13.505  1.7424 -2.9629  0.5668
12846TIP3    H259954   4.956   0.653  13.452  0.1711 -1.7660 -0.4583
12847TIP3   OH259955   3.567   5.932  12.830 -0.0422  0.0027  0.1006
12847TIP3    H159956   3.475   5.905  12.820 -0.2037  0.0324  1.4420
12847TIP3    H259957   3.563   6.025  12.852  0.3184  0.0344  0.0390
12848TIP3   OH259958   0.903   1.146  15.257 -0.4087  0.4050 -0.6270
12848TIP3    H159959   0.815   1.112  15.238 -0.2161  0.9850 -2.7763
12848TIP3    H259960   0.911   1.222  15.199  0.8359  1.4215  0.8664
12849TIP3   OH259961   4.183   4.220   2.056 -0.3191 -0.3585 -0.7903
12849TIP3    H159962   4.150   4.146   2.004  1.3038 -0.8845 -1.1023
12849TIP3    H259963   4.264   4.187   2.095  1.5163  1.9161 -2.5637
12850TIP3   OH259964   1.596   5.953  13.041 -0.2059  0.3426 -0.2632
12850TIP3    H159965   1.595   6.024  12.977  1.6366  1.1751  0.6028
12850TIP3    H259966   1.553   5.989  13.119 -1.0726 -0.1767 -0.4812
12851TIP3   OH259967   5.336   2.369   2.539  0.4363  0.1181  0.3535
12851TIP3    H159968   5.410   2.385   2.481  0.0158  0.1936 -0.1589
12851TIP3    H259969   5.315   2.455   2.575 -2.0852  0.8925 -2.7097
12852TIP3   OH259970   1.300   6.467   3.995 -0.3269  0.2558  0.4646
12852TIP3    H159971   1.393   6.483   4.010 -0.2866  0.0906  0.3931
12852TIP3    H259972   1.265   6.444   4.081 -0.2617  0.1251  0.4564
12853TIP3   OH259973   1.892   1.674  15.812 -0.5616  0.8781 -0.2066
12853TIP3    H159974   1.961   1.672  15.879 -0.9829 -0.1077  0.2169
12853TIP3    H259975   1.935   1.642  15.733 -0.5573  0.1487  0.0856
12854TIP3   OH259976   6.308   3.198   4.577  0.4782  0.1620  0.0211
12854TIP3    H159977   6.276   3.196   4.667  3.3710  0.1179  1.0983
12854TIP3    H259978   6.340   3.287   4.565 -0.1394  0.2468 -1.0647
12855TIP3   OH259979   0.431   6.425  10.467 -0.4233  0.1987  0.1916
12855TIP3    H159980   0.378   6.499  10.498  0.6294  0.9718  0.1957
12855TIP3    H259981   0.434   6.364  10.541 -2.6757 -0.6260 -0.3816
12856TIP3   OH259982   0.148   2.535  12.872  0.3526 -0.5063 -0.2834
12856TIP3    H159983   0.185   2.513  12.787  2.0594  0.5531  0.1390
12856TIP3    H259984   0.097   2.458  12.897 -0.0083 -0.9007 -2.1589
12857TIP3   OH259985   2.798   2.694  14.248 -0.0711  0.5051  0.3959
12857TIP3    H159986   2.741   2.625  14.282  0.3162  1.0808  2.2541
12857TIP3    H259987   2.871   2.647  14.206 -0.4551 -0.2131  0.5366
12858TIP3   OH259988   6.380   6.515   3.555 -0.2489  0.2427  0.0256
12858TIP3    H159989   6.290   6.483   3.565 -0.6967  1.8190  1.2925
12858TIP3    H259990   6.398   6.508   3.461 -1.1842 -1.4129 -0.0402
12859TIP3   OH259991   3.200   1.633   5.253 -0.5219 -0.4052  0.6312
12859TIP3    H159992   3.213   1.565   5.187 -2.2477  0.7069 -0.9181
12859TIP3    H259993   3.113   1.615   5.288 -1.3276  1.4069 -0.3369
12860TIP3   OH259994   1.853   4.402  12.273 -0.3322 -0.6876 -0.3499
12860TIP3    H159995   1.849   4.453  12.193 -0.8407 -1.9949 -1.1642
12860TIP3    H259996   1.895   4.461  12.337  1.0763 -0.0351 -1.8527
12861TIP3   OH259997   5.355   4.652  15.154 -0.3220 -0.1990 -0.1766
12861TIP3    H159998   5.317   4.692  15.076  0.0774 -0.5201 -0.5365
12861TIP3    H259999   5.422   4.591  15.121  0.2064  0.0388  0.4279
12862TIP3   OH260000   2.039   0.057   0.174  0.6834 -0.0394 -0.2309
12862TIP3    H160001   1.959   0.094   0.212 -0.2321 -1.2704 -0.9413
12862TIP3    H260002   2.054   0.108   0.095  0.9116  0.5374  0.1748
12863TIP3   OH260003   3.737   1.532   1.949 -0.4962  0.7971 -0.5623
12863TIP3    H160004   3.805   1.559   1.888  0.3788  0.6182  0.3367
12863TIP3    H260005   3.727   1.606   2.009 -0.4660  0.4640 -0.1484
12864TIP3   OH260006   1.466   1.384   0.562  0.7475 -0.0118  0.0267
12864TIP3    H160007   1.517   1.461   0.586  0.6001  0.8505 -2.2334
12864TIP3    H260008   1.422   1.409   0.481  0.5546 -2.4157 -0.6620
12865TIP3   OH260009   2.100   5.609  14.167 -0.2106  0.1325 -0.0424
12865TIP3    H160010   2.135   5.552  14.236 -0.9553  1.5460  1.5346
12865TIP3    H260011   2.177   5.656  14.134  0.4835 -2.0572 -1.6635
12866TIP3   OH260012   6.592   0.726  11.428 -0.0237 -0.1794 -0.1257
12866TIP3    H160013   6.650   0.783  11.377 -0.2977  0.0843 -0.1443
12866TIP3    H260014   6.644   0.703  11.506 -0.9047  2.4055  1.2871
12867TIP3   OH260015   2.141   3.777  16.633 -0.4470  0.0223 -0.1197
12867TIP3    H160016   2.189   3.735  16.704 -0.6925  0.3922  0.2655
12867TIP3    H260017   2.194   3.855  16.612 -0.9913  0.5536  0.4579
12868TIP3   OH260018   4.664   1.378  16.532 -0.3416  0.4907  0.2194
12868TIP3    H160019   4.586   1.328  16.508 -0.3252  0.4663  0.2146
12868TIP3    H260020   4.633   1.442  16.595 -0.4658  0.8416 -0.1993
12869TIP3   OH260021   3.771   5.032   3.245 -0.2736  0.5802 -0.1285
12869TIP3    H160022   3.789   5.122   3.269 -0.3512  1.2266 -2.3373
12869TIP3    H260023   3.832   5.013   3.173 -0.9088 -0.8072 -0.3303
12870TIP3   OH260024   6.591   0.854  15.550 -0.1483  0.2361 -0.0300
12870TIP3    H160025   6.577   0.800  15.472 -0.6412 -2.9851  2.2294
12870TIP3    H260026   6.650   0.924  15.519  0.3173 -1.3925 -3.0830
12871TIP3   OH260027   1.467   0.214   4.049 -0.1227 -0.3503  0.1549
12871TIP3    H160028   1.489   0.123   4.032  1.6055  0.0025  0.4194
12871TIP3    H260029   1.546   0.252   4.087 -1.4464  0.7930  1.8445
12872TIP3   OH260030   3.025   4.992  11.978 -0.0210  0.1639 -0.9118
12872TIP3    H160031   3.082   4.918  11.957  0.3876  0.4498 -0.8103
12872TIP3    H260032   3.017   5.040  11.896  1.2429  1.0531 -0.5183
12873TIP3   OH260033   0.784   6.756  14.782 -0.2088  0.1145 -0.4685
12873TIP3    H160034   0.769   6.768  14.688 -1.6659  2.2097  0.0098
12873TIP3    H260035   0.864   6.805  14.799 -0.8148  1.0547 -0.3241
12874TIP3   OH260036   1.441   1.317  14.434 -0.2418  0.6354 -0.2890
12874TIP3    H160037   1.532   1.336  14.410 -0.3186 -1.0016 -2.0415
12874TIP3    H260038   1.391   1.389  14.395  0.1995  1.0013 -0.1875
12875TIP3   OH260039   2.028   1.699   3.746 -0.5489 -0.3719 -0.1360
12875TIP3    H160040   2.089   1.652   3.803  1.5340  2.1783 -0.1946
12875TIP3    H260041   2.021   1.643   3.668  1.6673 -0.7710 -0.0963
12876TIP3   OH260042   3.978   1.596  14.232  0.4265  0.6530  0.1259
12876TIP3    H160043   3.943   1.621  14.146  1.3487  1.1355 -0.1142
12876TIP3    H260044   3.998   1.503  14.223  0.0255  0.5785 -0.0131
12877TIP3   OH260045   1.232   5.312   3.757 -0.2076 -0.0002  0.1892
12877TIP3    H160046   1.267   5.385   3.809  1.2950 -0.7280  0.2383
12877TIP3    H260047   1.214   5.350   3.671  3.4171 -0.1655 -0.7396
12878TIP3   OH260048   4.682   6.506  12.120 -0.0959 -0.6849 -0.6307
12878TIP3    H160049   4.721   6.445  12.183 -1.7035  0.1427  1.2119
12878TIP3    H260050   4.649   6.449  12.049  0.5593 -1.7372 -0.1071
12879TIP3   OH260051   4.440   2.413  16.172  0.0282 -0.1730  0.0332
12879TIP3    H160052   4.482   2.416  16.258 -0.2162 -1.7317  0.2251
12879TIP3    H260053   4.354   2.451  16.187  0.7782  1.5617 -0.0054
12880TIP3   OH260054   0.524   2.642   0.916  0.0014  0.0126 -0.3321
12880TIP3    H160055   0.554   2.732   0.900 -1.9804  0.5768 -1.0171
12880TIP3    H260056   0.442   2.635   0.868 -1.1194 -1.3999  1.7198
12881TIP3   OH260057   4.044   2.747  15.568  0.1629 -0.0916 -0.4766
12881TIP3    H160058   4.126   2.768  15.613 -0.9106 -1.8958  2.5094
12881TIP3    H260059   3.986   2.820  15.590 -0.1007 -0.5606  0.4252
12882TIP3   OH260060   5.326   2.507  12.476 -0.1434  0.4227 -0.6144
12882TIP3    H160061   5.342   2.485  12.384 -1.5918 -0.8085 -0.5952
12882TIP3    H260062   5.236   2.539  12.478 -0.0438  0.6727  0.3448
12883TIP3   OH260063   0.058   4.742  15.714  0.0452 -0.0328 -0.0374
12883TIP3    H160064  -0.018   4.702  15.671 -0.0497 -1.5880  1.5077
12883TIP3    H260065   0.023   4.821  15.756 -0.5249 -0.2195 -0.1457
12884TIP3   OH260066   0.378   5.993  12.517 -0.0374  0.0682 -0.5111
12884TIP3    H160067   0.342   6.082  12.522 -1.4479 -0.5969  2.2349
12884TIP3    H260068   0.313   5.943  12.469 -0.3173  0.0372 -0.1049
12885TIP3   OH260069   3.827   4.524   3.126  0.5128  0.0821 -0.0259
12885TIP3    H160070   3.759   4.473   3.082 -0.6922  0.0892  1.7764
12885TIP3    H260071   3.805   4.615   3.108  0.8015  0.0563 -0.5270
12886TIP3   OH260072   0.442   4.630   3.509 -0.0663  0.6165 -0.1805
12886TIP3    H160073   0.353   4.596   3.517  0.2380  0.3185  2.4789
12886TIP3    H260074   0.471   4.642   3.600  1.6732  3.1605 -1.0063
12887TIP3   OH260075   2.209   4.787   0.093  0.1259 -0.3438  0.2507
12887TIP3    H160076   2.274   4.752   0.154 -2.5037 -0.3421  3.1954
12887TIP3    H260077   2.215   4.882   0.103  0.5656 -0.2945 -0.4625
12888TIP3   OH260078   2.102   3.283  14.307  0.2330  0.0247  0.2154
12888TIP3    H160079   2.119   3.377  14.315 -0.4669  0.1152  0.6511
12888TIP3    H260080   2.173   3.241  14.356  0.7757  0.3089 -0.3213
12889TIP3   OH260081   6.128   6.086   0.622 -0.5109  0.3255  0.5131
12889TIP3    H160082   6.193   6.077   0.552 -0.3163 -2.3834  0.9801
12889TIP3    H260083   6.146   6.013   0.681 -1.4810  1.8339  2.7526
12890TIP3   OH260084   5.120   0.427  11.841 -0.1181 -0.1039  0.7974
12890TIP3    H160085   5.171   0.434  11.761 -0.6135  0.9857  0.5700
12890TIP3    H260086   5.060   0.502  11.838  0.1980  0.2394  2.4067
12891TIP3   OH260087   5.302   2.181   3.459 -0.4747  0.4200 -0.2304
12891TIP3    H160088   5.385   2.150   3.424 -0.8046 -0.6498 -0.0602
12891TIP3    H260089   5.242   2.177   3.385 -0.5495  0.5423 -0.1769
12892TIP3   OH260090   6.194   0.633  15.048  0.0493  0.4133 -0.2976
12892TIP3    H160091   6.153   0.642  15.134 -0.1348 -0.3684 -0.2979
12892TIP3    H260092   6.122   0.609  14.990  0.4181 -0.5107 -0.3810
12893TIP3   OH260093   2.375   2.503   3.576 -0.0770  0.4569 -0.5800
12893TIP3    H160094   2.460   2.506   3.534 -0.9206  0.8936 -2.3079
12893TIP3    H260095   2.315   2.470   3.508 -1.0675 -1.0607  0.9770
12894TIP3   OH260096   0.232   6.243   2.730  0.9391 -0.6887 -0.2821
12894TIP3    H160097   0.314   6.244   2.779 -0.2639 -2.3165  1.8710
12894TIP3    H260098   0.192   6.328   2.749  1.6935 -0.2610 -0.5805
12895TIP3   OH260099   3.399   4.723   0.353 -0.5230 -0.2601  0.3858
12895TIP3    H160100   3.370   4.664   0.283 -0.6343  1.1964 -0.8218
12895TIP3    H260101   3.321   4.773   0.376 -0.1662  0.1959  0.6175
12896TIP3   OH260102   2.326   0.101  11.986 -0.2200  0.4047 -0.1354
12896TIP3    H160103   2.315   0.048  11.907  1.1346  0.3522 -0.2901
12896TIP3    H260104   2.236   0.121  12.014 -0.7971 -2.6292  0.3783
12897TIP3   OH260105   5.590   0.196  14.871 -0.2692 -0.3676 -0.4598
12897TIP3    H160106   5.537   0.249  14.812 -0.1374 -0.2493 -0.4719
12897TIP3    H260107   5.679   0.228  14.859 -0.2201 -0.4456 -0.3087
12898TIP3   OH260108   3.691   4.580   4.393  0.1134  0.0755  0.5830
12898TIP3    H160109   3.745   4.649   4.357 -0.5307  0.3254  0.1044
12898TIP3    H260110   3.607   4.621   4.412 -0.4973 -0.7214 -0.3301
12899TIP3   OH260111   5.461   3.411   2.411 -0.9815 -0.5293  0.2092
12899TIP3    H160112   5.545   3.449   2.385 -0.9873  0.3730  1.4616
12899TIP3    H260113   5.453   3.432   2.504 -2.6745 -0.4401  0.0624
12900TIP3   OH260114   3.013   2.995  14.059  0.0001 -0.1517 -0.1994
12900TIP3    H160115   3.036   3.086  14.042  0.5996 -0.0019  1.3097
12900TIP3    H260116   2.922   2.999  14.090  0.0234 -0.0637 -0.1403
12901TIP3   OH260117   2.823   2.167  11.230 -0.5020 -0.0230  0.2481
12901TIP3    H160118   2.865   2.084  11.205 -2.1677 -0.3061 -1.7488
12901TIP3    H260119   2.789   2.151  11.318 -2.1019 -1.9964 -0.6817
12902TIP3   OH260120   2.752   6.465   4.806  0.8086 -0.3890  0.0639
12902TIP3    H160121   2.761   6.375   4.837 -0.5655 -1.1705 -1.7122
12902TIP3    H260122   2.714   6.512   4.880 -1.4688 -1.9800 -0.0291
12903TIP3   OH260123   3.684   2.252   4.680  0.6325 -0.1887 -0.5510
12903TIP3    H160124   3.641   2.291   4.756  1.8126  0.1192 -0.0324
12903TIP3    H260125   3.669   2.315   4.609  1.0769  0.3990 -0.1311
12904TIP3   OH260126   3.280   2.756  15.841  1.0628  0.2473 -0.3597
12904TIP3    H160127   3.186   2.777  15.843  1.2114  0.8126  1.2580
12904TIP3    H260128   3.314   2.807  15.768  0.1968  0.4741 -0.6098
12905TIP3   OH260129   2.069   3.792  11.754  0.5520  0.5526 -0.6446
12905TIP3    H160130   2.148   3.739  11.763  0.1003  0.1471  1.0354
12905TIP3    H260131   2.001   3.731  11.725  0.0290  0.1928  1.3022
12906TIP3   OH260132   2.834   4.664   3.647 -0.5052  0.5328 -0.2597
12906TIP3    H160133   2.877   4.736   3.600 -0.9333  0.4387 -0.7983
12906TIP3    H260134   2.906   4.605   3.670 -0.1491  1.1376  0.1907
12907TIP3   OH260135   4.337   2.184  15.958  0.3112  0.3117  0.2727
12907TIP3    H160136   4.358   2.277  15.962  0.7765  0.2621 -0.8708
12907TIP3    H260137   4.322   2.159  16.049  0.7412  1.3735  0.6437
12908TIP3   OH260138   3.170   0.275   4.517  0.3782  0.3889 -0.3781
12908TIP3    H160139   3.170   0.293   4.423 -0.6066  0.0103 -0.4585
12908TIP3    H260140   3.078   0.283   4.543  0.3054 -1.7675  0.1041
12909TIP3   OH260141   6.203   4.533   3.258  0.7633 -0.1630 -0.1522
12909TIP3    H160142   6.199   4.443   3.224 -0.7137  0.2161 -1.0248
12909TIP3    H260143   6.249   4.524   3.342  1.8135 -1.5355 -0.8422
12910TIP3   OH260144   4.668   2.945   2.756  0.1204 -0.4172  0.1154
12910TIP3    H160145   4.679   2.877   2.690 -1.1357 -0.5037 -0.0271
12910TIP3    H260146   4.639   3.022   2.707  3.0973  0.7387  0.0650
12911TIP3   OH260147   5.569   4.467   4.908 -0.0005  0.3828  0.7509
12911TIP3    H160148   5.569   4.561   4.926 -0.8075  0.6389 -0.4893
12911TIP3    H260149   5.577   4.461   4.813 -0.1606 -0.7974  0.8027
12912TIP3   OH260150   0.417   0.696  16.899  0.3162  0.1039 -0.3625
12912TIP3    H160151   0.377   0.616  16.933 -0.4445  0.0035 -1.5137
12912TIP3    H260152   0.345   0.758  16.889  0.7332  0.5562 -0.6224
12913TIP3   OH260153   1.924   0.928   3.273  0.1734 -0.5707 -0.8548
12913TIP3    H160154   1.970   0.864   3.327  0.8787 -1.5203 -2.5111
12913TIP3    H260155   1.922   1.007   3.326  1.3927 -1.2866  0.3060
12914TIP3   OH260156   0.431   4.275  16.854  0.3319  0.0444 -0.1146
12914TIP3    H160157   0.482   4.344  16.811  2.0235 -0.4921  0.9927
12914TIP3    H260158   0.452   4.196  16.804  0.7527 -0.2096  0.4581
12915TIP3   OH260159   2.004   2.671   0.807  0.4442  0.4118  0.2645
12915TIP3    H160160   2.086   2.626   0.785 -0.1717  0.0334 -1.3158
12915TIP3    H260161   1.987   2.646   0.898  1.2913 -0.7139  0.1323
12916TIP3   OH260162   5.853   6.455   6.207  0.1791 -0.7698 -0.3232
12916TIP3    H160163   5.883   6.364   6.202 -1.6911 -1.4141 -0.3145
12916TIP3    H260164   5.782   6.460   6.142 -0.1188  0.5290  0.0948
12917TIP3   OH260165   5.529   2.560   3.249  0.4456  0.2223  0.5958
12917TIP3    H160166   5.599   2.611   3.289  0.3156  1.5584 -0.8394
12917TIP3    H260167   5.553   2.554   3.157 -0.3222 -1.0054  0.4710
12918TIP3   OH260168   1.093   1.317  15.767 -0.7304  0.1163 -0.1935
12918TIP3    H160169   1.052   1.398  15.738  0.1806  0.2545 -1.1217
12918TIP3    H260170   1.132   1.280  15.688 -0.3122 -0.7312  0.4028
12919TIP3   OH260171   6.155   5.556  16.261 -0.0245 -0.0826 -0.1801
12919TIP3    H160172   6.209   5.621  16.216  1.6865 -0.6297  1.0514
12919TIP3    H260173   6.200   5.473  16.249 -1.9546 -1.0156 -1.3259
12920TIP3   OH260174   4.090   6.416  12.784  0.5295 -0.0696  0.1453
12920TIP3    H160175   4.168   6.366  12.808 -0.7799 -1.3281  1.9654
12920TIP3    H260176   4.107   6.504  12.816  1.1588 -0.3806  0.6841
12921TIP3   OH260177   1.221   1.599  15.732 -1.0080 -0.7748  0.7507
12921TIP3    H160178   1.296   1.543  15.712 -0.3096  0.8583 -1.3535
12921TIP3    H260179   1.168   1.597  15.652 -1.2560  1.1225  0.8471
12922TIP3   OH260180   2.198   4.262   3.455  0.7044 -0.0897 -0.4931
12922TIP3    H160181   2.227   4.295   3.540  0.5024 -0.5067 -0.2647
12922TIP3    H260182   2.115   4.307   3.439 -0.1756 -1.3653  0.3654
12923TIP3   OH260183   5.060   6.168   6.361  0.3501 -0.2324  0.5420
12923TIP3    H160184   5.061   6.111   6.285 -0.2652  1.4598 -0.7542
12923TIP3    H260185   4.988   6.229   6.345  1.3625  1.2853  1.6141
12924TIP3   OH260186   6.724   5.484  15.333  0.4641 -0.2336  0.0191
12924TIP3    H160187   6.649   5.483  15.273  0.1860 -2.5240  0.3460
12924TIP3    H260188   6.757   5.573  15.329 -2.6515  1.0042  0.2838
12925TIP3   OH260189   0.638   3.341   3.868 -0.4475 -0.8406 -0.2449
12925TIP3    H160190   0.686   3.320   3.949 -0.7060  0.4106  0.2477
12925TIP3    H260191   0.630   3.258   3.823  1.1983 -1.2695  0.2156
12926TIP3   OH260192   5.366   6.690   0.945  0.4591  0.0850 -0.4716
12926TIP3    H160193   5.384   6.732   0.861  0.1232 -1.2371 -1.2239
12926TIP3    H260194   5.310   6.752   0.992 -1.3830 -0.2069 -2.2094
12927TIP3   OH260195   4.319   6.596  14.696 -0.1776 -0.2265  0.2094
12927TIP3    H160196   4.276   6.511  14.699 -3.1278  1.2275  0.5320
12927TIP3    H260197   4.249   6.659  14.712  2.0727  2.2399  0.6522
12928TIP3   OH260198   1.090   3.519  16.549  0.0529  0.2649  0.3541
12928TIP3    H160199   1.081   3.427  16.573 -0.4777  0.8148  2.3130
12928TIP3    H260200   1.004   3.557  16.564  0.5937  1.3546  0.7618
12929TIP3   OH260201   6.504   2.739   4.418 -0.7112  0.2053  0.3541
12929TIP3    H160202   6.452   2.801   4.469  0.1319  0.4442  0.9434
12929TIP3    H260203   6.594   2.768   4.431 -0.4106 -0.3814 -0.4083
12930TIP3   OH260204   4.970   4.790   5.633 -0.0880 -0.0293  0.0710
12930TIP3    H160205   4.929   4.870   5.599 -0.0690  0.5813  1.4387
12930TIP3    H260206   4.928   4.776   5.718  0.8624 -0.7253  0.4357
12931TIP3   OH260207   5.721   5.030   5.797  0.7273 -0.0723 -0.3889
12931TIP3    H160208   5.736   5.109   5.745 -0.1652 -0.2878 -0.9819
12931TIP3    H260209   5.709   5.062   5.886  0.7652  0.4301 -0.5618
12932TIP3   OH260210   1.046   4.969   3.071 -0.1331 -0.1018 -0.0275
12932TIP3    H160211   1.125   5.000   3.026  0.8970  0.4853  2.0880
12932TIP3    H260212   1.058   4.875   3.078  0.4690 -0.0038  0.3823
12933TIP3   OH260213   3.942   1.888  13.507 -0.1977  0.0619 -0.9229
12933TIP3    H160214   3.957   1.914  13.417  1.5046 -0.7347 -0.9009
12933TIP3    H260215   3.851   1.909  13.524 -0.2445  1.1841 -2.4984
12934TIP3   OH260216   0.429   2.651  15.622  0.1228  0.2653 -0.4317
12934TIP3    H160217   0.440   2.556  15.620  0.1513  0.2810 -1.5169
12934TIP3    H260218   0.412   2.675  15.530 -0.9052  1.1845 -0.0108
12935TIP3   OH260219   3.853   1.772  11.401 -0.0999 -0.4417  0.1017
12935TIP3    H160220   3.893   1.709  11.461 -1.7262 -2.0633 -0.4729
12935TIP3    H260221   3.773   1.800  11.445  1.0355  1.9410  0.7512
12936TIP3   OH260222   1.876   1.419   2.519 -0.4378  0.1971 -0.1630
12936TIP3    H160223   1.865   1.396   2.611 -0.1026 -0.3182 -0.2477
12936TIP3    H260224   1.844   1.342   2.471  0.4997 -0.0098 -0.4548
12937TIP3   OH260225   5.520   6.630   1.167  0.1843  0.5940 -0.4244
12937TIP3    H160226   5.594   6.683   1.138  0.0332  0.8320 -0.3777
12937TIP3    H260227   5.451   6.647   1.102  1.3077 -2.3223 -2.4643
12938TIP3   OH260228   0.251   4.456   1.132 -0.4929 -0.3651  0.0953
12938TIP3    H160229   0.302   4.508   1.070  0.2492 -1.0378  0.1279
12938TIP3    H260230   0.296   4.372   1.135 -0.1269 -0.1485  2.0214
12939TIP3   OH260231   5.299   2.929  14.512  0.0875 -0.5590  0.2469
12939TIP3    H160232   5.204   2.924  14.511  0.1237 -1.1059 -1.2155
12939TIP3    H260233   5.326   2.862  14.575 -0.4688 -0.8677  0.1588
12940TIP3   OH260234   3.413   5.073  12.012 -0.0066 -0.3136 -0.5306
12940TIP3    H160235   3.338   5.091  12.069  0.2399  0.5401 -0.4743
12940TIP3    H260236   3.450   5.159  11.992  0.3755 -0.6586 -1.3544
12941TIP3   OH260237   4.327   6.073   2.200  0.2744 -0.2018 -0.6035
12941TIP3    H160238   4.422   6.071   2.211  0.2861  0.3712 -0.5850
12941TIP3    H260239   4.301   5.980   2.197  0.5635 -0.3840  1.7982
12942TIP3   OH260240   5.865   4.973  16.609  0.3405  0.9366  0.6292
12942TIP3    H160241   5.869   4.947  16.517  1.2789  0.2567  0.8591
12942TIP3    H260242   5.879   5.068  16.607  0.3926  0.9230  0.0773
12943TIP3   OH260243   3.327   6.508   3.229  0.3654 -0.0638  0.1037
12943TIP3    H160244   3.252   6.548   3.186  0.2968  0.6934  0.8914
12943TIP3    H260245   3.328   6.548   3.316  2.7167  1.2690 -0.4975
12944TIP3   OH260246   3.735   4.825   2.565  0.1489 -0.4008 -0.0065
12944TIP3    H160247   3.667   4.858   2.507  0.7585  1.4688  0.3036
12944TIP3    H260248   3.770   4.748   2.520  0.6635  1.0666 -2.1732
12945TIP3   OH260249   4.811   2.792   5.687 -0.5141 -0.0032 -0.5542
12945TIP3    H160250   4.854   2.748   5.614  0.9224 -0.3723  0.4981
12945TIP3    H260251   4.826   2.886   5.671  0.2522 -0.1056 -0.4746
12946TIP3   OH260252   4.168   3.750  13.956 -0.6362 -0.5675  0.3251
12946TIP3    H160253   4.082   3.729  13.992 -0.7073 -0.9164 -0.0450
12946TIP3    H260254   4.227   3.687  13.999 -0.4234  0.2202  1.2197
12947TIP3   OH260255   1.166   5.531  17.034  0.3833 -0.3850 -0.0456
12947TIP3    H160256   1.105   5.458  17.044  1.1611 -0.8021  1.7779
12947TIP3    H260257   1.241   5.494  16.987 -0.5524  0.0267 -1.9131
12948TIP3   OH260258   4.718   4.014   3.578  0.1237 -0.0372  0.2307
12948TIP3    H160259   4.732   4.010   3.483  1.5888 -0.4161  0.4504
12948TIP3    H260260   4.786   4.074   3.609 -0.4571  0.2184  1.0304
12949TIP3   OH260261   0.934   6.362  13.307  0.1504  0.7488 -0.0778
12949TIP3    H160262   0.870   6.316  13.360 -0.2993  0.1689 -1.1158
12949TIP3    H260263   1.004   6.386  13.368 -1.5801  2.4184  1.3112
12950TIP3   OH260264   1.851   5.266   3.914 -0.0515 -0.1103 -0.2144
12950TIP3    H160265   1.824   5.225   3.996 -0.6544 -0.6833 -0.6944
12950TIP3    H260266   1.776   5.255   3.855 -0.3957  2.0857 -0.2103
12951TIP3   OH260267   5.377   3.671   5.038 -0.1222 -0.6326 -0.7351
12951TIP3    H160268   5.424   3.594   5.071  2.7661  0.7381 -1.4304
12951TIP3    H260269   5.331   3.706   5.115  1.1700 -1.2321  0.3447
12952TIP3   OH260270   4.146   4.431   3.631 -0.5706  0.4629 -0.3515
12952TIP3    H160271   4.084   4.421   3.703  0.5106  0.1308  0.5484
12952TIP3    H260272   4.206   4.500   3.659  1.3049 -1.3205  0.1330
12953TIP3   OH260273   6.286   1.272   1.595 -0.1206 -0.1672 -0.5011
12953TIP3    H160274   6.362   1.268   1.538 -1.2002  1.8087 -2.1425
12953TIP3    H260275   6.321   1.300   1.680  0.8819  1.5730 -1.4690
12954TIP3   OH260276   3.649   0.643   4.488  0.0632  0.0272 -0.0412
12954TIP3    H160277   3.679   0.680   4.572  1.0350 -0.3774 -0.2069
12954TIP3    H260278   3.586   0.708   4.455 -0.1684  0.2936  0.8952
12955TIP3   OH260279   4.403   2.516   5.953 -0.1061  0.3871  0.2933
12955TIP3    H160280   4.411   2.611   5.948  0.6427  0.3025 -0.2436
12955TIP3    H260281   4.414   2.495   6.046  2.1894  0.6180  0.0943
12956TIP3   OH260282   1.204   6.626   0.923 -0.3546 -0.5694 -0.3556
12956TIP3    H160283   1.138   6.681   0.965 -0.2219 -1.0771  0.5198
12956TIP3    H260284   1.237   6.570   0.993  1.1966 -0.1342 -0.7243
12957TIP3   OH260285   2.923   5.225   3.900  0.4073 -0.8239 -0.2636
12957TIP3    H160286   2.919   5.210   3.994 -1.6065 -1.6948 -0.4643
12957TIP3    H260287   2.967   5.147   3.865  2.4100  0.1159  0.0511
12958TIP3   OH260288   2.596   5.377  16.197  0.0130 -0.2070 -0.0964
12958TIP3    H160289   2.686   5.408  16.201  0.7236 -2.2048  0.3185
12958TIP3    H260290   2.555   5.408  16.278  0.4613  0.2773 -0.0573
12959TIP3   OH260291   5.849   0.388   4.622 -0.2835  0.2278  0.2361
12959TIP3    H160292   5.798   0.382   4.703 -1.9152 -0.6750 -0.8390
12959TIP3    H260293   5.904   0.310   4.623 -0.6097 -0.0022  0.2692
12960TIP3   OH260294   3.627   5.910   4.395 -0.1378  0.1487 -0.2626
12960TIP3    H160295   3.635   5.866   4.480 -1.6662  0.6677  0.1641
12960TIP3    H260296   3.539   5.948   4.396  0.1431  0.8637 -1.7473
12961TIP3   OH260297   4.323   6.100  16.576 -0.6043 -0.1456 -0.6510
12961TIP3    H160298   4.416   6.080  16.562 -0.3030 -1.2370  2.6720
12961TIP3    H260299   4.282   6.081  16.491  2.0178 -0.6321 -1.8699
12962TIP3   OH260300   0.603   6.265   2.174  0.3803  0.2645  0.3540
12962TIP3    H160301   0.698   6.264   2.166  0.4091 -2.2930  0.3416
12962TIP3    H260302   0.586   6.239   2.264 -0.2872 -2.1477 -0.4105
12963TIP3   OH260303   3.737   0.590  11.628 -0.4049 -0.2287 -0.2458
12963TIP3    H160304   3.684   0.519  11.663 -2.1088  0.4301 -1.4556
12963TIP3    H260305   3.827   0.557  11.634 -1.1298 -2.3399 -0.4337
12964TIP3   OH260306   0.437   3.548  12.707 -0.2353 -0.0863 -0.4271
12964TIP3    H160307   0.494   3.482  12.746 -0.2718  0.9268  1.4088
12964TIP3    H260308   0.475   3.565  12.621 -0.2264 -2.4576 -0.9203
12965TIP3   OH260309   5.370   1.410   5.250  0.1991  0.7999 -0.4186
12965TIP3    H160310   5.409   1.410   5.337  0.0911  0.7953 -0.3699
12965TIP3    H260311   5.327   1.324   5.242  0.9613  0.4490 -0.8175
12966TIP3   OH260312   6.748   1.131  14.827  1.1369  0.2708  0.1411
12966TIP3    H160313   6.704   1.159  14.907  1.5672  0.2326  0.3910
12966TIP3    H260314   6.841   1.142  14.845  1.2744 -0.5418 -0.0571
12967TIP3   OH260315   0.134   0.552  15.462  0.1276  0.1253  0.1852
12967TIP3    H160316   0.168   0.626  15.412 -1.7005  1.4140  0.7851
12967TIP3    H260317   0.080   0.504  15.399  2.5996 -1.6374 -0.6332
12968TIP3   OH260318   6.439   6.736   5.137  0.1127 -0.4152 -0.0102
12968TIP3    H160319   6.346   6.744   5.155  0.7849 -0.1497  3.6396
12968TIP3    H260320   6.463   6.650   5.171  1.3198 -0.2448 -0.3929
12969TIP3   OH260321   5.628   6.602  15.221 -0.0456  0.4152 -0.0023
12969TIP3    H160322   5.642   6.615  15.127 -1.1877 -0.1643 -0.2558
12969TIP3    H260323   5.542   6.640  15.239  0.0670  0.3234  0.7777
12970TIP3   OH260324   2.976   2.064   5.715 -0.3550 -0.3247  0.4825
12970TIP3    H160325   3.060   2.057   5.669 -0.3947  2.7729 -0.2015
12970TIP3    H260326   2.998   2.051   5.808  0.9043  0.5427  0.3153
12971TIP3   OH260327   4.323   1.479  17.168 -0.2399 -0.0328 -1.2109
12971TIP3    H160328   4.270   1.499  17.245 -1.0925 -3.1801 -0.8889
12971TIP3    H260329   4.411   1.464  17.203 -0.4030 -0.4413 -0.9653
12972TIP3   OH260330   1.261   6.083   2.618 -0.0557 -0.0103  0.2660
12972TIP3    H160331   1.204   6.007   2.611 -2.0107  1.4505 -0.0065
12972TIP3    H260332   1.306   6.088   2.533 -1.2298  0.1379 -0.3554
12973TIP3   OH260333   5.245   5.580  15.797 -0.0966  0.4061  0.4590
12973TIP3    H160334   5.260   5.490  15.826 -0.3763  0.4383  0.7071
12973TIP3    H260335   5.288   5.634  15.862  0.8406  0.4330 -0.1690
12974TIP3   OH260336   0.648   4.338  13.322  0.1037  0.1231 -0.4083
12974TIP3    H160337   0.559   4.315  13.346  0.4436 -0.1766  0.5741
12974TIP3    H260338   0.703   4.284  13.378  0.9248 -1.6266 -2.8111
12975TIP3   OH260339   5.223   1.858  15.643 -0.1982 -0.5663 -0.1259
12975TIP3    H160340   5.157   1.917  15.679 -0.6098 -1.6625  0.9351
12975TIP3    H260341   5.306   1.903  15.658 -0.5894  0.2432 -0.3395
12976TIP3   OH260342   1.158   3.611   4.159 -0.0110  0.2928 -0.1236
12976TIP3    H160343   1.120   3.568   4.237 -0.2036 -1.0476 -0.9299
12976TIP3    H260344   1.242   3.567   4.146  0.3039  0.9450 -0.3162
12977TIP3   OH260345   1.614   1.794  12.711 -0.1516  0.2948 -0.1814
12977TIP3    H160346   1.603   1.809  12.617 -1.3824  2.0765  0.2198
12977TIP3    H260347   1.690   1.737  12.717 -0.5376 -0.5015 -2.3045
12978TIP3   OH260348   0.286   5.060  14.908  0.0221 -0.4122 -0.1711
12978TIP3    H160349   0.293   5.138  14.852 -4.5792  0.5648  0.4322
12978TIP3    H260350   0.309   5.090  14.995  0.7710 -0.3564 -0.3864
12979TIP3   OH260351   1.613   6.784  16.341 -0.1906  0.4822  0.3313
12979TIP3    H160352   1.651   6.696  16.345  0.0931  0.5285 -1.0581
12979TIP3    H260353   1.536   6.779  16.398  0.1295 -0.5086  0.6972
12980TIP3   OH260354   2.765   3.694  12.556 -0.4594  0.0354 -0.2220
12980TIP3    H160355   2.689   3.748  12.577 -1.2115 -0.7553 -0.8413
12980TIP3    H260356   2.757   3.618  12.613  0.2156  0.2368  0.1500
12981TIP3   OH260357   3.299   0.439  11.747  0.0408 -0.2968  0.0934
12981TIP3    H160358   3.207   0.412  11.741 -0.0520 -0.0232  0.2913
12981TIP3    H260359   3.313   0.492  11.668 -0.0586 -0.0729  0.2272
12982TIP3   OH260360   1.495   3.626   4.945  0.2051 -0.2403  0.5910
12982TIP3    H160361   1.423   3.676   4.906  1.3349  0.3768 -0.7425
12982TIP3    H260362   1.554   3.693   4.980  0.5129 -0.7238  1.0144
12983TIP3   OH260363   4.197   6.290  10.412  0.3585 -0.2735  0.0074
12983TIP3    H160364   4.149   6.262  10.334  0.9764  0.8439 -0.7858
12983TIP3    H260365   4.135   6.343  10.461  0.3276 -0.0437 -0.2817
12984TIP3   OH260366   0.147   6.453   1.241  0.4688  0.3729 -0.0299
12984TIP3    H160367   0.140   6.394   1.316  0.7158  0.7204  0.2680
12984TIP3    H260368   0.192   6.402   1.174 -2.3673 -0.9657 -1.0030
12985TIP3   OH260369   6.194   4.363  13.612 -0.0876 -0.3052  0.1852
12985TIP3    H160370   6.239   4.369  13.696 -2.1097 -0.5544  1.2923
12985TIP3    H260371   6.224   4.280  13.575 -0.0309 -0.7046  1.1242
12986TIP3   OH260372   0.165   3.555   5.838  0.0188  1.0320 -0.0893
12986TIP3    H160373   0.259   3.569   5.827 -0.0821  0.6502 -1.4632
12986TIP3    H260374   0.158   3.496   5.914  1.0362 -1.1280 -1.6355
12987TIP3   OH260375   5.752   5.209  15.829 -0.0052  0.2708  0.1519
12987TIP3    H160376   5.663   5.245  15.836 -0.2080 -0.2171  0.0881
12987TIP3    H260377   5.775   5.221  15.737  0.5344  1.6688  0.4656
12988TIP3   OH260378   4.940   3.788  15.991  0.2232  0.0360 -0.4032
12988TIP3    H160379   4.912   3.748  15.908  0.6861 -0.0873 -0.5004
12988TIP3    H260380   5.035   3.783  15.989  0.1820 -1.6836  0.9872
12989TIP3   OH260381   4.336   4.612  15.588  0.4329 -0.0828  0.0548
12989TIP3    H160382   4.360   4.660  15.668 -0.4571  0.1953  0.1583
12989TIP3    H260383   4.419   4.597  15.544  0.8698  0.3188  0.7241
12990TIP3   OH260384   6.688   1.509  13.166 -0.1890  0.0725  0.3493
12990TIP3    H160385   6.696   1.414  13.174  1.1389  0.2055  0.7584
12990TIP3    H260386   6.654   1.523  13.078 -1.0703 -0.8163  0.5513
12991TIP3   OH260387   6.190   1.151   3.392 -0.1728 -0.4731  0.1484
12991TIP3    H160388   6.266   1.179   3.444 -0.2382 -1.1574  0.6212
12991TIP3    H260389   6.120   1.212   3.418  0.7169  1.4105 -1.7438
12992TIP3   OH260390   3.217   3.891  16.100 -0.3990  0.0581  0.3215
12992TIP3    H160391   3.146   3.896  16.164  1.2908  0.2122  2.2719
12992TIP3    H260392   3.233   3.982  16.075  0.6195  0.2813  1.6750
12993TIP3   OH260393   6.256   6.051  12.536  0.4772 -0.0996 -0.1223
12993TIP3    H160394   6.296   6.036  12.450  1.9017  1.1657  0.2817
12993TIP3    H260395   6.328   6.087  12.589 -0.9699  1.3506  0.9037
12994TIP3   OH260396   1.438   0.112   2.458  0.5959  0.5589  0.0769
12994TIP3    H160397   1.358   0.145   2.417  0.9141 -0.5006 -1.4275
12994TIP3    H260398   1.469   0.185   2.512  0.7279  2.3685 -2.3549
12995TIP3   OH260399   3.047   6.318   0.111  0.0771 -0.3541  0.5986
12995TIP3    H160400   2.955   6.292   0.115  0.2517 -1.0570  0.0586
12995TIP3    H260401   3.075   6.294   0.023  1.0409 -1.0422  1.0836
12996TIP3   OH260402   3.058   3.744  14.418  0.1731 -0.1692  0.3202
12996TIP3    H160403   3.152   3.731  14.433  0.4398  0.9736 -0.2789
12996TIP3    H260404   3.042   3.706  14.332 -0.0240 -0.8370  0.6494
12997TIP3   OH260405   0.666   0.481  16.081 -0.9109 -0.4049  0.1201
12997TIP3    H160406   0.606   0.529  16.023 -0.5956 -1.3846 -1.0328
12997TIP3    H260407   0.611   0.413  16.121 -1.0591  0.0820  0.7558
12998TIP3   OH260408   1.904   4.676  11.240  0.2739 -0.7896 -0.1743
12998TIP3    H160409   1.892   4.597  11.292 -2.9242 -1.6431 -2.1062
12998TIP3    H260410   1.961   4.649  11.168 -1.2068 -1.4595 -1.0957
12999TIP3   OH260411   6.276   2.261   5.209 -0.4989  0.3535 -0.4095
12999TIP3    H160412   6.312   2.350   5.212 -1.1094  0.7158 -2.5826
12999TIP3    H260413   6.299   2.223   5.293  1.0862  2.0764 -0.0210
13000TIP3   OH260414   0.062   2.920   2.106 -0.3446 -0.5622 -0.4222
13000TIP3    H160415   0.131   2.982   2.129  1.5525 -1.9558 -2.1536
13000TIP3    H260416   0.006   2.968   2.045  0.0001  0.0730 -0.2474
13001TIP3   OH260417   6.322   6.346   2.006 -0.3121  0.2258  0.1854
13001TIP3    H160418   6.289   6.339   2.096 -1.1165 -0.4084 -0.1521
13001TIP3    H260419   6.344   6.438   1.995 -2.4522  0.7479  0.2541
13002TIP3   OH260420   0.790   5.418  10.849 -0.0874 -0.0482  0.0407
13002TIP3    H160421   0.710   5.368  10.866  0.2487 -0.1661  1.2954
13002TIP3    H260422   0.857   5.351  10.833 -0.2416  0.0511 -1.0728
13003TIP3   OH260423   1.299   6.499   6.141 -0.5101  0.6380  0.5230
13003TIP3    H160424   1.358   6.561   6.184 -1.7099  2.3621 -0.3116
13003TIP3    H260425   1.241   6.469   6.211 -2.2650  3.2169  0.2116
13004TIP3   OH260426   0.661   5.745  17.054 -0.2788 -0.7847  0.1263
13004TIP3    H160427   0.657   5.650  17.042 -0.3874 -0.6754 -0.6804
13004TIP3    H260428   0.660   5.781  16.966 -1.6176  0.0276  0.4658
13005TIP3   OH260429   2.320   4.327   3.699 -0.2626  0.8822 -0.2054
13005TIP3    H160430   2.251   4.385   3.729 -1.1196 -0.7661  1.1420
13005TIP3    H260431   2.401   4.376   3.712 -1.1166  2.5873 -1.1936
13006TIP3   OH260432   3.292   5.751  15.345 -0.5070 -0.3572 -0.2224
13006TIP3    H160433   3.344   5.819  15.301 -1.7284  0.5232 -0.3354
13006TIP3    H260434   3.348   5.674  15.344  0.4922  0.3622 -1.0463
13007TIP3   OH260435   3.381   3.247   5.287  0.5937  0.1143 -0.1176
13007TIP3    H160436   3.326   3.188   5.235 -0.3457  1.0172 -0.1692
13007TIP3    H260437   3.465   3.203   5.292  0.0424 -1.0066 -0.5631
13008TIP3   OH260438   6.221   5.474  14.904  0.1518 -0.2047 -0.2113
13008TIP3    H160439   6.144   5.435  14.943 -0.6721  2.0643  0.5039
13008TIP3    H260440   6.254   5.535  14.970  2.6540 -1.2456 -0.4401
13009TIP3   OH260441   5.366   1.319  15.044 -0.1948  0.1312  0.1081
13009TIP3    H160442   5.461   1.310  15.033 -0.1726  2.1141 -1.7273
13009TIP3    H260443   5.330   1.290  14.960 -1.2772 -1.4303  1.1108
13010TIP3   OH260444   3.429   2.621   1.939  0.3402 -0.4211 -0.4964
13010TIP3    H160445   3.343   2.662   1.944  0.0943 -0.8575 -1.0585
13010TIP3    H260446   3.491   2.691   1.960 -0.1813 -0.2405  0.4471
13011TIP3   OH260447   4.984   6.270   0.026  0.5784 -0.6069  0.0005
13011TIP3    H160448   4.970   6.245  -0.065  1.3233  2.4889 -1.0066
13011TIP3    H260449   5.017   6.359   0.022 -0.4463  0.0035  3.3589
13012TIP3   OH260450   5.215   6.402   4.186  0.3617 -0.1722 -0.6352
13012TIP3    H160451   5.163   6.338   4.138 -0.2013 -1.9677  2.2364
13012TIP3    H260452   5.303   6.364   4.188  0.1524 -0.6082  0.5944
13013TIP3   OH260453   0.476   2.966  12.730  0.1703  0.0483 -0.0753
13013TIP3    H160454   0.416   2.895  12.709  0.5273 -0.2091 -0.2425
13013TIP3    H260455   0.420   3.037  12.762 -0.1990 -0.2614 -0.0313
13014TIP3   OH260456   0.413   1.850   4.535 -0.4318 -0.3516  0.6039
13014TIP3    H160457   0.367   1.785   4.588  2.3973 -1.0126  2.3453
13014TIP3    H260458   0.384   1.934   4.569  0.2225 -0.7702  2.2358
13015TIP3   OH260459   4.217   4.796   4.426 -0.2617 -0.8250  0.1055
13015TIP3    H160460   4.189   4.881   4.392  2.2870 -0.0940 -0.2822
13015TIP3    H260461   4.180   4.792   4.514 -2.6199 -0.4891 -0.8470
13016TIP3   OH260462   5.220   5.884  11.794  0.3675  0.5169 -0.1536
13016TIP3    H160463   5.149   5.947  11.804  1.0108  1.0562  1.0837
13016TIP3    H260464   5.238   5.884  11.699  0.2860  2.1220 -0.1843
13017TIP3   OH260465   0.835   5.224   0.657  0.4851  0.6805  0.2969
13017TIP3    H160466   0.910   5.277   0.630  0.0576  1.6394  0.9856
13017TIP3    H260467   0.769   5.240   0.589  0.8901 -0.1667 -0.3110
13018TIP3   OH260468   0.085   3.583   5.045  0.1268 -0.0877  0.3022
13018TIP3    H160469   0.143   3.654   5.071  3.5315 -1.9616 -1.7170
13018TIP3    H260470   0.060   3.603   4.955 -0.3217 -0.5351  0.3224
13019TIP3   OH260471   6.610   2.647  11.926  0.3859  0.3183 -0.0366
13019TIP3    H160472   6.627   2.556  11.901 -0.0108  0.3527 -0.4487
13019TIP3    H260473   6.683   2.670  11.983  0.6469 -0.1653 -0.1670
13020TIP3   OH260474   3.873   4.253  15.602  0.2429 -0.5524  0.6724
13020TIP3    H160475   3.909   4.309  15.670 -0.6966 -0.5110  1.1363
13020TIP3    H260476   3.858   4.311  15.528 -0.3294 -0.2663  1.0098
13021TIP3   OH260477   6.686   0.284   4.718  0.1360  0.2754 -0.1887
13021TIP3    H160478   6.778   0.276   4.695 -0.3180 -1.8191 -1.4357
13021TIP3    H260479   6.639   0.273   4.635 -1.2521  0.6711  0.5263
13022TIP3   OH260480   1.095   1.005   5.587 -0.5569  0.2440 -0.1457
13022TIP3    H160481   1.112   0.913   5.606 -2.9841 -0.4592 -1.2161
13022TIP3    H260482   1.110   1.013   5.492  1.2693  1.3621  0.2033
13023TIP3   OH260483   2.502   2.630   1.631  0.0206 -0.1600  0.0298
13023TIP3    H160484   2.581   2.685   1.628  0.3947 -0.5383  2.0796
13023TIP3    H260485   2.497   2.590   1.544  2.6921 -0.9608  0.2078
13024TIP3   OH260486   6.504   2.644  14.357  0.4868 -0.7211 -0.5339
13024TIP3    H160487   6.528   2.639  14.449  1.4030  0.1121 -0.7153
13024TIP3    H260488   6.558   2.577  14.315  2.1271  0.7593 -0.8557
13025TIP3   OH260489   5.709   3.776  13.810  0.0030  0.3656  0.2393
13025TIP3    H160490   5.768   3.811  13.743  0.9823 -2.1783 -0.2868
13025TIP3    H260491   5.764   3.763  13.887 -0.6449  1.2072  0.8591
13026TIP3   OH260492   1.914   3.399   2.332  0.5155  0.2519 -0.4157
13026TIP3    H160493   1.982   3.412   2.398 -0.0810 -1.3752  0.5314
13026TIP3    H260494   1.951   3.438   2.253  2.6523 -0.8112  0.0128
13027TIP3   OH260495   2.902   2.881  11.979 -0.3076 -0.0270  0.5948
13027TIP3    H160496   2.850   2.917  12.051 -0.8797  1.6348 -0.6058
13027TIP3    H260497   2.984   2.931  11.982 -1.0392  1.3362 -0.9773
13028TIP3   OH260498   3.681   3.781  12.213 -0.3315 -0.0053 -0.1346
13028TIP3    H160499   3.661   3.796  12.306  0.1328 -1.2537  0.1729
13028TIP3    H260500   3.777   3.790  12.208 -0.1837 -1.5022 -0.1867
13029TIP3   OH260501   5.666   5.843  13.695  0.0906 -0.4065  0.1308
13029TIP3    H160502   5.706   5.808  13.615  0.8128  0.1853  0.2282
13029TIP3    H260503   5.693   5.782  13.763 -0.3759 -0.8116 -0.0409
13030TIP3   OH260504   3.637   6.683  13.377 -0.3542 -0.7160  0.4811
13030TIP3    H160505   3.680   6.626  13.314 -0.0869 -0.9833  0.9035
13030TIP3    H260506   3.695   6.758  13.387 -0.2534 -0.8145  0.6346
13031TIP3   OH260507   5.910   6.522   1.126  0.0089 -0.5174  0.2659
13031TIP3    H160508   5.961   6.588   1.079 -0.0965 -0.4344  0.2673
13031TIP3    H260509   5.819   6.553   1.120 -0.0475 -0.6969  0.2106
13032TIP3   OH260510   3.469   1.591   2.699 -0.6037 -0.3268  0.2662
13032TIP3    H160511   3.407   1.609   2.770  0.4587  0.5070  0.9953
13032TIP3    H260512   3.546   1.644   2.720 -0.7374  0.8739 -2.1601
13033TIP3   OH260513   4.655   4.750  12.060  0.5223  0.5543  0.4019
13033TIP3    H160514   4.656   4.772  11.967 -2.0461  1.5133  0.5612
13033TIP3    H260515   4.698   4.824  12.103  1.0419  0.4544  0.0644
13034TIP3   OH260516   0.422   5.689   4.717  0.4289  0.0647  0.1700
13034TIP3    H160517   0.509   5.669   4.683  0.8558  1.5934  0.3088
13034TIP3    H260518   0.412   5.783   4.702 -0.8364  0.0666  0.9726
13035TIP3   OH260519   2.939   6.127   0.360  0.1474 -0.6301 -0.3161
13035TIP3    H160520   2.989   6.177   0.295  2.3951  0.4334  2.1184
13035TIP3    H260521   2.884   6.068   0.309 -0.2097  2.1032 -3.2136
13036TIP3   OH260522   2.466   2.893  12.326 -0.3417 -0.3147  0.0527
13036TIP3    H160523   2.426   2.859  12.406 -1.0545 -0.0417 -0.1847
13036TIP3    H260524   2.396   2.891  12.261  0.5127 -1.5492 -0.8650
13037TIP3   OH260525   6.371   4.031  11.270  0.1095  0.1969  0.3449
13037TIP3    H160526   6.416   4.065  11.192  1.4158  0.5289  1.2236
13037TIP3    H260527   6.431   3.965  11.305 -0.0883  0.6508  1.5500
13038TIP3   OH260528   4.949   5.116  16.604  0.5659  0.1450 -0.3034
13038TIP3    H160529   4.984   5.118  16.693  1.0000  0.5639 -0.4791
13038TIP3    H260530   4.937   5.024  16.584 -1.3111  0.0841  0.8904
13039TIP3   OH260531   0.411   6.104  11.368  0.6163 -0.7709 -0.0807
13039TIP3    H160532   0.459   6.065  11.441 -0.2359 -1.4832  0.0960
13039TIP3    H260533   0.350   6.037  11.340 -2.4969  1.1627  1.7317
13040TIP3   OH260534   4.610   1.754   4.352  0.1395 -0.2824  0.1888
13040TIP3    H160535   4.619   1.791   4.439  0.6325 -3.4154  1.5442
13040TIP3    H260536   4.659   1.814   4.295  1.1232  0.9731  2.2865
13041TIP3   OH260537   4.073   0.312   4.817 -0.0349  0.2045  0.0690
13041TIP3    H160538   4.119   0.329   4.899  0.2164 -0.2514  0.0253
13041TIP3    H260539   4.005   0.379   4.813 -2.1690 -1.7783  2.2394
13042TIP3   OH260540   6.248   5.966   4.877  0.2046 -0.8911  0.6254
13042TIP3    H160541   6.207   6.052   4.866 -0.6839 -1.6684 -2.8365
13042TIP3    H260542   6.199   5.924   4.948  0.0278  1.0591  1.6834
13043TIP3   OH260543   0.828   6.672   2.575  0.1530 -0.0554 -0.3192
13043TIP3    H160544   0.824   6.603   2.509  0.2908  0.6315 -1.0473
13043TIP3    H260545   0.752   6.727   2.557  1.6482  1.6436 -1.5783
13044TIP3   OH260546   0.330   3.935  14.184  0.1031  0.1877 -0.4467
13044TIP3    H160547   0.279   3.860  14.215 -0.7264  1.4363  1.2786
13044TIP3    H260548   0.421   3.909  14.200 -0.1496 -0.5866 -0.2087
13045TIP3   OH260549   3.858   6.107   5.958 -0.0665 -0.0046 -0.0563
13045TIP3    H160550   3.952   6.088   5.957  0.6084  3.0462 -0.7671
13045TIP3    H260551   3.835   6.120   5.866 -0.5481  1.9291  0.3044
13046TIP3   OH260552   3.583   5.852  12.035 -0.3638  0.1371 -0.0436
13046TIP3    H160553   3.620   5.938  12.014  0.7336 -0.1421  0.6913
13046TIP3    H260554   3.629   5.791  11.978  0.9826 -0.3270  1.4989
13047TIP3   OH260555   0.326   5.285   4.660  0.2268 -0.0292  0.1065
13047TIP3    H160556   0.247   5.339   4.659 -0.6391 -1.2798  0.3492
13047TIP3    H260557   0.387   5.335   4.715 -0.4584  0.8457  0.1030
13048TIP3   OH260558   3.716   0.977   6.146 -0.8853  0.3028  0.3250
13048TIP3    H160559   3.671   1.022   6.075 -0.2359 -2.8498 -2.2376
13048TIP3    H260560   3.750   0.897   6.105  1.7113 -0.3851  3.6077
13049TIP3   OH260561   2.715   4.409   0.089 -0.0676  0.2470  0.1559
13049TIP3    H160562   2.700   4.489   0.039 -1.4169  0.8463  1.4811
13049TIP3    H260563   2.631   4.390   0.131  0.6916 -0.9129  1.2117
13050TIP3   OH260564   3.148   2.429   4.469 -0.2472 -0.4252 -0.2169
13050TIP3    H160565   3.230   2.382   4.480  0.6949  1.3402  0.4947
13050TIP3    H260566   3.158   2.508   4.521 -2.0803  0.2187 -0.7944
13051TIP3   OH260567   5.229   5.727   6.547 -0.0816  0.0770 -0.1790
13051TIP3    H160568   5.227   5.679   6.464 -1.6929 -1.5551  0.7642
13051TIP3    H260569   5.138   5.747   6.565  0.5138  2.9122 -0.1714
13052TIP3   OH260570   6.061   1.317   0.433 -0.4597  0.0351 -0.7448
13052TIP3    H160571   6.111   1.321   0.352  2.7158  1.7006  1.1928
13052TIP3    H260572   6.049   1.408   0.459  0.5321 -0.4989  1.7738
13053TIP3   OH260573   4.116   0.042   5.953 -0.2225  0.2911  0.2518
13053TIP3    H160574   4.118   0.074   6.043  0.3860  0.0528  0.3200
13053TIP3    H260575   4.173   0.102   5.905  1.1516 -0.8469  0.4322
13054TIP3   OH260576   2.693   5.909   4.785  0.0981  0.2264  0.0037
13054TIP3    H160577   2.665   5.881   4.697  0.0798  1.1815 -0.3046
13054TIP3    H260578   2.613   5.908   4.837 -0.3761  2.1475 -0.6624
13055TIP3   OH260579   1.459   1.007   0.116 -0.0936 -0.0008 -0.2040
13055TIP3    H160580   1.446   1.042   0.204  1.5247 -0.8553  0.4003
13055TIP3    H260581   1.374   1.016   0.073 -1.0952 -0.2691  1.6948
13056TIP3   OH260582   3.241   6.281   1.180  0.0449 -0.4274  0.3053
13056TIP3    H160583   3.303   6.237   1.123  0.2599  2.0282 -1.4155
13056TIP3    H260584   3.155   6.250   1.151  0.2820 -1.0495  0.2718
13057TIP3   OH260585   2.764   3.215  14.375  0.1193  0.1660 -0.1966
13057TIP3    H160586   2.852   3.238  14.346  0.2572 -0.2952 -0.1484
13057TIP3    H260587   2.753   3.261  14.458  1.8691 -3.0289  1.8927
13058TIP3   OH260588   3.923   1.908   2.668  0.2531 -0.1426  0.2570
13058TIP3    H160589   3.962   1.904   2.581 -1.0156 -0.6737 -0.2857
13058TIP3    H260590   3.900   2.001   2.679 -1.3227 -0.4078 -0.7395
13059TIP3   OH260591   4.299   0.367  12.809 -0.0999  0.1147  0.0736
13059TIP3    H160592   4.284   0.337  12.719 -0.5446 -0.9834  0.5063
13059TIP3    H260593   4.213   0.398  12.838  0.2793  1.4789 -0.2471
13060TIP3   OH260594   3.041   4.249   1.230  0.4819 -0.2987  0.4523
13060TIP3    H160595   2.999   4.208   1.155 -2.6561  1.7656  0.9601
13060TIP3    H260596   3.072   4.334   1.198 -0.1433  0.2468  1.2488
13061TIP3   OH260597   3.299   0.716   5.026  0.4377  0.2276  0.2239
13061TIP3    H160598   3.292   0.627   5.061 -0.8166  0.7013  1.2159
13061TIP3    H260599   3.304   0.704   4.932 -0.2105 -0.8733  0.3210
13062TIP3   OH260600   4.982   2.764   0.180  0.4338  0.0475 -0.3147
13062TIP3    H160601   5.077   2.763   0.178  0.4454  1.1961 -0.2372
13062TIP3    H260602   4.959   2.747   0.271  0.5878  1.5340  0.0036
13063TIP3   OH260603   2.023   5.727   5.413  0.1413 -0.6027 -0.0119
13063TIP3    H160604   1.972   5.748   5.491  0.5233 -0.5680  0.2306
13063TIP3    H260605   1.962   5.738   5.340  0.4007  1.6157  0.0822
13064TIP3   OH260606   6.128   3.714  11.817  0.2011  0.6538 -0.0768
13064TIP3    H160607   6.177   3.657  11.758  0.1850  2.1728 -1.5993
13064TIP3    H260608   6.051   3.740  11.766 -0.5510  0.8385  1.1371
13065TIP3   OH260609   2.301   6.442  12.587 -0.4166  0.0992 -0.3286
13065TIP3    H160610   2.258   6.390  12.654  1.0367 -1.6862 -0.7396
13065TIP3    H260611   2.379   6.477  12.630 -1.8374  2.7135  0.2024
13066TIP3   OH260612   4.564   3.115   0.516  0.2954  0.3289  0.8177
13066TIP3    H160613   4.537   3.041   0.461  1.4804 -0.1563  0.8661
13066TIP3    H260614   4.556   3.082   0.605 -0.4670  0.7109  0.8900
13067TIP3   OH260615   3.870   2.731   5.915 -0.1806 -0.5092  0.0900
13067TIP3    H160616   3.833   2.820   5.912 -2.1400 -1.2606  1.2603
13067TIP3    H260617   3.938   2.732   5.847 -1.7257  1.2172 -1.5234
13068TIP3   OH260618   2.864   0.957  11.996 -0.3031 -0.5734 -0.1277
13068TIP3    H160619   2.849   0.951  11.902 -0.1606  0.0220 -0.1920
13068TIP3    H260620   2.778   0.943  12.035 -0.1406 -2.1074 -0.2901
13069TIP3   OH260621   0.401   4.655   4.553  0.2140  0.0937 -0.5263
13069TIP3    H160622   0.370   4.567   4.574 -0.0388  0.2126 -0.3973
13069TIP3    H260623   0.497   4.648   4.559  0.1450  0.1547  0.7953
13070TIP3   OH260624   4.381   4.618  14.298  0.1072 -0.0406 -0.0548
13070TIP3    H160625   4.326   4.617  14.377 -0.8387  0.6393 -0.6915
13070TIP3    H260626   4.430   4.536  14.302  1.6566  0.9627  2.3334
13071TIP3   OH260627   4.328   4.668  12.739  0.0532  0.1390 -0.0639
13071TIP3    H160628   4.404   4.621  12.703 -1.0328 -1.6507 -0.0642
13071TIP3    H260629   4.362   4.713  12.816  1.0331 -0.9275  0.1341
13072TIP3   OH260630   2.389   5.154   1.792  0.2199 -0.4041  0.2244
13072TIP3    H160631   2.329   5.218   1.756 -0.2895 -0.9635  0.0773
13072TIP3    H260632   2.336   5.102   1.853 -0.2552 -2.9892 -2.2883
13073TIP3   OH260633   0.284   2.020   2.321 -0.1645 -0.2583 -0.4210
13073TIP3    H160634   0.296   2.115   2.323  1.5044 -0.4338 -1.1628
13073TIP3    H260635   0.241   2.003   2.237 -0.2924 -0.1781 -0.3721
13074TIP3   OH260636   0.924   6.642  12.995 -0.0454 -0.8991  0.1828
13074TIP3    H160637   0.891   6.630  12.907  0.5790 -0.4975 -0.1103
13074TIP3    H260638   0.999   6.583  13.002 -0.1568 -1.0083  0.4792
13075TIP3   OH260639   2.686   6.547  14.124 -0.6142 -0.7127 -0.0027
13075TIP3    H160640   2.636   6.525  14.045 -1.5204 -0.7763  0.5760
13075TIP3    H260641   2.680   6.643  14.129 -1.4474 -0.7806  0.5432
13076TIP3   OH260642   5.136   4.086   2.083  0.0820 -0.2418 -0.7204
13076TIP3    H160643   5.212   4.030   2.068  0.1354 -0.4236  0.1649
13076TIP3    H260644   5.164   4.147   2.151 -0.8928 -1.0116  0.4187
13077TIP3   OH260645   1.318   6.581  11.453  0.0670 -0.0130 -0.2936
13077TIP3    H160646   1.401   6.539  11.429 -0.8694 -0.6665 -2.5053
13077TIP3    H260647   1.276   6.520  11.513  1.1509  0.2814  0.7728
13078TIP3   OH260648   5.053   5.849  13.843 -0.1045  0.3252 -0.6376
13078TIP3    H160649   5.091   5.773  13.799  0.7677 -0.1073  0.8313
13078TIP3    H260650   5.112   5.921  13.823  0.1054  0.2022 -0.4609
13079TIP3   OH260651   0.069   6.207   3.064  0.1668 -0.1840 -0.1844
13079TIP3    H160652   0.023   6.290   3.071  0.5999  0.0084  0.4124
13079TIP3    H260653   0.049   6.176   2.976 -0.5561  0.2190 -0.1663
13080TIP3   OH260654   5.305   5.561   0.609 -0.4059 -0.5002 -0.0575
13080TIP3    H160655   5.225   5.613   0.613  0.2255  0.4586  0.1278
13080TIP3    H260656   5.370   5.620   0.571  1.0708 -0.2247  2.8251
13081TIP3   OH260657   5.838   1.714  11.066 -0.0664  0.4688 -0.2322
13081TIP3    H160658   5.891   1.635  11.074  0.9207  1.2226  0.8911
13081TIP3    H260659   5.894   1.775  11.017  0.0657  1.2075  0.8125
13082TIP3   OH260660   4.313   5.025   0.790  0.3917  0.4042 -0.1525
13082TIP3    H160661   4.260   4.952   0.759 -0.5854  0.9317  0.2342
13082TIP3    H260662   4.324   5.008   0.884  1.0508  0.2123 -0.2622
13083TIP3   OH260663   2.286   6.764  12.313 -0.0405  0.4434  0.1272
13083TIP3    H160664   2.326   6.701  12.253  1.2326  0.1818  1.2430
13083TIP3    H260665   2.193   6.739  12.317  0.0381 -0.0541 -1.0523
13084TIP3   OH260666   5.588   0.414  15.174  0.3585 -0.3629 -0.1552
13084TIP3    H160667   5.595   0.510  15.173 -2.0090 -0.1488  1.1484
13084TIP3    H260668   5.557   0.393  15.261  1.1187 -2.3670 -0.3531
13085TIP3   OH260669   4.863   4.976   6.484 -0.2569  0.1903  0.6825
13085TIP3    H160670   4.817   4.964   6.567 -1.1904 -0.6830  0.0539
13085TIP3    H260671   4.910   4.894   6.471 -0.2410  0.2648  0.2674
13086TIP3   OH260672   3.433   2.364  14.150  0.3713 -0.1635 -0.2401
13086TIP3    H160673   3.478   2.366  14.234 -1.9083 -2.2428  1.0879
13086TIP3    H260674   3.366   2.432  14.158 -0.3243 -0.8646 -0.0886
13087TIP3   OH260675   1.869   6.372   5.520 -0.1382 -0.4103 -0.7019
13087TIP3    H160676   1.859   6.332   5.606  2.4024 -2.5230 -1.3416
13087TIP3    H260677   1.812   6.449   5.523 -0.4353 -0.6893  2.6794
13088TIP3   OH260678   3.391   4.023  15.317  0.4463  0.4157 -0.0728
13088TIP3    H160679   3.407   4.017  15.223 -0.5752  2.2163 -0.3986
13088TIP3    H260680   3.477   4.011  15.358  1.0356  0.5140 -1.2795
13089TIP3   OH260681   6.013   4.486   2.062 -0.4235  0.4673  0.7164
13089TIP3    H160682   6.008   4.424   1.990 -1.5472  1.0084  0.3195
13089TIP3    H260683   6.088   4.457   2.114 -0.5265 -0.8024  0.1585
13090TIP3   OH260684   6.736   6.750  14.452  0.2424 -0.6177  0.3221
13090TIP3    H160685   6.669   6.764  14.519 -0.4263  1.8881 -0.8497
13090TIP3    H260686   6.688   6.718  14.376  0.6051 -0.3852 -0.0027
13091TIP3   OH260687   0.243   5.266   3.489  0.7102  0.4485 -0.2958
13091TIP3    H160688   0.287   5.334   3.541  1.4248 -1.2349  1.3490
13091TIP3    H260689   0.302   5.191   3.492  0.4254  0.0759 -2.9829
13092TIP3   OH260690   3.323   2.816  17.102 -0.0251 -0.0048  0.0509
13092TIP3    H160691   3.313   2.723  17.118 -0.8153 -0.1109 -0.9769
13092TIP3    H260692   3.297   2.858  17.184 -0.7824 -0.6576  0.1531
13093TIP3   OH260693   2.446   3.128   1.292 -0.2866 -0.3463 -0.1773
13093TIP3    H160694   2.412   3.100   1.207  1.3612 -1.2114 -0.5650
13093TIP3    H260695   2.376   3.106   1.354 -0.8400 -1.2010 -1.0883
13094TIP3   OH260696   2.775   1.723  12.176 -0.4314  0.7378 -0.9992
13094TIP3    H160697   2.777   1.740  12.270  0.0024 -0.2817 -0.8114
13094TIP3    H260698   2.723   1.643  12.167 -0.6540  0.9526 -1.6467
13095TIP3   OH260699   0.083   5.546   3.594  0.2103  0.5581 -0.0007
13095TIP3    H160700   0.103   5.515   3.505 -0.8861  0.8225 -0.3428
13095TIP3    H260701   0.007   5.603   3.583  1.8323  2.9473  0.7065
13096TIP3   OH260702   6.604   6.657   2.900  0.3626  0.3505 -0.1810
13096TIP3    H160703   6.650   6.637   2.819  0.2703  2.0212 -0.6756
13096TIP3    H260704   6.546   6.730   2.876  1.7938  2.2204  1.8478
13097TIP3   OH260705   5.227   4.096   0.883  0.4131 -0.7608 -0.3815
13097TIP3    H160706   5.247   4.103   0.976  1.0169 -1.6612 -0.4334
13097TIP3    H260707   5.245   4.182   0.847 -0.4795 -0.2141  0.4569
13098TIP3   OH260708   5.895   3.684   0.860  0.1610 -0.0070  0.3406
13098TIP3    H160709   5.882   3.741   0.784 -0.8154  1.4658  1.6008
13098TIP3    H260710   5.990   3.671   0.864  0.2708  0.3737 -0.7697
13099TIP3   OH260711   3.702   5.994   6.226  0.5472 -0.1357 -0.7324
13099TIP3    H160712   3.725   5.927   6.292 -1.5183  1.5008  1.7410
13099TIP3    H260713   3.631   5.955   6.176  0.3299 -0.3462 -0.2594
13100TIP3   OH260714   2.594   2.947   4.870  0.0141  0.5798  0.0724
13100TIP3    H160715   2.539   2.963   4.793 -0.3378 -0.9596 -0.0152
13100TIP3    H260716   2.682   2.934   4.834 -0.3919 -1.6015 -0.2619
13101TIP3   OH260717   0.658   3.389  12.767  0.4660  0.6014  0.0308
13101TIP3    H160718   0.599   3.339  12.710  0.5181  0.2507  0.2867
13101TIP3    H260719   0.704   3.323  12.818 -0.2621  0.9576  1.1617
13102TIP3   OH260720   1.640   4.485   1.685  0.6149  0.0020  0.0932
13102TIP3    H160721   1.684   4.563   1.652  1.0660 -0.4524 -0.3835
13102TIP3    H260722   1.559   4.518   1.724 -0.9160  0.3793 -3.2232
13103TIP3   OH260723   5.592   2.909  12.623 -0.3373 -0.1846 -0.0871
13103TIP3    H160724   5.688   2.902  12.622 -0.1398  2.1594 -1.8283
13103TIP3    H260725   5.563   2.828  12.663  2.3342 -1.7576 -1.1531
13104TIP3   OH260726   5.646   0.902  11.601 -0.3926 -0.9869  0.6681
13104TIP3    H160727   5.653   0.890  11.695 -0.7768 -1.3649  0.6532
13104TIP3    H260728   5.731   0.874  11.567  0.2220  0.4251  1.0121
13105TIP3   OH260729   5.730   6.602  16.654  0.8542 -0.3573 -0.7911
13105TIP3    H160730   5.657   6.540  16.656  0.5645 -0.0117 -0.5183
13105TIP3    H260731   5.691   6.683  16.621  1.4826 -0.6448 -2.2926
13106TIP3   OH260732   2.910   4.995   5.225 -0.0142 -0.0323 -0.1343
13106TIP3    H160733   2.832   5.050   5.226  0.9560  1.3810  0.1132
13106TIP3    H260734   2.919   4.967   5.134 -0.1016  0.8397 -0.4149
13107TIP3   OH260735   2.023   3.612  13.271  0.1770 -0.7656  0.1208
13107TIP3    H160736   1.980   3.624  13.186  0.2160  1.0955  0.3404
13107TIP3    H260737   1.961   3.650  13.334  1.9793  1.6607  0.4759
13108TIP3   OH260738   4.063   3.690  10.798  0.3046 -0.8329 -0.2674
13108TIP3    H160739   4.043   3.769  10.748  1.0687 -1.2997 -1.3349
13108TIP3    H260740   4.090   3.626  10.732 -0.3512 -2.0050  0.5822
13109TIP3   OH260741   4.712   2.887  12.036 -0.3944 -0.4672 -0.1727
13109TIP3    H160742   4.713   2.868  11.942 -1.1273  0.5907 -0.4033
13109TIP3    H260743   4.801   2.868  12.065 -0.3898 -1.6181 -0.9120
13110TIP3   OH260744   2.547   3.220  14.787 -0.5290  0.2213  0.3759
13110TIP3    H160745   2.563   3.230  14.881  0.3500 -0.9823  0.3471
13110TIP3    H260746   2.451   3.215  14.780 -0.5591 -0.5540  1.2873
13111TIP3   OH260747   5.029   4.358  12.719 -0.1211  0.1570 -0.9631
13111TIP3    H160748   5.021   4.338  12.626  0.7451  0.8316 -1.1899
13111TIP3    H260749   5.046   4.452  12.723  0.1965  0.0752 -0.1480
13112TIP3   OH260750   0.278   6.562  13.506  0.7864 -0.0580 -0.6979
13112TIP3    H160751   0.281   6.522  13.593 -0.5909  0.0870 -0.5724
13112TIP3    H260752   0.360   6.611  13.500  2.0385 -2.0536 -0.4574
13113TIP3   OH260753   6.081   3.267  14.772 -0.5968 -0.4126 -0.4058
13113TIP3    H160754   6.101   3.180  14.738 -2.2957 -1.0869  0.2726
13113TIP3    H260755   5.986   3.274  14.766 -0.7838  0.1552  2.4301
13114TIP3   OH260756   5.030   1.407  10.790  0.5029  0.3623 -0.2362
13114TIP3    H160757   5.000   1.348  10.721  0.1807  1.4214 -1.0265
13114TIP3    H260758   4.995   1.492  10.764  0.7565  0.8488  1.0109
13115TIP3   OH260759   1.108   2.653   4.609  0.1046 -0.4548  0.6215
13115TIP3    H160760   1.066   2.723   4.659 -0.3062  0.8288 -1.4381
13115TIP3    H260761   1.036   2.604   4.570  0.4374 -0.2774 -0.2380
13116TIP3   OH260762   5.170   4.194   3.256  0.0081 -0.1485  0.3477
13116TIP3    H160763   5.233   4.267   3.252  0.7984 -0.7453  1.5394
13116TIP3    H260764   5.109   4.220   3.325  0.1259 -0.4735  0.5768
13117TIP3   OH260765   4.286   0.462   3.437  0.2760  0.0417 -0.3408
13117TIP3    H160766   4.354   0.415   3.390  0.1158 -0.1636 -0.3661
13117TIP3    H260767   4.326   0.546   3.460  1.9029 -1.5659  3.0597
13118TIP3   OH260768   5.060   6.000   2.015 -0.2332 -0.1447 -0.1169
13118TIP3    H160769   5.148   5.983   2.048 -0.8553  0.3049  1.7860
13118TIP3    H260770   5.074   6.026   1.924  1.4839 -1.4921 -0.2688
13119TIP3   OH260771   3.231   6.204  14.812 -0.3945 -0.4397 -0.0570
13119TIP3    H160772   3.225   6.170  14.723 -3.2196  0.9107 -0.4294
13119TIP3    H260773   3.179   6.284  14.811  3.1756  2.0305  1.7094
13120TIP3   OH260774   2.730   5.832   3.568  0.0011 -0.2060 -0.6612
13120TIP3    H160775   2.811   5.882   3.558 -1.0953  1.2975 -2.2575
13120TIP3    H260776   2.752   5.745   3.534  1.2449 -0.1747 -0.0090
13121TIP3   OH260777   4.643   0.015   1.362 -0.5809  0.4204 -0.3936
13121TIP3    H160778   4.685   0.101   1.373  0.1803 -0.0759  0.7514
13121TIP3    H260779   4.553   0.028   1.394 -0.3981  0.7390  0.0003
13122TIP3   OH260780   5.832   5.660  12.428  0.2676  0.8968  0.0956
13122TIP3    H160781   5.833   5.734  12.367 -0.9891  0.2472 -0.7482
13122TIP3    H260782   5.924   5.647  12.452  0.6866  1.6643 -1.0472
13123TIP3   OH260783   0.170   2.849  16.382  0.5446 -0.2963  0.2380
13123TIP3    H160784   0.225   2.873  16.308 -1.0887 -1.4868 -1.3854
13123TIP3    H260785   0.132   2.931  16.411  0.8617  0.1159 -0.5036
13124TIP3   OH260786   3.262   4.317  13.626 -0.2793 -0.4953  0.0509
13124TIP3    H160787   3.298   4.257  13.692 -0.4173  0.0960  0.6635
13124TIP3    H260788   3.274   4.404  13.663  2.3532  0.0990 -1.9337
13125TIP3   OH260789   5.674   0.425  13.151  0.1388 -0.0987  0.0983
13125TIP3    H160790   5.599   0.407  13.094 -0.1671  0.0259  0.4595
13125TIP3    H260791   5.731   0.350  13.140 -0.9383 -1.1126  1.2841
13126TIP3   OH260792   5.927   0.281  11.690  0.2438  0.2383  0.3189
13126TIP3    H160793   5.991   0.350  11.672  1.1799 -0.8983 -0.7501
13126TIP3    H260794   5.910   0.288  11.784  1.3536  1.0403  0.4634
13127TIP3   OH260795   3.962   2.525   1.741  0.5380 -0.1323  0.6037
13127TIP3    H160796   3.956   2.433   1.764  0.4279  0.0161  1.1874
13127TIP3    H260797   4.053   2.549   1.756  0.9056 -0.5043 -0.9573
13128TIP3   OH260798   5.550   0.601  16.242 -0.4327 -0.0444  0.3441
13128TIP3    H160799   5.513   0.549  16.314  2.8296 -0.6966  1.6673
13128TIP3    H260800   5.578   0.682  16.283 -0.6079  0.5382 -0.6755
13129TIP3   OH260801   2.548   1.523  15.689 -0.0831  0.3750 -0.0066
13129TIP3    H160802   2.517   1.518  15.599  1.7184  1.6603 -0.7102
13129TIP3    H260803   2.550   1.616  15.709  0.2367  0.1354  1.1286
13130TIP3   OH260804   3.417   6.764   5.076 -0.1896  0.3764 -0.0624
13130TIP3    H160805   3.388   6.726   4.993  1.2799 -2.7495  0.7725
13130TIP3    H260806   3.343   6.752   5.135  0.3023 -1.4292  0.2316
13131TIP3   OH260807   4.580   5.354  14.897 -0.7037  0.1177  0.4805
13131TIP3    H160808   4.639   5.280  14.912 -1.1794  0.0560  2.1433
13131TIP3    H260809   4.506   5.315  14.850 -0.0022 -0.0430 -0.5116
13132TIP3   OH260810   1.451   6.107  14.430  0.0137 -0.1908 -0.5534
13132TIP3    H160811   1.438   6.013  14.444  0.9209 -0.2656 -0.1739
13132TIP3    H260812   1.529   6.112  14.374 -0.8099  0.2866 -1.6827
13133TIP3   OH260813   4.170   5.808   1.407  0.5187  0.2021 -0.0590
13133TIP3    H160814   4.178   5.859   1.487 -1.6106  2.0667 -1.0079
13133TIP3    H260815   4.259   5.774   1.391  0.9414 -0.3185  3.1150
13134TIP3   OH260816   4.489   2.437   2.013  0.3570 -0.0917  0.1394
13134TIP3    H160817   4.584   2.426   2.010  0.1906 -1.7733  0.4102
13134TIP3    H260818   4.454   2.351   1.988 -1.0863  0.4164  0.3481
13135TIP3   OH260819   2.098   1.347   4.230  0.3299 -0.5853  0.3427
13135TIP3    H160820   2.065   1.336   4.319 -0.3885  0.4414  0.2098
13135TIP3    H260821   2.139   1.433   4.230 -0.4689 -0.1885 -0.5568
13136TIP3   OH260822   6.479   3.756  15.713  0.4684 -0.1598  0.8863
13136TIP3    H160823   6.492   3.850  15.728  1.7394 -0.0048 -0.9645
13136TIP3    H260824   6.559   3.728  15.669 -1.0548 -1.5451 -1.0744
13137TIP3   OH260825   4.656   2.373  11.866 -0.5115 -0.1340 -0.1615
13137TIP3    H160826   4.630   2.388  11.775 -0.5564 -2.3029 -0.5294
13137TIP3    H260827   4.577   2.392  11.917 -1.1525 -1.0824 -0.7781
13138TIP3   OH260828   1.686   1.658   1.786  0.5847 -0.0010 -0.1001
13138TIP3    H160829   1.707   1.711   1.863 -0.6869 -0.6273  0.6935
13138TIP3    H260830   1.593   1.673   1.771  0.6573 -0.4615 -1.0894
13139TIP3   OH260831   2.923   0.289  15.218 -0.2357  0.1927 -0.0979
13139TIP3    H160832   2.830   0.310  15.213 -0.1210  0.8649  0.5796
13139TIP3    H260833   2.929   0.222  15.287 -0.2535 -0.0630 -0.3444
13140TIP3   OH260834   6.555   5.103   4.182  0.3295  0.0800  0.2808
13140TIP3    H160835   6.550   5.194   4.151 -1.7688  0.0614  0.4717
13140TIP3    H260836   6.546   5.109   4.277  2.8431 -0.1593  0.5644
13141TIP3   OH260837   0.846   0.306  16.883  0.4701  0.1414 -0.6953
13141TIP3    H160838   0.831   0.226  16.932 -1.2298  1.3441  0.7705
13141TIP3    H260839   0.866   0.372  16.949  0.2885  1.2938 -1.7599
13142TIP3   OH260840   5.232   5.626   2.680  0.3817  0.0874  0.0033
13142TIP3    H160841   5.230   5.568   2.756  0.5456  1.5655  1.1637
13142TIP3    H260842   5.171   5.696   2.702  0.6187  0.6600 -1.1315
13143TIP3   OH260843   3.709   1.858   4.257  0.0499 -0.5497  0.2612
13143TIP3    H160844   3.721   1.768   4.227  2.3066 -0.8019  1.7499
13143TIP3    H260845   3.696   1.850   4.352 -0.1574  0.6568  0.3460
13144TIP3   OH260846   4.931   4.657   5.133 -0.7300  0.4285  0.7080
13144TIP3    H160847   4.961   4.569   5.156 -0.8349  0.7912  2.3318
13144TIP3    H260848   4.860   4.675   5.195  0.0751  2.1130  1.1641
13145TIP3   OH260849   5.536   3.688  11.765  0.5980 -0.1123  0.1664
13145TIP3    H160850   5.556   3.687  11.671 -0.0206  2.9282 -0.0426
13145TIP3    H260851   5.622   3.687  11.808  0.9583  1.6155 -0.4991
13146TIP3   OH260852   4.818   5.292  12.953 -0.2799  0.1754 -0.3068
13146TIP3    H160853   4.736   5.298  12.904  0.1182  2.1773 -0.7704
13146TIP3    H260854   4.854   5.380  12.950  3.2219 -1.2295 -2.3539
13147TIP3   OH260855   3.759   0.446  14.006  0.3675 -0.2307 -0.2633
13147TIP3    H160856   3.797   0.526  13.969  0.5081 -0.3086 -0.2870
13147TIP3    H260857   3.772   0.455  14.101 -3.2308  1.6705  0.1298
13148TIP3   OH260858   1.127   2.107  10.660  0.1730 -0.8466 -0.5421
13148TIP3    H160859   1.202   2.074  10.708 -0.0481 -2.2950 -1.1440
13148TIP3    H260860   1.051   2.066  10.702 -0.0961 -1.2878 -1.4385
13149TIP3   OH260861   3.636   6.512  10.885  0.5739 -0.4954  0.0072
13149TIP3    H160862   3.631   6.604  10.909  1.0703 -0.2978 -0.6391
13149TIP3    H260863   3.653   6.466  10.967  1.4211  0.0958  0.1623
13150TIP3   OH260864   1.262   0.414   5.850 -0.4034  0.3779 -0.2394
13150TIP3    H160865   1.256   0.454   5.937 -1.5217  0.9532 -0.5816
13150TIP3    H260866   1.199   0.461   5.797 -1.9838 -2.0420 -0.5665
13151TIP3   OH260867   3.507   4.285  15.526  0.3466  0.2356 -0.8597
13151TIP3    H160868   3.567   4.350  15.563  0.9447  0.4610 -2.1987
13151TIP3    H260869   3.527   4.204  15.573  0.7715  0.6143 -0.3774
13152TIP3   OH260870   2.352   2.431  13.776 -0.1939 -0.0797  0.5982
13152TIP3    H160871   2.417   2.362  13.763 -0.0303 -0.2222  2.0769
13152TIP3    H260872   2.275   2.401  13.728  1.1918  0.6573 -2.1736
13153TIP3   OH260873   3.800   4.858  12.601  0.4803 -0.5560  0.4340
13153TIP3    H160874   3.779   4.872  12.508  1.2625  0.3297  0.3935
13153TIP3    H260875   3.784   4.942  12.642  1.5017 -0.5625  0.8544
13154TIP3   OH260876   4.786   0.314   1.940 -0.7810 -0.3353  0.3246
13154TIP3    H160877   4.870   0.301   1.896 -1.2137  0.9462 -0.9214
13154TIP3    H260878   4.740   0.231   1.931 -0.4584 -0.4002 -0.7958
13155TIP3   OH260879   4.840   1.874   4.174  0.2252  0.9549 -0.7817
13155TIP3    H160880   4.896   1.881   4.097  2.0781  1.1249  0.5378
13155TIP3    H260881   4.849   1.959   4.217  0.8324  0.1630  0.6805
13156TIP3   OH260882   3.880   1.927  12.390  0.3719  0.4623 -0.1397
13156TIP3    H160883   3.839   2.013  12.391  1.3376  0.9344  1.5911
13156TIP3    H260884   3.957   1.937  12.446  0.8037 -1.3800 -0.3716
13157TIP3   OH260885   3.769   2.510   2.831 -0.6135 -0.1527 -0.0276
13157TIP3    H160886   3.735   2.460   2.906 -1.5102 -2.0810 -1.6844
13157TIP3    H260887   3.864   2.511   2.845 -0.7015 -1.1677  0.7385
13158TIP3   OH260888   3.818   6.525   3.756 -0.5866 -0.1953 -0.0076
13158TIP3    H160889   3.833   6.435   3.783 -1.9258  0.3074  2.6253
13158TIP3    H260890   3.902   6.569   3.772 -0.3043 -0.6949 -0.1020
13159TIP3   OH260891   2.997   4.197  13.525 -0.3717 -0.5163  0.0060
13159TIP3    H160892   2.927   4.263  13.522 -0.1230 -0.1824  1.4663
13159TIP3    H260893   3.074   4.245  13.556  0.2233 -1.1404 -0.4958
13160TIP3   OH260894   1.702   3.878  14.997  0.0062 -0.3560  0.4148
13160TIP3    H160895   1.795   3.857  14.988  0.1137  0.7207 -1.0461
13160TIP3    H260896   1.664   3.857  14.912 -0.8530  0.4380  0.5976
13161TIP3   OH260897   3.677   3.383   5.343 -0.4299  0.1227 -0.1991
13161TIP3    H160898   3.740   3.433   5.395  0.9524 -1.9384  0.1800
13161TIP3    H260899   3.597   3.382   5.397 -0.6485  2.2843 -0.4358
13162TIP3   OH260900   2.001   0.843  14.349  0.2195  0.2537 -0.1338
13162TIP3    H160901   1.922   0.801  14.315  0.3118  0.2059 -0.2900
13162TIP3    H260902   2.025   0.907  14.282 -0.1035  0.7820  0.2505
13163TIP3   OH260903   3.315   1.169  13.464 -0.3237 -0.6927 -0.1187
13163TIP3    H160904   3.240   1.208  13.418  0.5328 -1.3953 -2.1642
13163TIP3    H260905   3.391   1.209  13.423  0.4604 -0.5455  1.4506
13164TIP3   OH260906   2.999   1.567  10.857  0.6613  0.0764 -0.4109
13164TIP3    H160907   3.017   1.593  10.766  1.1033  0.4037 -0.2333
13164TIP3    H260908   2.942   1.635  10.891  3.0190  1.6699  0.5179
13165TIP3   OH260909   5.310   5.074   1.504  0.0593 -0.3454 -0.0193
13165TIP3    H160910   5.262   5.102   1.582 -0.1189 -0.2226 -0.1732
13165TIP3    H260911   5.396   5.048   1.537  0.4996  1.1370  0.0272
13166TIP3   OH260912   2.217   0.710  10.492  0.0477  0.4176  0.1460
13166TIP3    H160913   2.198   0.668  10.576  0.9050 -0.4979 -0.1058
13166TIP3    H260914   2.310   0.693  10.478 -0.1485  0.3639 -1.0967
13167TIP3   OH260915   6.529   4.133  14.458  0.1050  0.4392 -0.1820
13167TIP3    H160916   6.571   4.218  14.469 -0.7127  0.7782  0.3756
13167TIP3    H260917   6.445   4.153  14.416 -0.5800  0.0420  0.9596
13168TIP3   OH260918   6.586   1.779   0.196 -0.1788 -0.8502  0.3629
13168TIP3    H160919   6.552   1.729   0.270  1.0198 -2.6867 -0.2925
13168TIP3    H260920   6.543   1.740   0.120  0.5408 -0.6849 -0.1258
13169TIP3   OH260921   4.160   4.376  16.535 -0.0633  0.4947  0.5424
13169TIP3    H160922   4.189   4.286  16.549 -0.6844  0.2155  0.0511
13169TIP3    H260923   4.072   4.367  16.497  0.0190  1.2947  0.1621
13170TIP3   OH260924   2.507   1.245  12.126 -0.4131 -0.6437  0.2274
13170TIP3    H160925   2.464   1.299  12.192  0.7466 -0.3715  0.7719
13170TIP3    H260926   2.582   1.206  12.172  0.9116  0.2325 -1.1481
13171TIP3   OH260927   4.202   3.860   1.006  0.0116 -0.4281  0.0811
13171TIP3    H160928   4.115   3.832   1.036 -0.6811  0.5562 -0.9682
13171TIP3    H260929   4.224   3.935   1.062  1.6279 -2.6084  2.5201
13172TIP3   OH260930   1.065   1.995   4.721 -0.1876 -0.2560 -0.5712
13172TIP3    H160931   1.008   1.918   4.723 -0.5886  0.0488 -0.0607
13172TIP3    H260932   1.004   2.070   4.719  0.1979  0.0492 -0.9125
13173TIP3   OH260933   4.861   2.929   2.952 -0.2094 -0.2529 -0.6103
13173TIP3    H160934   4.794   2.950   2.886  0.6130  0.0799 -1.3485
13173TIP3    H260935   4.942   2.963   2.915 -0.1296  2.1937  1.7233
13174TIP3   OH260936   5.481   6.350   2.569 -0.4994 -0.1091  0.3299
13174TIP3    H160937   5.404   6.396   2.602 -1.4532 -0.8420 -0.8417
13174TIP3    H260938   5.447   6.268   2.534  1.0321 -1.1408  1.2241
13175TIP3   OH260939   6.515   6.183   1.088  0.4990  0.4971  0.2124
13175TIP3    H160940   6.522   6.094   1.124  1.2400  0.3457 -0.2760
13175TIP3    H260941   6.511   6.239   1.165 -0.6213  0.0016  0.5298
13176TIP3   OH260942   1.033   0.435   2.295 -0.1536  0.0742 -0.4253
13176TIP3    H160943   1.079   0.504   2.343  0.0006 -1.2220  1.3449
13176TIP3    H260944   0.942   0.465   2.290 -0.2023  0.1494  0.8543
13177TIP3   OH260945   5.334   2.138   0.204  0.5177  0.7657 -0.0019
13177TIP3    H160946   5.279   2.069   0.168  0.6347  0.7572 -0.1694
13177TIP3    H260947   5.324   2.211   0.142 -0.2754  1.2022  0.6344
13178TIP3   OH260948   4.423   3.673   4.825 -0.1852 -0.5982  0.1919
13178TIP3    H160949   4.495   3.684   4.763 -1.1901  0.8389 -0.7839
13178TIP3    H260950   4.405   3.579   4.825  0.5736 -0.7552 -0.8579
13179TIP3   OH260951   3.110   0.857   3.794  0.4751 -0.0547  0.1605
13179TIP3    H160952   3.095   0.763   3.787  1.7061 -0.1569 -1.5242
13179TIP3    H260953   3.192   0.871   3.747 -0.2079  1.9988 -0.4603
13180TIP3   OH260954   6.190   3.292  12.267  0.0225 -0.2816  0.1348
13180TIP3    H160955   6.104   3.332  12.277  0.2103 -0.0752  0.9535
13180TIP3    H260956   6.216   3.269  12.356  1.6728  1.4877  0.1497
13181TIP3   OH260957   3.239   1.010  16.952  0.7952  0.2230  0.3729
13181TIP3    H160958   3.230   0.924  16.993  1.6825 -0.6355 -1.2099
13181TIP3    H260959   3.155   1.024  16.908  0.7322  0.0596  0.4379
13182TIP3   OH260960   0.227   2.213  11.677  0.3909 -0.1750  0.4183
13182TIP3    H160961   0.241   2.308  11.683  2.6011 -0.4956  0.8135
13182TIP3    H260962   0.241   2.192  11.585 -1.0596 -0.0045  0.1418
13183TIP3   OH260963   0.708   5.855   0.218 -0.6533 -0.5659 -0.3731
13183TIP3    H160964   0.769   5.824   0.150  0.8732 -0.4652  0.9158
13183TIP3    H260965   0.765   5.877   0.292 -2.2347  0.0379  0.6708
13184TIP3   OH260966   1.705   3.795   4.780 -0.0419 -0.4463  0.8889
13184TIP3    H160967   1.721   3.875   4.730 -1.8558 -0.3548  0.4352
13184TIP3    H260968   1.752   3.727   4.732 -0.3311 -0.0434  0.0283
13185TIP3   OH260969   0.221   4.492   0.133  0.6360 -0.3156  0.5967
13185TIP3    H160970   0.136   4.483   0.177  1.0973 -0.4127  1.4917
13185TIP3    H260971   0.284   4.459   0.197  1.3239 -0.4852 -0.1646
13186TIP3   OH260972   3.447   0.810   0.225  0.9515  0.9316 -0.5599
13186TIP3    H160973   3.359   0.808   0.262  0.6980  2.3998 -1.0806
13186TIP3    H260974   3.497   0.868   0.283  1.2686  1.0418 -0.9399
13187TIP3   OH260975   4.052   6.361  14.094 -0.0372  0.1201  0.3422
13187TIP3    H160976   4.008   6.444  14.111 -2.8761 -0.8900 -1.4795
13187TIP3    H260977   4.063   6.358  13.999  2.1602 -0.5913  0.5864
13188TIP3   OH260978   6.265   1.109   2.331 -0.1439  0.3546 -1.2508
13188TIP3    H160979   6.173   1.097   2.354 -0.0653 -0.3582 -1.2871
13188TIP3    H260980   6.264   1.135   2.239 -0.3670  1.4919 -0.9334
13189TIP3   OH260981   2.781   3.447  13.324 -0.3584  0.0695  0.1656
13189TIP3    H160982   2.844   3.454  13.396 -0.3199  1.0402  0.0487
13189TIP3    H260983   2.789   3.357  13.294  1.7312  0.4527 -0.5173
13190TIP3   OH260984   2.123   1.171  11.509  0.3990  0.2335 -0.1122
13190TIP3    H160985   2.144   1.263  11.496 -2.4163  0.8075 -0.8847
13190TIP3    H260986   2.170   1.147  11.589  0.1654  2.6800  0.8046
13191TIP3   OH260987   4.079   1.319   4.252  0.0411  0.7759 -0.2193
13191TIP3    H160988   4.087   1.227   4.226 -0.4288  1.2567 -2.1143
13191TIP3    H260989   3.996   1.322   4.301 -0.2067  0.2958 -0.6038
13192TIP3   OH260990   3.493   3.183   4.030 -0.1022  0.0170  0.1120
13192TIP3    H160991   3.471   3.112   3.969  2.1148 -0.2475 -0.4492
13192TIP3    H260992   3.494   3.141   4.116 -0.9976 -0.1305  0.0488
13193TIP3   OH260993   5.781   0.183   2.512  0.0054  0.0229  0.6768
13193TIP3    H160994   5.833   0.190   2.432  1.6045 -2.5727  1.4205
13193TIP3    H260995   5.726   0.106   2.498 -0.4589  0.1743  1.6332
13194TIP3   OH260996   5.754   5.224  14.820  0.1333 -0.5584 -0.3818
13194TIP3    H160997   5.701   5.145  14.807 -1.2997  0.5192 -1.2188
13194TIP3    H260998   5.691   5.295  14.823  1.5195  0.7243 -1.0914
13195TIP3   OH260999   5.800   4.740  13.536  0.7925 -0.3469  0.3153
13195TIP3    H161000   5.826   4.649  13.550  1.0190 -0.9235 -3.3678
13195TIP3    H261001   5.883   4.787  13.526  0.6410 -0.1132  0.1457
13196TIP3   OH261002   5.896   6.179   2.122  0.2656  0.0182 -0.2878
13196TIP3    H161003   5.956   6.240   2.080  0.7732  0.0376  0.4676
13196TIP3    H261004   5.886   6.212   2.212  0.8138 -1.1976  0.2309
13197TIP3   OH261005   6.567   6.412   3.722 -0.7334 -0.2758  0.3671
13197TIP3    H161006   6.545   6.474   3.652 -0.1094 -0.6817 -0.1931
13197TIP3    H261007   6.483   6.372   3.746 -0.9685 -0.0456 -0.0615
13198TIP3   OH261008   6.463   4.803   6.077 -0.4039 -0.0259  0.0617
13198TIP3    H161009   6.436   4.894   6.091  1.4463  0.3063  1.7280
13198TIP3    H261010   6.445   4.760   6.160  2.3795 -0.2171  0.6184
13199TIP3   OH261011   2.267   1.190   5.724  0.2493  0.0405 -0.1947
13199TIP3    H161012   2.305   1.115   5.678 -1.0523 -0.9907  0.3720
13199TIP3    H261013   2.284   1.172   5.817 -0.9816 -0.0902  0.0146
13200TIP3   OH261014   0.212   1.345   5.305  0.4345 -0.3723  0.0122
13200TIP3    H161015   0.187   1.254   5.317 -0.2416 -0.3852 -1.4012
13200TIP3    H261016   0.177   1.390   5.381  1.1154 -1.3576  0.9178
13201TIP3   OH261017   3.788   3.839   4.721 -0.2600  0.1036 -0.3938
13201TIP3    H161018   3.763   3.777   4.652 -1.2595 -0.4080  0.4209
13201TIP3    H261019   3.840   3.905   4.675  0.8946 -1.3689 -1.2721
13202TIP3   OH261020   6.290   5.522   2.920  0.2074 -0.2350 -0.3208
13202TIP3    H161021   6.369   5.507   2.971 -0.2532  0.5581  0.6395
13202TIP3    H261022   6.233   5.447   2.940  0.5454 -0.5889 -0.6835
13203TIP3   OH261023   2.145   3.159  12.984  0.5636 -0.6821  0.2342
13203TIP3    H161024   2.123   3.201  13.068 -0.4240  0.1288 -0.4154
13203TIP3    H261025   2.238   3.176  12.972  0.0996  1.7429 -0.2189
13204TIP3   OH261026   4.183   6.095   5.291  0.1972 -0.2885  0.2994
13204TIP3    H161027   4.248   6.076   5.223  0.8963  0.8553  0.6257
13204TIP3    H261028   4.177   6.191   5.292 -2.7510 -0.3970 -0.8910
13205TIP3   OH261029   0.816   4.002   3.383  0.0428 -0.2931 -0.1887
13205TIP3    H161030   0.844   3.973   3.296  0.8100  0.5783 -0.2347
13205TIP3    H261031   0.725   3.972   3.390  0.7674 -2.6248 -0.2901
13206TIP3   OH261032   2.699   5.987  16.880 -0.3184  0.4428 -0.0102
13206TIP3    H161033   2.752   6.020  16.807 -0.0102 -0.0378 -0.0081
13206TIP3    H261034   2.626   5.942  16.838 -1.6758  2.6040 -0.0045
13207TIP3   OH261035   0.232   3.394  12.965 -0.1301 -0.4011 -0.2046
13207TIP3    H161036   0.240   3.360  13.054  2.0939 -1.5701 -0.8234
13207TIP3    H261037   0.253   3.487  12.973  1.4395 -0.7864  0.2930
13208TIP3   OH261038   4.665   1.690  10.562 -0.2693 -0.6650  0.9849
13208TIP3    H161039   4.619   1.674  10.479  1.1288 -0.7787  0.2089
13208TIP3    H261040   4.696   1.780  10.555  1.5742 -1.2896  0.4815
13209TIP3   OH261041   4.335   1.902  10.332  0.5464 -0.0401  0.5376
13209TIP3    H161042   4.297   1.973  10.281 -1.0068 -1.0171  0.2820
13209TIP3    H261043   4.418   1.882  10.289 -1.0374 -1.2927 -2.0307
13210TIP3   OH261044   5.413   0.015   3.600 -0.2387  0.3738 -0.2999
13210TIP3    H161045   5.327   0.029   3.641 -0.0221  1.2695 -0.1557
13210TIP3    H261046   5.453  -0.055   3.652 -0.0388  1.3824  0.9130
13211TIP3   OH261047   1.252   2.330  11.803 -0.2891 -0.4646 -0.0651
13211TIP3    H161048   1.294   2.343  11.717  1.5140 -2.4122  0.4838
13211TIP3    H261049   1.231   2.237  11.805 -1.7599 -0.1176  0.9952
13212TIP3   OH261050   0.330   3.842   6.003 -0.0043 -0.0466 -0.7780
13212TIP3    H161051   0.276   3.776   5.959 -1.9234 -0.1072  1.5890
13212TIP3    H261052   0.285   3.860   6.086  2.7378  1.1011  0.5586
13213TIP3   OH261053   4.496   3.430   6.033  0.4677 -0.0330 -0.1409
13213TIP3    H161054   4.518   3.489   6.105 -3.7351 -0.6319  1.7663
13213TIP3    H261055   4.437   3.482   5.977  0.6060 -0.8572 -1.0661
13214TIP3   OH261056   2.031   1.374  12.497 -0.0380 -0.5554  0.2319
13214TIP3    H161057   2.072   1.459  12.516 -0.7278 -0.2019  0.1729
13214TIP3    H261058   1.937   1.393  12.497 -0.3188 -1.8426  2.7167
13215TIP3   OH261059   1.278   1.079  11.464 -0.0102  0.0553 -0.0534
13215TIP3    H161060   1.241   1.168  11.459 -1.7868 -0.6883 -0.5675
13215TIP3    H261061   1.343   1.084  11.534 -0.5979  1.5917  0.4104
13216TIP3   OH261062   0.316   2.909  16.173 -0.6984  0.5476  0.4287
13216TIP3    H161063   0.249   2.875  16.114 -0.1989 -1.7076  1.0921
13216TIP3    H261064   0.391   2.851  16.161 -0.8948 -0.5634  3.8718
13217TIP3   OH261065   1.117   3.897   4.419 -0.0466 -0.3493 -0.5749
13217TIP3    H161066   1.066   3.924   4.342  0.4758  1.2106 -0.3842
13217TIP3    H261067   1.206   3.887   4.386  0.3115  1.0016 -0.0364
13218TIP3   OH261068   1.979   1.079  12.007  0.7645 -0.5524  0.0374
13218TIP3    H161069   2.032   1.158  12.000  2.4279 -1.7628 -1.3411
13218TIP3    H261070   1.986   1.054  12.099 -2.1226  2.4365  1.1828
13219TIP3   OH261071   5.128   0.777   6.336 -0.1802  0.2498 -0.3367
13219TIP3    H161072   5.155   0.815   6.419 -1.8933  0.6035  0.0863
13219TIP3    H261073   5.100   0.688   6.357 -2.0427  0.8280 -0.2371
13220TIP3   OH261074   0.880   1.003   1.927  0.1605 -0.4751  0.1058
13220TIP3    H161075   0.910   0.995   2.017 -0.6152 -1.8999  0.2429
13220TIP3    H261076   0.887   0.914   1.891  0.4077  0.0650 -1.2214
13221TIP3   OH261077   0.032   5.861   1.589 -0.6472 -0.0238  0.6681
13221TIP3    H161078   0.059   5.777   1.624 -1.1503 -0.3347  0.3143
13221TIP3    H261079   0.056   5.924   1.657  1.8692 -0.1570 -0.0525
13222TIP3   OH261080   3.330   3.330   1.041 -0.5628  0.0341  0.1599
13222TIP3    H161081   3.392   3.374   0.982  0.2220 -2.6582 -1.0929
13222TIP3    H261082   3.245   3.340   0.998 -0.4286  0.5126 -0.0011
13223TIP3   OH261083   2.606   6.422  10.455  0.3714 -0.0428  0.4274
13223TIP3    H161084   2.681   6.407  10.511 -0.0432 -1.6082  0.5685
13223TIP3    H261085   2.600   6.344  10.400 -0.6917  0.3984 -0.1055
13224TIP3   OH261086   2.406   6.428  14.641  0.0580  0.0650 -0.0889
13224TIP3    H161087   2.352   6.355  14.672  0.9626 -0.3260  0.5770
13224TIP3    H261088   2.491   6.389  14.623  1.0785  1.2500  1.9152
13225TIP3   OH261089   5.569   2.258  15.055 -0.4469 -0.0748  0.2286
13225TIP3    H161090   5.557   2.262  15.150 -0.8824 -0.9311  0.2123
13225TIP3    H261091   5.618   2.337  15.034  1.8440 -1.1046  1.5024
13226TIP3   OH261092   0.192   0.164   3.986  0.0742  0.2217  0.2629
13226TIP3    H161093   0.263   0.175   4.049  0.5676 -2.6318  0.2865
13226TIP3    H261094   0.188   0.248   3.940  1.9367  1.2062  1.8040
13227TIP3   OH261095   4.419   3.088   4.959  0.6291  0.6101  0.5313
13227TIP3    H161096   4.371   3.171   4.966  0.7772  0.5900  1.7553
13227TIP3    H261097   4.351   3.021   4.956  0.4879  0.7993 -1.0281
13228TIP3   OH261098   4.368   3.306   0.911 -0.3683  0.0380 -0.1928
13228TIP3    H161099   4.348   3.225   0.863 -0.4866 -0.6026  0.9152
13228TIP3    H261100   4.461   3.321   0.896 -0.7809  0.8119 -2.0658
13229TIP3   OH261101   5.784   3.625  14.050  0.1840  0.2249 -0.1174
13229TIP3    H161102   5.732   3.546  14.036  2.0016 -1.0216 -0.0833
13229TIP3    H261103   5.817   3.617  14.139  0.0153  1.2545  0.0462
13230TIP3   OH261104   4.846   2.913   2.179 -0.1587 -0.3297 -0.5561
13230TIP3    H161105   4.832   2.876   2.092  0.0746 -3.3759  0.6247
13230TIP3    H261106   4.802   2.852   2.239  1.2794  0.6432  1.5822
13231TIP3   OH261107   2.589   0.443  12.069 -0.3855 -0.3662  0.0418
13231TIP3    H161108   2.575   0.355  12.105  1.3695 -0.9015 -0.5426
13231TIP3    H261109   2.573   0.434  11.975 -1.3368  0.2142  0.1371
13232TIP3   OH261110   3.392   2.192  17.018  0.8801 -0.1786 -0.2215
13232TIP3    H161111   3.440   2.201  17.100  2.0795 -0.5545 -0.8617
13232TIP3    H261112   3.398   2.278  16.976  2.0460 -0.5352 -0.8395
13233TIP3   OH261113   4.222   0.741  11.976  0.1149  0.6317 -0.2897
13233TIP3    H161114   4.182   0.655  11.969 -0.5697  0.8591  0.7648
13233TIP3    H261115   4.160   0.800  11.933 -0.0418  0.7915  0.1565
13234TIP3   OH261116   2.979   2.158  15.581  0.7309 -0.1399 -0.5343
13234TIP3    H161117   2.896   2.140  15.537  0.9518 -1.9349 -0.2502
13234TIP3    H261118   3.046   2.130  15.519  1.1034  0.0839 -0.2365
13235TIP3   OH261119   1.273   0.647  16.158  0.1168  0.2391 -0.0936
13235TIP3    H161120   1.194   0.595  16.151  0.0861  0.4227 -1.3092
13235TIP3    H261121   1.265   0.694  16.241 -0.5491 -0.5480  0.2839
13236TIP3   OH261122   3.004   5.298  11.284  0.0688  0.3041  0.1710
13236TIP3    H161123   3.080   5.294  11.225  1.5257 -0.7993  2.0769
13236TIP3    H261124   3.029   5.362  11.351 -0.2036 -0.9091  1.4455
13237TIP3   OH261125   1.175   6.187  14.474 -0.9539  0.6879 -0.0106
13237TIP3    H161126   1.094   6.136  14.472 -0.7071  0.2332  0.9644
13237TIP3    H261127   1.221   6.164  14.394 -1.6209  0.6657 -0.3836
13238TIP3   OH261128   0.422   1.328   1.392  0.3413 -0.5116 -0.0792
13238TIP3    H161129   0.514   1.305   1.401  0.1817 -1.1544 -0.0425
13238TIP3    H261130   0.393   1.348   1.481  0.2716 -0.9812  0.0029
13239TIP3   OH261131   1.000   2.490   1.397  0.3495  0.4245  0.6453
13239TIP3    H161132   1.008   2.446   1.313 -0.2238  0.7091  0.4410
13239TIP3    H261133   1.070   2.452   1.451  0.1915 -0.3551  0.3079
13240TIP3   OH261134   1.596   4.819   1.151 -0.0716 -0.1243 -0.9503
13240TIP3    H161135   1.509   4.822   1.191  0.6741  1.9768  0.5857
13240TIP3    H261136   1.591   4.882   1.079 -0.0483 -0.5400 -1.3135
13241TIP3   OH261137   6.740   2.436  13.743  0.3891  0.3179 -0.2548
13241TIP3    H161138   6.753   2.367  13.678  1.8563  0.3964 -0.0640
13241TIP3    H261139   6.656   2.415  13.784 -1.0270  0.8187 -2.8111
13242TIP3   OH261140   2.487   5.100  11.936  0.1243 -0.2286  0.0170
13242TIP3    H161141   2.556   5.142  11.987  1.3576 -0.3738 -1.5095
13242TIP3    H261142   2.406   5.140  11.968  1.2193  3.2263 -1.3159
13243TIP3   OH261143   0.009   2.146  12.181  0.2822 -0.0682  0.2520
13243TIP3    H161144   0.088   2.193  12.154 -0.6179  1.4891  0.2227
13243TIP3    H261145  -0.044   2.212  12.225 -1.3543 -0.8794 -0.4391
13244TIP3   OH261146   6.727   0.072  15.942 -0.0747  0.3044  0.5658
13244TIP3    H161147   6.817   0.058  15.972  0.5782  1.6598 -0.7095
13244TIP3    H261148   6.723   0.027  15.858  0.0946  2.1299 -0.4411
13245TIP3   OH261149   3.086   0.161  13.467 -0.1304 -0.0058  0.0814
13245TIP3    H161150   3.034   0.081  13.456 -1.1145  0.3762  1.8079
13245TIP3    H261151   3.022   0.230  13.482  0.7712  0.9242 -0.2940
13246TIP3   OH261152   5.188   0.675   0.424  0.3679  0.1058 -0.1270
13246TIP3    H161153   5.230   0.754   0.389 -1.1377  0.2586 -1.6671
13246TIP3    H261154   5.190   0.612   0.352 -0.9240 -0.2935  0.1647
13247TIP3   OH261155   6.063   5.058   3.166 -0.5428 -0.0457  0.1830
13247TIP3    H161156   6.077   4.964   3.177  1.3276  0.0334 -1.2526
13247TIP3    H261157   6.002   5.065   3.092  0.7855 -0.0866 -0.9240
13248TIP3   OH261158   1.055   3.109  16.761 -0.3318  0.2616 -0.3253
13248TIP3    H161159   0.974   3.074  16.796 -0.0409 -1.2582 -1.0953
13248TIP3    H261160   1.108   3.131  16.838 -1.5253  1.3928  0.1666
13249TIP3   OH261161   0.389   3.682   2.879  0.3700 -0.4121  0.1356
13249TIP3    H161162   0.468   3.731   2.857 -1.2701  2.3921  0.2344
13249TIP3    H261163   0.378   3.621   2.806  3.1322 -1.5364  0.6098
13250TIP3   OH261164   2.203   1.236  16.638 -0.2796 -0.2225  0.1272
13250TIP3    H161165   2.143   1.215  16.566 -0.5882 -0.3088  0.4072
13250TIP3    H261166   2.188   1.166  16.702 -0.3517  0.1191  0.4810
13251TIP3   OH261167   6.335   5.009   3.318 -0.0893  0.1863 -0.1564
13251TIP3    H161168   6.282   5.075   3.361 -0.0431  0.6457 -0.7950
13251TIP3    H261169   6.419   5.051   3.303  1.1803 -1.2273  2.7363
13252TIP3   OH261170   2.101   1.496   0.078 -0.0306 -0.0450  0.1327
13252TIP3    H161171   2.041   1.519   0.007 -0.8535 -1.4097  0.3620
13252TIP3    H261172   2.073   1.408   0.105  1.9702 -0.6310  0.3494
13253TIP3   OH261173   0.079   4.566   3.031  0.5197  0.3913  0.0756
13253TIP3    H161174   0.071   4.479   2.991 -0.1235 -0.0293  1.1069
13253TIP3    H261175  -0.000   4.613   3.004  0.8485  0.6520 -0.4495
13254TIP3   OH261176   2.595   1.985   0.281  0.4151  0.5374  0.1186
13254TIP3    H161177   2.515   1.986   0.229  0.5988  0.9422 -0.1670
13254TIP3    H261178   2.664   2.005   0.217  0.8055 -0.3421  0.2562
13255TIP3   OH261179   5.946   4.318   3.762  0.1156 -0.1073  0.3921
13255TIP3    H161180   5.853   4.310   3.783 -0.0211 -2.0505 -0.7644
13255TIP3    H261181   5.947   4.347   3.671  0.6449  0.9493  0.7370
13256TIP3   OH261182   2.859   4.602  15.908  0.0894 -0.1681 -0.1611
13256TIP3    H161183   2.862   4.697  15.918 -1.6123  0.0674 -1.8400
13256TIP3    H261184   2.799   4.572  15.977 -2.1798  0.3376 -1.8656
13257TIP3   OH261185   6.770   5.217  12.575  0.1948  0.2788 -0.2927
13257TIP3    H161186   6.843   5.230  12.636 -0.7237  0.2160  0.8229
13257TIP3    H261187   6.808   5.164  12.504  1.6083  1.4653 -0.4540
13258TIP3   OH261188   3.121   0.839  12.908  0.2643  0.3332  0.0073
13258TIP3    H161189   3.145   0.758  12.864  1.0341  1.3053 -1.4102
13258TIP3    H261190   3.130   0.819  13.001 -0.1799 -1.3870 -0.3041
13259TIP3   OH261191   0.906   3.643  13.830  1.0185  0.2401 -0.3744
13259TIP3    H161192   0.926   3.651  13.737  0.0843 -0.9928 -0.6977
13259TIP3    H261193   0.972   3.582  13.863  1.4626  0.8175 -0.1741
13260TIP3   OH261194   6.108   4.170  17.167  0.2125  0.9945  0.0161
13260TIP3    H161195   6.119   4.111  17.092  0.7695  1.6897 -0.4579
13260TIP3    H261196   6.133   4.117  17.243 -0.4180  0.2658 -0.2757
13261TIP3   OH261197   3.971   0.243   1.824 -0.0590 -0.4866 -0.1904
13261TIP3    H161198   3.918   0.259   1.902  1.7320  1.3050  0.6974
13261TIP3    H261199   4.026   0.168   1.847 -0.7790 -1.0958 -0.4090
13262TIP3   OH261200   2.438   0.231   2.748 -0.5986 -0.4060 -0.3842
13262TIP3    H161201   2.524   0.259   2.778 -1.7656  2.1977  0.6559
13262TIP3    H261202   2.388   0.312   2.737 -2.4351 -1.7537 -2.5240
13263TIP3   OH261203   3.558   4.151   1.129  0.0597  0.1869 -0.1238
13263TIP3    H161204   3.635   4.166   1.074 -0.5566 -0.7108 -1.2524
13263TIP3    H261205   3.521   4.238   1.142  0.1148  0.3981 -1.2904
13264TIP3   OH261206   4.534   2.705   1.255 -0.0736 -0.1175 -0.6220
13264TIP3    H161207   4.628   2.691   1.259 -0.0112  0.6940  1.2731
13264TIP3    H261208   4.522   2.762   1.179  0.6986 -1.9901 -2.2001
13265TIP3   OH261209   4.249   1.397  14.549 -0.1982  0.0234 -0.0654
13265TIP3    H161210   4.291   1.314  14.526  1.7889  0.2303  2.5259
13265TIP3    H261211   4.305   1.434  14.617 -1.2379  3.3406 -0.8971
13266TIP3   OH261212   4.627   0.540  12.459  0.0191  0.4055 -0.4678
13266TIP3    H161213   4.692   0.495  12.405 -0.3140 -0.7130  0.0441
13266TIP3    H261214   4.555   0.477  12.467 -0.4283  1.0069  0.3137
13267TIP3   OH261215   5.067   5.712  11.128  0.4257  0.1286 -0.7681
13267TIP3    H161216   5.021   5.680  11.050 -0.4251 -0.4376 -0.0437
13267TIP3    H261217   5.005   5.773  11.168  0.0675 -1.0699  0.5245
13268TIP3   OH261218   0.499   4.692  12.137 -0.4790 -0.2714 -0.3933
13268TIP3    H161219   0.407   4.678  12.116 -0.2580 -1.1122 -0.7813
13268TIP3    H261220   0.539   4.605  12.135  0.6453  0.2552 -1.7064
13269TIP3   OH261221   6.230   4.646  10.465  0.1724 -0.2713  0.1694
13269TIP3    H161222   6.307   4.606  10.507  0.9019  1.4211  0.4791
13269TIP3    H261223   6.239   4.739  10.482 -0.1288  0.3427 -2.7494
13270TIP3   OH261224   3.459   1.986  16.866 -0.3467 -0.0420  0.4430
13270TIP3    H161225   3.553   1.966  16.866 -0.1195  1.0185  0.6358
13270TIP3    H261226   3.453   2.077  16.894 -1.4761 -0.2573  0.9518
13271TIP3   OH261227   5.269   4.819  14.070  0.3175 -0.7762 -0.2023
13271TIP3    H161228   5.226   4.877  14.134 -0.6156  0.2115 -1.6953
13271TIP3    H261229   5.257   4.731  14.106  0.4795 -0.1715  1.3702
13272TIP3   OH261230   2.734   2.951  12.212  0.1756  0.7031 -0.2450
13272TIP3    H161231   2.729   3.019  12.144 -0.1395  1.4530  0.5129
13272TIP3    H261232   2.676   2.983  12.281 -2.4091 -1.7973 -1.1208
13273TIP3   OH261233   3.602   3.041  11.210 -0.1109  0.6086  0.5125
13273TIP3    H161234   3.615   2.963  11.265 -1.2093  0.2336  0.2625
13273TIP3    H261235   3.530   3.016  11.151  1.0783  0.9762 -1.1330
13274TIP3   OH261236   6.420   3.824  12.259 -0.1294  0.3522 -0.2641
13274TIP3    H161237   6.391   3.762  12.192 -0.1937  0.0626  0.0356
13274TIP3    H261238   6.448   3.770  12.332  1.0794  0.6268 -0.5161
13275TIP3   OH261239   3.709   1.589   4.199 -0.6494  0.3778 -0.1221
13275TIP3    H161240   3.732   1.502   4.168 -1.7646  0.4848 -1.3039
13275TIP3    H261241   3.684   1.577   4.290 -1.5757 -0.6686 -0.5126
13276TIP3   OH261242   5.727   1.226   2.398  0.0137  0.2956  0.3665
13276TIP3    H161243   5.688   1.214   2.484  1.2752 -0.2872  0.8568
13276TIP3    H261244   5.815   1.260   2.415  0.1512  0.5160 -0.7022
13277TIP3   OH261245   5.030   0.079  11.710 -0.6096 -0.2922  0.0835
13277TIP3    H161246   5.117   0.091  11.673 -0.7442  1.1102  0.1958
13277TIP3    H261247   5.042   0.089  11.804 -1.4507  3.8353 -0.1257
13278TIP3   OH261248   0.647   4.362   5.168  0.1482 -0.1669  0.0512
13278TIP3    H161249   0.575   4.413   5.204 -0.3602 -1.2164  0.5465
13278TIP3    H261250   0.718   4.425   5.158 -0.3552  0.5676  0.9892
13279TIP3   OH261251   1.505   1.689   2.655 -0.1884  0.3351 -0.2740
13279TIP3    H161252   1.484   1.607   2.701 -0.9498  0.4536 -0.3990
13279TIP3    H261253   1.525   1.751   2.724  0.5335  0.0053 -0.1829
13280TIP3   OH261254   3.324   6.124   0.318 -0.3985 -0.1790 -0.0107
13280TIP3    H161255   3.382   6.118   0.394 -1.7167  1.2417  1.1514
13280TIP3    H261256   3.251   6.179   0.348  0.5886  3.1009 -3.2695
13281TIP3   OH261257   2.634   6.521   4.505  0.2561 -0.1156 -0.3178
13281TIP3    H161258   2.607   6.597   4.454  1.8388  1.3129  0.8845
13281TIP3    H261259   2.705   6.482   4.454 -1.7468 -1.9096 -1.8316
13282TIP3   OH261260   1.623   0.909   3.746  0.1158  0.2883  0.2312
13282TIP3    H161261   1.626   0.818   3.717  1.8330 -0.4476  2.5497
13282TIP3    H261262   1.688   0.954   3.693 -1.5716  0.4538 -1.7503
13283TIP3   OH261263   1.273   0.703  13.556 -0.2943  0.5203  0.1659
13283TIP3    H161264   1.257   0.768  13.488  1.2503  0.4582 -0.2856
13283TIP3    H261265   1.218   0.730  13.629 -2.1105  0.4845 -1.1681
13284TIP3   OH261266   5.582   5.678  10.757  0.2046 -0.4284 -0.0648
13284TIP3    H161267   5.494   5.653  10.786  0.6084 -1.3172  0.4000
13284TIP3    H261268   5.635   5.677  10.837  0.5684  0.4414 -0.2882
13285TIP3   OH261269   2.383   5.137  12.616 -0.1773 -0.4768 -0.2471
13285TIP3    H161270   2.412   5.089  12.539 -1.2263 -2.0608  0.3255
13285TIP3    H261271   2.318   5.080  12.657  0.4228  0.3035  1.8548
13286TIP3   OH261272   0.947   2.803  16.762  0.1720 -0.0897 -0.0924
13286TIP3    H161273   0.951   2.718  16.717  0.6916 -0.2936  0.3240
13286TIP3    H261274   0.877   2.851  16.717 -0.5172 -0.9562  0.0463
13287TIP3   OH261275   2.954   2.128   4.672  0.2624  0.0473 -0.5016
13287TIP3    H161276   3.027   2.109   4.613  0.1560 -0.7706 -0.3739
13287TIP3    H261277   2.959   2.061   4.739  0.4764  1.0644  0.5235
13288TIP3   OH261278   3.628   3.404  11.432  0.4397 -0.3199  0.4517
13288TIP3    H161279   3.594   3.453  11.357  1.4862 -1.4535 -0.7982
13288TIP3    H261280   3.681   3.335  11.392  2.7577  0.3582  2.3007
13289TIP3   OH261281   3.882   5.637   1.201 -0.3114 -0.5789 -0.1992
13289TIP3    H161282   3.863   5.695   1.127  0.3212  1.1521  0.9710
13289TIP3    H261283   3.800   5.632   1.249  0.1846  1.0779  0.8624
13290TIP3   OH261284   4.034   5.098  13.219  0.0843  0.2965 -0.4144
13290TIP3    H161285   4.027   5.180  13.267  1.6430  0.0296  0.2974
13290TIP3    H261286   3.963   5.043  13.254  2.3486 -0.5780  2.9947
13291TIP3   OH261287   5.112   3.330  15.027  0.0209  0.1229 -0.3372
13291TIP3    H161288   5.056   3.279  14.967 -0.3911  0.5736 -0.3371
13291TIP3    H261289   5.116   3.277  15.107  0.9505 -0.7018 -0.9235
13292TIP3   OH261290   5.058   1.386   5.010  0.0567  0.4263  0.7925
13292TIP3    H161291   5.004   1.464   5.011 -0.4027  0.1144  0.2906
13292TIP3    H261292   5.081   1.372   5.102 -0.0350  1.0273  0.9071
13293TIP3   OH261293   4.166   5.453   4.770 -0.6268 -0.1082  0.3328
13293TIP3    H161294   4.215   5.392   4.825  1.1724 -0.8178 -1.9213
13293TIP3    H261295   4.097   5.400   4.731 -0.9687  0.0312  0.7496
13294TIP3   OH261296   2.685   1.883   3.183  0.5294  0.1116  0.3392
13294TIP3    H161297   2.655   1.959   3.133 -0.2082 -0.2119  0.2717
13294TIP3    H261298   2.647   1.896   3.270 -0.8098 -0.9003 -0.0835
13295TIP3   OH261299   3.801   1.865   4.879 -0.2023  0.3593 -0.1047
13295TIP3    H161300   3.812   1.778   4.917  2.0694  0.2216 -1.0041
13295TIP3    H261301   3.752   1.913   4.946  2.2334 -0.3788  2.3657
13296TIP3   OH261302   2.799   0.252  15.896  0.6430 -0.1632  0.2796
13296TIP3    H161303   2.710   0.286  15.903  1.0863  0.7084  1.8995
13296TIP3    H261304   2.837   0.300  15.822  0.1783  0.3862  0.3939
13297TIP3   OH261305   2.323   4.555   4.254  0.1897  0.5705 -0.0789
13297TIP3    H161306   2.277   4.471   4.255  0.4739  0.3628 -1.8113
13297TIP3    H261307   2.406   4.537   4.298 -1.3447  0.9661  3.1239
13298TIP3   OH261308   2.922   1.793   4.817  0.2261  0.0622  0.1894
13298TIP3    H161309   2.934   1.735   4.742 -1.9772  0.1970 -0.3002
13298TIP3    H261310   2.888   1.737   4.887  0.2502  0.3350  0.4236
13299TIP3   OH261311   6.478   3.870   2.872 -0.3584  0.1320  0.4385
13299TIP3    H161312   6.386   3.894   2.862 -0.4833 -0.2204  0.7035
13299TIP3    H261313   6.484   3.833   2.960 -0.3597 -1.5746 -0.2483
13300TIP3   OH261314   4.541   5.074  12.092  0.1545  0.3301 -0.3069
13300TIP3    H161315   4.632   5.048  12.079  1.0036  1.5583  2.6951
13300TIP3    H261316   4.501   5.001  12.139  0.3295  0.9005  0.7489
13301TIP3   OH261317   2.438   4.392   0.140  0.4096 -0.1003  0.1141
13301TIP3    H161318   2.417   4.400   0.233  2.1670  2.0320  0.3601
13301TIP3    H261319   2.389   4.463   0.099  1.7206  0.6129 -0.2186
13302TIP3   OH261320   4.304   2.090  14.802 -0.2505  0.4226  0.1730
13302TIP3    H161321   4.375   2.041  14.843 -0.0581 -0.1614 -0.8482
13302TIP3    H261322   4.348   2.158  14.751 -0.4425  0.3389 -0.1026
13303TIP3   OH261323   2.261   6.083  16.221 -0.6567  0.0765  0.0138
13303TIP3    H161324   2.311   6.100  16.141  1.7083 -0.0377  1.4113
13303TIP3    H261325   2.268   6.164  16.272 -2.2232  0.1826  0.1005
13304TIP3   OH261326   6.083   1.282  13.518 -0.9574 -0.2477  0.1410
13304TIP3    H161327   6.057   1.345  13.451  0.3340  0.1471 -0.0063
13304TIP3    H261328   6.031   1.306  13.594 -1.1746  0.3997 -0.2030
13305TIP3   OH261329   4.640   0.516   3.604 -0.6827 -0.2116 -0.0452
13305TIP3    H161330   4.620   0.497   3.696 -0.5202  0.2066  0.0793
13305TIP3    H261331   4.582   0.589   3.582 -1.9837 -1.4571 -0.8008
13306TIP3   OH261332   6.230   3.727   6.517 -0.0451  0.5902  0.2213
13306TIP3    H161333   6.185   3.643   6.504 -0.5903  1.2668 -2.4497
13306TIP3    H261334   6.184   3.767   6.592 -3.1751  0.7329 -1.6858
13307TIP3   OH261335   1.764   6.102  16.232  0.7921  0.7736 -0.2286
13307TIP3    H161336   1.702   6.087  16.161 -0.8450 -1.5057  1.6197
13307TIP3    H261337   1.839   6.046  16.210  0.3885  0.2530 -0.2850
13308TIP3   OH261338   3.299   0.194  12.807 -0.1521 -0.4320 -0.4546
13308TIP3    H161339   3.267   0.278  12.772  3.3793  1.1121 -0.1913
13308TIP3    H261340   3.345   0.218  12.888  1.5703 -2.5053 -0.7779
13309TIP3   OH261341   5.012   5.102  15.051  0.8114  0.1687 -0.8133
13309TIP3    H161342   5.100   5.125  15.021 -0.4248  0.5990 -4.3481
13309TIP3    H261343   4.983   5.034  14.990 -2.0193  1.4616 -1.0054
13310TIP3   OH261344   5.227   4.630   0.997  0.4219 -0.0200  0.0555
13310TIP3    H161345   5.305   4.642   0.943 -0.1657  0.4659 -0.6917
13310TIP3    H261346   5.155   4.662   0.943 -0.3865 -1.1022  0.4912
13311TIP3   OH261347   1.722   4.744   4.296 -0.1817 -0.3479  0.0909
13311TIP3    H161348   1.699   4.837   4.301 -2.0101 -0.3420 -4.7969
13311TIP3    H261349   1.815   4.744   4.273 -0.4623  0.3913 -1.1376
13312TIP3   OH261350   1.200   0.019   0.424 -0.2677 -0.0491  0.1929
13312TIP3    H161351   1.183  -0.004   0.515  0.6335  0.3890  0.4730
13312TIP3    H261352   1.206   0.115   0.423  0.5569 -0.0974 -0.1767
13313TIP3   OH261353   1.030   0.735  12.128 -0.1324 -0.3631  0.2190
13313TIP3    H161354   1.091   0.735  12.054  0.7109 -0.6915  0.9077
13313TIP3    H261355   0.949   0.769  12.091  0.0353 -1.3093 -1.0575
13314TIP3   OH261356   6.087   4.403  14.818 -0.1765 -0.2999  0.3176
13314TIP3    H161357   6.008   4.350  14.831 -0.1745 -0.7058 -1.2462
13314TIP3    H261358   6.093   4.456  14.897 -1.9868 -0.3004  0.4782
13315TIP3   OH261359   1.378   1.916   0.553  0.0017 -0.4161  0.0051
13315TIP3    H161360   1.449   1.979   0.545 -0.3287  0.0025  0.3279
13315TIP3    H261361   1.318   1.938   0.481 -0.7863  0.5228  0.9184
13316TIP3   OH261362   0.370   6.083   4.543  0.7376  0.3939  0.7510
13316TIP3    H161363   0.325   6.011   4.586  1.5890 -1.1932 -0.9225
13316TIP3    H261364   0.426   6.121   4.611  1.0797 -1.2076  1.3918
13317TIP3   OH261365   4.783   6.581   1.029 -0.4258  0.7482  0.1070
13317TIP3    H161366   4.804   6.600   1.120  1.9842  0.7634 -0.4119
13317TIP3    H261367   4.867   6.588   0.983 -1.4202 -0.2522 -1.9383
13318TIP3   OH261368   3.984   3.142  14.218 -0.1664  0.3692 -0.1333
13318TIP3    H161369   4.076   3.165  14.230 -0.7424  3.3482 -0.8294
13318TIP3    H261370   3.967   3.161  14.125 -1.0767 -1.7820 -0.4340
13319TIP3   OH261371   4.615   3.175   1.540  0.4299  0.2082 -0.1053
13319TIP3    H161372   4.692   3.118   1.549 -1.0472 -1.6535  1.1834
13319TIP3    H261373   4.607   3.189   1.446  2.2550  0.3000 -0.2616
13320TIP3   OH261374   4.308   4.458   2.069  0.4326 -1.2977  0.2648
13320TIP3    H161375   4.270   4.371   2.055 -0.9266 -1.6257  5.1856
13320TIP3    H261376   4.395   4.440   2.105  1.6768 -0.5180 -2.2203
13321TIP3   OH261377   5.683   4.456   0.836  0.2361 -0.2482  0.1396
13321TIP3    H161378   5.721   4.452   0.748  0.3803 -1.8522  0.2539
13321TIP3    H261379   5.757   4.474   0.894  0.2497  0.1604 -0.0094
13322TIP3   OH261380   4.534   3.943   4.357  0.2504  0.2509 -0.2449
13322TIP3    H161381   4.520   4.028   4.398  1.0843 -0.1867  0.9999
13322TIP3    H261382   4.554   3.963   4.265 -2.4477  1.1933 -0.6641
13323TIP3   OH261383   4.315   3.111  13.518  0.0336 -0.7813 -0.0623
13323TIP3    H161384   4.224   3.120  13.489  0.8728 -1.0383 -2.9902
13323TIP3    H261385   4.333   3.017  13.511  0.1044 -0.9369  1.9519
13324TIP3   OH261386   2.566   1.629  13.773 -1.0188  0.3216  0.1299
13324TIP3    H161387   2.635   1.687  13.739  0.6807 -2.0725 -0.7002
13324TIP3    H261388   2.540   1.577  13.697 -0.5809 -1.8373  1.4327
13325TIP3   OH261389   4.131   3.164   3.111  0.0813 -0.4575  0.2546
13325TIP3    H161390   4.142   3.257   3.091  1.1779 -0.8808 -1.2486
13325TIP3    H261391   4.078   3.162   3.191  0.1993  1.4518  0.3998
13326TIP3   OH261392   0.532   6.149   0.651  0.1778 -0.0473  0.1207
13326TIP3    H161393   0.589   6.195   0.590  0.4513  0.7561  0.9690
13326TIP3    H261394   0.591   6.119   0.721  0.0281 -1.7739 -0.4526
13327TIP3   OH261395   2.614   5.413   4.854 -0.0736  0.3847  0.3670
13327TIP3    H161396   2.698   5.423   4.810  0.3478 -0.6613  0.9137
13327TIP3    H261397   2.583   5.326   4.826 -0.6286  0.4551  0.7514
13328TIP3   OH261398   5.099   5.667  17.090  0.2097  0.0794  0.4276
13328TIP3    H161399   5.174   5.661  17.031 -0.1210  0.3460 -0.0177
13328TIP3    H261400   5.079   5.760  17.095  1.3934  0.2469  2.4221
13329TIP3   OH261401   1.223   1.238   3.449  0.6476 -0.1605 -0.6936
13329TIP3    H161402   1.172   1.162   3.477 -1.7707  1.2141 -1.1796
13329TIP3    H261403   1.288   1.250   3.517  0.0873 -1.7615  0.1501
13330TIP3   OH261404   4.700   4.360  12.550 -0.5288 -0.1919 -0.2892
13330TIP3    H161405   4.733   4.272  12.535 -0.4446 -0.0404 -1.0051
13330TIP3    H261406   4.772   4.418  12.525 -0.5284  0.0806  0.3217
13331TIP3   OH261407   1.354   6.256   0.070 -0.6732  0.3600  0.3994
13331TIP3    H161408   1.271   6.296   0.045 -0.9251 -1.6389 -2.1856
13331TIP3    H261409   1.339   6.221   0.158 -2.1396  1.1767  0.4768
13332TIP3   OH261410   6.496   2.763   2.936 -0.7459 -0.1290  0.6493
13332TIP3    H161411   6.578   2.716   2.951 -0.4045  0.9796  2.4109
13332TIP3    H261412   6.497   2.784   2.842 -0.3967 -2.6273  0.0648
13333TIP3   OH261413   5.810   3.794  12.049  0.1029  0.2891 -0.0317
13333TIP3    H161414   5.862   3.874  12.057  1.8232 -0.7250 -0.7286
13333TIP3    H261415   5.815   3.753  12.135 -0.3343  0.6630  0.1725
13334TIP3   OH261416   3.707   5.595  15.389  0.1706  0.4036  0.2949
13334TIP3    H161417   3.626   5.599  15.338  0.7363  1.9715 -0.5219
13334TIP3    H261418   3.759   5.527  15.347  0.0149  0.6489 -0.2989
13335TIP3   OH261419   2.543   3.323   2.017 -0.2325  0.1739  0.3982
13335TIP3    H161420   2.551   3.244   1.963 -0.6357  0.9537 -0.8125
13335TIP3    H261421   2.625   3.327   2.066  0.1281 -0.5434 -0.1458
13336TIP3   OH261422   0.959   0.455  12.504  0.1252  0.2849  0.2525
13336TIP3    H161423   0.879   0.487  12.462 -0.1165  1.0039  1.2296
13336TIP3    H261424   0.976   0.371  12.462 -1.8729 -0.4876  0.8836
13337TIP3   OH261425   5.033   6.643   0.971  0.0924  0.4520  0.3225
13337TIP3    H161426   5.097   6.615   1.038  1.2669  1.2243 -0.4493
13337TIP3    H261427   5.087   6.660   0.893 -1.1809  0.2553 -0.6027
13338TIP3   OH261428   5.181   3.703  11.547 -0.2004 -0.3385  0.1976
13338TIP3    H161429   5.126   3.712  11.625 -0.7747 -0.3061 -0.2039
13338TIP3    H261430   5.200   3.792  11.519  1.5197 -0.3397  1.3441
13339TIP3   OH261431   4.571   3.522   3.025  0.5104  0.7661  0.4302
13339TIP3    H161432   4.609   3.537   3.111  0.3348  3.5228  0.0567
13339TIP3    H261433   4.501   3.587   3.018 -0.7546 -0.7133 -1.0242
13340TIP3   OH261434   2.245   2.471   1.271  0.3213  0.0707 -0.4187
13340TIP3    H161435   2.309   2.530   1.311 -0.5077  0.0114  1.0391
13340TIP3    H261436   2.165   2.486   1.321  0.0164 -2.0961 -0.2072
13341TIP3   OH261437   6.786   6.626  15.725 -0.5125 -0.6309 -0.1514
13341TIP3    H161438   6.698   6.589  15.720 -0.7286 -0.0035 -1.0974
13341TIP3    H261439   6.840   6.567  15.673 -0.1877 -1.5143  1.1563
13342TIP3   OH261440   4.088   1.136   5.124  0.9782 -0.1535  0.6748
13342TIP3    H161441   4.089   1.215   5.070  0.5788 -1.0063 -0.6201
13342TIP3    H261442   4.130   1.162   5.206  2.4844  0.9320 -0.4073
13343TIP3   OH261443   5.018   0.702  13.274  0.3290  0.6717  0.9304
13343TIP3    H161444   5.106   0.665  13.276  0.3471  0.7167  0.9923
13343TIP3    H261445   5.014   0.752  13.192  0.6451  1.3489  1.3216
13344TIP3   OH261446   5.159   2.912   0.412  0.1190  0.1967 -0.1410
13344TIP3    H161447   5.225   2.843   0.420 -0.8867 -0.6823  0.7549
13344TIP3    H261448   5.185   2.961   0.335  0.6486 -1.4277 -1.0304
13345TIP3   OH261449   3.203   2.015   0.924 -0.8941  0.2752 -0.1646
13345TIP3    H161450   3.254   2.023   1.004 -0.0315 -1.5172 -0.4981
13345TIP3    H261451   3.114   1.997   0.955 -1.3327  3.3200  0.4143
13346TIP3   OH261452   6.618   0.843   1.736 -0.7486  0.5099 -0.0958
13346TIP3    H161453   6.628   0.886   1.651 -0.9114  0.9942  0.1258
13346TIP3    H261454   6.686   0.882   1.791 -0.0077 -0.5031 -0.2723
13347TIP3   OH261455   6.714   2.961   0.587  0.6701 -0.0471 -0.0023
13347TIP3    H161456   6.735   3.048   0.621 -0.8183 -0.5278  2.2332
13347TIP3    H261457   6.724   2.970   0.492  0.9179  2.4555  0.2206
13348TIP3   OH261458   4.023   6.326   4.046 -0.1016  0.3336  0.4649
13348TIP3    H161459   3.979   6.399   4.090 -1.5097 -0.2443  0.0414
13348TIP3    H261460   3.972   6.313   3.966  2.1934  1.1304 -1.1642
13349TIP3   OH261461   1.485   5.833  15.426 -0.9735 -0.3730  0.1425
13349TIP3    H161462   1.402   5.881  15.425 -0.4231  0.7048  2.8694
13349TIP3    H261463   1.460   5.743  15.447 -1.7062 -0.7165 -2.0188
13350TIP3   OH261464   1.304   0.825  14.688 -0.4891  0.5772 -0.9544
13350TIP3    H161465   1.325   0.882  14.614 -0.2800  2.0655  0.2304
13350TIP3    H261466   1.364   0.851  14.757 -1.1793 -0.2818 -0.0056
13351TIP3   OH261467   0.699   3.110   3.761  0.1856 -0.0323 -0.1721
13351TIP3    H161468   0.653   3.039   3.715 -0.7153  0.5480 -0.1712
13351TIP3    H261469   0.751   3.066   3.828 -2.4051 -0.4984  1.5696
13352TIP3   OH261470   5.411   0.622  16.579 -0.9268  0.0432 -0.0730
13352TIP3    H161471   5.447   0.697  16.532  0.2467 -1.2628 -1.2946
13352TIP3    H261472   5.410   0.649  16.670  2.6531  0.3306 -0.0717
13353TIP3   OH261473   2.140   1.206  15.392 -0.7081 -0.2785  0.2646
13353TIP3    H161474   2.163   1.146  15.321  0.9064  1.5280 -0.7841
13353TIP3    H261475   2.223   1.245  15.419 -1.5226  0.2699  2.0467
13354TIP3   OH261476   0.679   0.241  13.747  0.1579 -0.3069 -0.2142
13354TIP3    H161477   0.626   0.262  13.670 -0.0302  0.8447  0.2220
13354TIP3    H261478   0.684   0.323  13.796 -0.5422 -1.2582  1.5073
13355TIP3   OH261479   2.778   1.809  16.792  0.3681 -0.0944  0.6259
13355TIP3    H161480   2.736   1.896  16.788 -1.2064 -0.8573 -0.0756
13355TIP3    H261481   2.789   1.793  16.885  1.1153  1.0710  0.7485
13356TIP3   OH261482   5.081   3.141   1.835 -0.0099  0.5360 -0.2965
13356TIP3    H161483   5.080   3.168   1.927 -1.3848  0.7833 -0.3734
13356TIP3    H261484   5.137   3.064   1.833 -0.2072  0.3572  0.8059
13357TIP3   OH261485   1.467   5.737   2.682  0.4415 -0.3776 -0.3296
13357TIP3    H161486   1.531   5.775   2.743  0.3358  0.2678 -0.6208
13357TIP3    H261487   1.508   5.745   2.596 -1.0107  2.2050 -0.8220
13358TIP3   OH261488   2.937   3.934   2.748 -0.2323  0.1287  0.0252
13358TIP3    H161489   2.867   3.904   2.805  1.3761 -1.6747  1.1007
13358TIP3    H261490   2.932   4.030   2.752 -0.6917  0.0366  2.5272
13359TIP3   OH261491   3.829   1.178  11.429 -0.0979  0.1656 -0.3253
13359TIP3    H161492   3.819   1.116  11.501  2.3821 -1.1862 -1.0686
13359TIP3    H261493   3.743   1.177  11.385 -0.6933 -1.3032  0.8190
13360TIP3   OH261494   6.636   1.947  10.467  0.3278 -0.2427  0.2072
13360TIP3    H161495   6.555   1.982  10.429  0.7790  1.1156  0.4758
13360TIP3    H261496   6.705   1.999  10.427  1.0101 -0.7175  0.7575
13361TIP3   OH261497   1.894   5.810  13.409 -0.0449 -0.3019  0.4105
13361TIP3    H161498   1.827   5.747  13.434 -0.2432  0.2604  1.3232
13361TIP3    H261499   1.890   5.812  13.313 -0.0468 -1.6454  0.3771
13362TIP3   OH261500   1.804   2.701  14.926  0.0575  0.5031  0.1520
13362TIP3    H161501   1.713   2.703  14.897 -0.0450 -0.4358  0.3981
13362TIP3    H261502   1.848   2.766  14.870 -0.7052  0.7937 -0.1246
13363TIP3   OH261503   1.817   3.830  16.400 -0.5226  0.0756 -0.3129
13363TIP3    H161504   1.763   3.780  16.339  0.1647 -1.0586  0.0047
13363TIP3    H261505   1.906   3.817  16.369 -0.1446 -0.6933  1.0614
13364TIP3   OH261506   2.188   2.699  13.452  0.0409  0.3188  0.4125
13364TIP3    H161507   2.283   2.695  13.458  0.0597  1.0688  0.6752
13364TIP3    H261508   2.167   2.659  13.367  0.6717  1.2873 -0.2017
13365TIP3   OH261509   1.182   5.788   2.590 -0.6839 -0.0675 -0.1703
13365TIP3    H161510   1.253   5.751   2.642 -0.0378  1.2024 -0.1209
13365TIP3    H261511   1.109   5.796   2.652 -0.5573 -0.4733  0.0302
13366TIP3   OH261512   6.364   1.553   2.342 -0.0745  0.3301  0.1236
13366TIP3    H161513   6.285   1.512   2.378  0.5962 -0.3330  0.8594
13366TIP3    H261514   6.415   1.579   2.419  1.6750 -1.6968 -0.2999
13367TIP3   OH261515   5.550   0.483   0.432 -0.4562 -0.0889  0.5704
13367TIP3    H161516   5.503   0.401   0.450  0.4471 -0.5260  0.9621
13367TIP3    H261517   5.609   0.461   0.360 -0.3209  0.2622  0.5726
13368TIP3   OH261518   3.906   5.073   1.668 -0.3166 -0.4608 -0.0838
13368TIP3    H161519   3.954   5.155   1.665 -0.1208 -0.5002  1.6704
13368TIP3    H261520   3.814   5.098   1.659 -0.3368  0.0476  1.5196
13369TIP3   OH261521   5.536   3.153  16.293 -0.9203  0.4689 -0.3269
13369TIP3    H161522   5.571   3.118  16.211  0.1143  1.1728 -0.1941
13369TIP3    H261523   5.571   3.096  16.361  0.1151  1.2643 -0.1820
13370TIP3   OH261524   0.395   3.499  11.528 -0.3138 -0.0705  0.1885
13370TIP3    H161525   0.460   3.430  11.518 -1.2163 -0.8559 -0.3920
13370TIP3    H261526   0.334   3.466  11.594 -1.0157 -0.0454 -0.4362
13371TIP3   OH261527   1.186   3.428   1.384 -0.1938 -0.0201 -0.4016
13371TIP3    H161528   1.196   3.403   1.292 -0.5192  0.6211 -0.6167
13371TIP3    H261529   1.119   3.497   1.383  0.5467  0.7207  0.1983
13372TIP3   OH261530   3.430   0.734   2.975 -0.0503  0.4885  0.0094
13372TIP3    H161531   3.468   0.700   3.056  1.3222  0.9601 -0.4210
13372TIP3    H261532   3.364   0.797   3.005 -0.2364 -0.0634  0.7705
13373TIP3   OH261533   5.860   4.494  15.732 -0.1029  0.1448  0.2507
13373TIP3    H161534   5.867   4.399  15.718  2.2144  0.3591 -0.2868
13373TIP3    H261535   5.937   4.515  15.786  0.1580  1.9303 -0.7994
13374TIP3   OH261536   0.491   2.900  14.188 -0.3574 -0.3173 -1.1578
13374TIP3    H161537   0.489   2.890  14.284 -0.8666 -1.6578 -1.2940
13374TIP3    H261538   0.463   2.815  14.155 -1.1457  0.4571 -2.4962
13375TIP3   OH261539   4.779   6.103   4.070 -0.3656  0.6382  0.0850
13375TIP3    H161540   4.765   6.022   4.021  2.0565 -0.5959  1.3380
13375TIP3    H261541   4.692   6.143   4.076 -1.8114 -2.4005  0.3218
13376TIP3   OH261542   0.866   6.032  13.089  0.2019 -0.5814  0.3997
13376TIP3    H161543   0.853   6.107  13.030  1.0371  0.6520  1.7355
13376TIP3    H261544   0.961   6.025  13.098  0.0803 -0.1557  2.3072
13377TIP3   OH261545   5.497   1.382   2.605  0.5610 -0.0982 -0.3223
13377TIP3    H161546   5.446   1.424   2.535  1.0437  0.4914 -0.3230
13377TIP3    H261547   5.574   1.438   2.616  0.8638 -0.6019  0.1640
13378TIP3   OH261548   3.080   4.782  13.378 -0.3109 -0.5223 -0.0023
13378TIP3    H161549   3.070   4.796  13.472 -0.9830  3.4664 -0.5905
13378TIP3    H261550   2.990   4.766  13.347 -0.4669  0.9634 -0.3442
13379TIP3   OH261551   6.139   2.961  11.546  0.1803 -0.1184  0.6299
13379TIP3    H161552   6.086   2.952  11.467  0.8776  0.0751  0.1402
13379TIP3    H261553   6.090   2.913  11.613  0.0596 -1.0694 -0.1397
13380TIP3   OH261554   3.806   4.191   5.784  0.2759  0.2156 -0.1289
13380TIP3    H161555   3.812   4.105   5.824 -0.1646  0.6918  0.9870
13380TIP3    H261556   3.717   4.220   5.802  0.8237  1.4579  0.6905
13381TIP3   OH261557   0.484   5.361  17.237 -0.5167 -0.7770  0.2480
13381TIP3    H161558   0.396   5.361  17.199 -0.8040  1.9028  0.7585
13381TIP3    H261559   0.482   5.434  17.300  1.4333 -2.0146  1.8113
13382TIP3   OH261560   0.886   1.357   2.594 -0.0967  0.5253  0.1812
13382TIP3    H161561   0.934   1.307   2.528  0.0546  0.1557  0.5745
13382TIP3    H261562   0.939   1.349   2.674 -0.3055  0.9288  0.3642
13383TIP3   OH261563   6.421   3.196  13.933  0.6857 -1.0596 -0.3153
13383TIP3    H161564   6.389   3.112  13.902  0.9430 -0.8034 -1.3063
13383TIP3    H261565   6.376   3.211  14.016  0.4214 -2.0367 -0.2855
13384TIP3   OH261566   0.905   1.521  15.256  0.1232 -0.5370 -0.5802
13384TIP3    H161567   0.932   1.517  15.347  0.4864  0.2181 -0.6477
13384TIP3    H261568   0.810   1.538  15.260  0.4931  1.6516 -0.3248
13385TIP3   OH261569   3.128   4.600  10.863  0.1754  0.2592 -0.0412
13385TIP3    H161570   3.061   4.571  10.925 -0.2918 -1.5663 -1.3657
13385TIP3    H261571   3.083   4.663  10.806 -0.5415 -1.2376 -1.1570
13386TIP3   OH261572   6.407   1.337   1.850 -0.2556  0.1270 -0.5212
13386TIP3    H161573   6.441   1.258   1.892 -0.6855  0.1002 -0.2245
13386TIP3    H261574   6.401   1.402   1.920 -1.9225 -0.2159 -0.3150
13387TIP3   OH261575   2.624   3.973  16.539 -0.0555  0.3244  0.0490
13387TIP3    H161576   2.600   3.940  16.453  1.1596  0.3720 -0.3156
13387TIP3    H261577   2.716   3.999  16.530 -0.1078  0.9149  1.1815
13388TIP3   OH261578   3.097   6.770   1.840  0.0636 -0.5348  0.1423
13388TIP3    H161579   3.037   6.840   1.869  0.5662 -0.1863  0.3441
13388TIP3    H261580   3.039   6.703   1.803 -0.4509 -0.1760  0.2880
13389TIP3   OH261581   6.139   1.653   5.717  0.0490  0.2048  0.1488
13389TIP3    H161582   6.097   1.568   5.733  0.8798 -0.0951  0.7736
13389TIP3    H261583   6.228   1.642   5.751 -0.7699  2.3445  3.1123
13390TIP3   OH261584   4.728   2.562   5.433 -0.0582  0.2190  0.0005
13390TIP3    H161585   4.680   2.536   5.354  0.2033 -2.1642  0.5876
13390TIP3    H261586   4.728   2.657   5.431 -3.4140  0.2335 -0.8515
13391TIP3   OH261587   2.757   0.754   0.889  0.1770 -0.0292  0.6046
13391TIP3    H161588   2.830   0.781   0.945  0.3198  0.0368  0.3857
13391TIP3    H261589   2.754   0.659   0.898  0.9184 -0.1276 -0.1607
13392TIP3   OH261590   0.477   0.863   0.971  0.1063 -0.4383 -0.0233
13392TIP3    H161591   0.392   0.822   0.957 -1.1409  0.9918  2.9759
13392TIP3    H261592   0.467   0.951   0.935 -0.3153  0.3520  1.9898
13393TIP3   OH261593   2.183   2.368   1.859 -0.6097 -0.3580  0.2632
13393TIP3    H161594   2.102   2.410   1.829  0.5646  0.9003 -1.2113
13393TIP3    H261595   2.237   2.363   1.780  1.0581 -0.4662  1.4074
13394TIP3   OH261596   3.008   5.334  17.210 -0.3678  0.5285 -0.2130
13394TIP3    H161597   3.063   5.256  17.216 -1.4858 -0.2865 -0.3710
13394TIP3    H261598   2.921   5.304  17.237 -0.7200  1.8139  0.1140
13395TIP3   OH261599   1.473   2.002  13.883 -0.3291 -0.3462 -0.9478
13395TIP3    H161600   1.554   1.952  13.872 -0.0621 -0.3142  0.6881
13395TIP3    H261601   1.405   1.947  13.844 -0.0420 -2.0261  0.8261
13396TIP3   OH261602   0.235   3.309   2.841 -0.3416  0.3091  0.2682
13396TIP3    H161603   0.321   3.350   2.838 -0.2439  0.0795 -0.0516
13396TIP3    H261604   0.194   3.330   2.757 -1.1132  1.5227  0.9319
13397TIP3   OH261605   2.824   4.451   2.862 -0.4568 -1.1624  0.0432
13397TIP3    H161606   2.757   4.465   2.928 -0.7357 -0.6580 -0.3356
13397TIP3    H261607   2.829   4.535   2.816  0.3507 -1.2341 -0.0032
13398TIP3   OH261608   6.257   6.087   1.231  0.0023  0.3592 -0.2807
13398TIP3    H161609   6.169   6.056   1.210  0.7921 -1.3196 -1.2602
13398TIP3    H261610   6.261   6.087   1.326 -1.2208  0.9400 -0.2245
13399TIP3   OH261611   6.515   5.454   5.099  0.3693 -0.6454 -0.0854
13399TIP3    H161612   6.436   5.508   5.104 -0.1867 -1.1256 -2.8257
13399TIP3    H261613   6.482   5.366   5.078  1.5908 -0.9248 -0.8790
13400TIP3   OH261614   3.331   0.189   3.957 -0.9073 -0.5716 -0.4331
13400TIP3    H161615   3.373   0.103   3.957  0.0730 -0.1037  1.0811
13400TIP3    H261616   3.309   0.205   4.048 -0.1435  1.2421 -0.5498
13401TIP3   OH261617   6.290   1.083   1.275 -1.0003  0.4687  0.1524
13401TIP3    H161618   6.202   1.118   1.266 -0.9340  0.3135 -1.2062
13401TIP3    H261619   6.342   1.134   1.212 -0.2585  0.0964  0.4564
13402TIP3   OH261620   1.866   1.596  13.638 -0.5453  0.1526 -0.5982
13402TIP3    H161621   1.872   1.691  13.653 -0.4764  0.0381  0.0935
13402TIP3    H261622   1.772   1.577  13.646 -0.6696  0.3028 -1.6100
13403TIP3   OH261623   5.789   3.861  16.542 -0.0244  0.7683  0.1581
13403TIP3    H161624   5.828   3.927  16.485 -0.4249  0.3492 -0.6205
13403TIP3    H261625   5.825   3.778  16.510  0.3579  0.6027  1.0328
13404TIP3   OH261626   4.388   3.606  12.852 -0.2679  0.3895  0.0230
13404TIP3    H161627   4.333   3.528  12.849 -0.9951  0.8733  0.4531
13404TIP3    H261628   4.477   3.573  12.853 -0.5294 -0.4005 -1.2745
13405TIP3   OH261629   5.085   3.906  15.109 -0.3698 -0.0913  0.6155
13405TIP3    H161630   5.014   3.937  15.054 -1.0055  1.5617  2.3292
13405TIP3    H261631   5.112   3.982  15.160  2.2943 -0.8026  0.3951
13406TIP3   OH261632   6.548   3.891  11.412 -0.0465  0.6398  0.7499
13406TIP3    H161633   6.513   3.848  11.490 -0.3351  0.0858  0.3252
13406TIP3    H261634   6.642   3.898  11.428  0.2660 -1.6449  0.1491
13407TIP3   OH261635   6.495   1.675  13.309  0.7483  0.2207  0.3728
13407TIP3    H161636   6.462   1.726  13.235  1.2932  3.0506  2.0202
13407TIP3    H261637   6.567   1.624  13.272 -0.3219  0.0030 -1.4848
13408TIP3   OH261638   5.251   5.593   3.934 -0.0631 -0.6598 -0.0829
13408TIP3    H161639   5.305   5.522   3.969  1.5850  0.7404  0.3112
13408TIP3    H261640   5.284   5.671   3.978 -3.3014  0.0949  1.1135
13409TIP3   OH261641   5.104   5.635   4.814 -0.0739 -0.5323 -0.3509
13409TIP3    H161642   5.190   5.673   4.797 -0.5947  0.5371 -0.6443
13409TIP3    H261643   5.078   5.596   4.730 -0.5079  0.4501 -0.6882
13410TIP3   OH261644   0.469   6.547   5.498  0.2717  0.1568 -0.1539
13410TIP3    H161645   0.559   6.577   5.482  0.3421  0.4331  0.7180
13410TIP3    H261646   0.416   6.594   5.434  0.7868 -0.2923 -0.9355
13411TIP3   OH261647   0.160   0.624   4.899 -0.0472  0.3811  0.8049
13411TIP3    H161648   0.248   0.605   4.866 -0.8734 -3.4989  0.6315
13411TIP3    H261649   0.170   0.625   4.994  0.2712  0.5678  0.7736
13412TIP3   OH261650   6.435   4.163  12.365 -0.1217 -0.3782  0.0395
13412TIP3    H161651   6.408   4.222  12.295 -1.3322 -0.0834  0.7396
13412TIP3    H261652   6.528   4.147  12.348  0.3256  1.9856  0.0213
13413TIP3   OH261653   0.905   0.540  16.673  0.3853  0.4989  0.0525
13413TIP3    H161654   0.874   0.631  16.665  2.9031  1.6936  2.9314
13413TIP3    H261655   0.847   0.501  16.739 -1.1530 -0.2697 -1.6939
13414TIP3   OH261656   6.663   3.359  16.640  0.5267  0.1334 -0.4941
13414TIP3    H161657   6.573   3.361  16.607  0.0698 -0.1114  0.7200
13414TIP3    H261658   6.715   3.401  16.571 -0.8358  2.3923 -0.2031
13415TIP3   OH261659   1.731   6.455  13.656  0.2944 -0.5806 -0.0514
13415TIP3    H161660   1.790   6.412  13.719 -0.5452  0.0026  1.1496
13415TIP3    H261661   1.664   6.389  13.639 -0.7912  0.0817  1.5125
13416TIP3   OH261662   6.784   3.912  13.984 -0.2200 -0.0916 -0.7008
13416TIP3    H161663   6.774   3.972  14.058  0.6951 -1.1245  0.2932
13416TIP3    H261664   6.872   3.929  13.951 -1.5792  2.2227 -3.2772
13417TIP3   OH261665   6.114   3.838  12.490 -0.4177 -0.8873  0.1050
13417TIP3    H161666   6.074   3.806  12.409  0.5656 -3.5834  0.6589
13417TIP3    H261667   6.204   3.807  12.486  0.6886  2.1027  0.5582
13418TIP3   OH261668   6.219   3.538  13.110  0.1817  0.2563 -0.8434
13418TIP3    H161669   6.137   3.544  13.158 -0.6673  0.5606 -2.2995
13418TIP3    H261670   6.196   3.495  13.027  1.9650 -2.0544 -0.2130
13419TIP3   OH261671   1.889   3.634  11.604  0.0821 -0.0396  0.0998
13419TIP3    H161672   1.824   3.704  11.615  0.4710  0.3582 -0.0896
13419TIP3    H261673   1.909   3.635  11.510 -1.2056 -1.5814 -0.2102
13420TIP3   OH261674   0.102   3.209   4.491 -0.3892 -0.8213 -0.0767
13420TIP3    H161675   0.101   3.282   4.429 -0.7107  0.0203  0.8987
13420TIP3    H261676   0.104   3.250   4.578 -0.2372 -1.9702  0.4858
13421TIP3   OH261677   2.217   4.061   2.005  0.0526  0.1073 -0.0152
13421TIP3    H161678   2.150   4.056   1.936  0.5633  0.1024 -0.5095
13421TIP3    H261679   2.243   4.153   2.006 -1.0536  0.4311  1.2236
13422TIP3   OH261680   0.789   4.231  10.990 -0.2829  0.0243  0.4043
13422TIP3    H161681   0.813   4.324  10.985  0.0167 -0.1823 -3.7228
13422TIP3    H261682   0.696   4.229  10.970  0.5141 -0.7903 -3.7990
13423TIP3   OH261683   5.390   1.838  14.508 -0.7487  0.2695  0.4722
13423TIP3    H161684   5.368   1.919  14.461  1.1222  1.4881  1.6245
13423TIP3    H261685   5.468   1.805  14.463 -0.9964 -0.4334  0.5532
13424TIP3   OH261686   3.851   3.221   0.100  0.1262  0.3536  0.3938
13424TIP3    H161687   3.897   3.175   0.170 -0.6181  0.7715  1.1577
13424TIP3    H261688   3.915   3.285   0.068  0.8826 -0.6273 -0.1287
13425TIP3   OH261689   1.725   4.937  14.480  0.2213 -0.4207  0.3935
13425TIP3    H161690   1.756   4.878  14.412 -0.2426 -2.5899  2.0163
13425TIP3    H261691   1.780   4.916  14.556 -0.5478  0.6099  1.2443
13426TIP3   OH261692   3.885   0.529   4.880  0.0757  0.0102  0.0771
13426TIP3    H161693   3.859   0.491   4.796  2.5182  1.1683 -1.2637
13426TIP3    H261694   3.878   0.456   4.942  0.1031 -1.3694 -1.5106
13427TIP3   OH261695   2.872   3.786   0.705 -0.1950  0.5019 -0.0203
13427TIP3    H161696   2.928   3.729   0.652  0.2304  0.5134  0.4146
13427TIP3    H261697   2.924   3.865   0.719  0.4149 -0.2077  1.9191
13428TIP3   OH261698   1.599   2.996  15.034  0.4292 -0.4125  0.0703
13428TIP3    H161699   1.556   3.041  14.961  1.0171 -0.7393 -0.4772
13428TIP3    H261700   1.547   2.916  15.046  1.1828 -1.0585 -0.9279
13429TIP3   OH261701   2.307   5.761  14.069 -0.4202  0.5104 -0.6626
13429TIP3    H161702   2.386   5.713  14.045 -1.3857 -1.7733  0.5903
13429TIP3    H261703   2.280   5.805  13.988  0.2892 -1.3657 -1.9556
13430TIP3   OH261704   5.691   5.446  14.447 -0.2171 -0.3269 -0.0292
13430TIP3    H161705   5.658   5.498  14.520  0.2694  0.6174 -0.4554
13430TIP3    H261706   5.621   5.449  14.382 -0.3692 -0.5767  0.1239
13431TIP3   OH261707   3.341   0.383   4.240  0.3994  0.2687  0.2207
13431TIP3    H161708   3.307   0.445   4.305 -1.1992  1.4503 -1.6937
13431TIP3    H261709   3.426   0.418   4.215  0.0179  1.0442  0.0145
13432TIP3   OH261710   4.103   4.839   5.311 -0.0633  0.5253  0.3688
13432TIP3    H161711   4.171   4.846   5.243  1.0563  2.0686  1.6182
13432TIP3    H261712   4.121   4.755   5.353  0.9753  0.8447  0.5798
13433TIP3   OH261713   0.011   3.136   5.350 -0.4170  0.3762 -0.2060
13433TIP3    H161714   0.082   3.167   5.406 -2.4636  0.3321  2.5808
13433TIP3    H261715  -0.040   3.214   5.330 -0.4584  0.1795 -0.8721
13434TIP3   OH261716   3.072   6.417  14.760  0.4474  0.5528  0.0205
13434TIP3    H161717   2.985   6.450  14.739  0.2784 -0.3057 -0.6201
13434TIP3    H261718   3.131   6.478  14.715  0.1612  0.5804 -0.3196
13435TIP3   OH261719   3.439   3.335   0.640 -0.0463  0.5455  0.2901
13435TIP3    H161720   3.396   3.413   0.604  1.2429  1.7477  1.2847
13435TIP3    H261721   3.370   3.269   0.644 -0.9569  1.3611 -1.3784
13436TIP3   OH261722   1.357   5.840  14.107  0.3765 -0.3485 -0.0066
13436TIP3    H161723   1.412   5.861  14.031  1.4261 -1.1434  0.5230
13436TIP3    H261724   1.342   5.746  14.099  1.0371 -0.5544  1.1246
13437TIP3   OH261725   6.733   3.795  10.784 -0.0688  0.0370 -0.2228
13437TIP3    H161726   6.828   3.796  10.769 -0.6135  1.0735 -4.0352
13437TIP3    H261727   6.706   3.706  10.763  0.0217 -0.2479  0.8279
13438TIP3   OH261728   0.190   4.015  15.857  0.8058  0.0414 -0.9475
13438TIP3    H161729   0.165   4.050  15.772  1.5024  1.2109 -0.6786
13438TIP3    H261730   0.285   4.018  15.859  0.7729  1.0381  0.2720
13439TIP3   OH261731   6.226   0.299  15.069  0.4530  0.0755 -0.3538
13439TIP3    H161732   6.150   0.305  15.011  0.8969  0.1959 -0.9289
13439TIP3    H261733   6.299   0.326  15.014  0.7366  1.1807  0.5556
13440TIP3   OH261734   3.900   5.965   2.144  0.2868 -0.5429 -0.3318
13440TIP3    H161735   3.869   6.009   2.065  0.8851  0.4419 -0.0328
13440TIP3    H261736   3.946   6.034   2.193  1.1087 -1.4661  0.2171
13441TIP3   OH261737   5.912   3.140   5.150 -0.2737 -0.4323  0.3241
13441TIP3    H161738   5.993   3.099   5.180  0.8059  1.6321  0.3119
13441TIP3    H261739   5.863   3.157   5.230  0.8949  1.5418  0.6464
13442TIP3   OH261740   4.430   4.705  12.474 -0.4055  0.3261  0.0837
13442TIP3    H161741   4.458   4.648  12.546  0.7999 -0.2054 -0.7909
13442TIP3    H261742   4.354   4.661  12.437 -0.1206 -0.1867  0.0925
13443TIP3   OH261743   2.146   2.147  16.325 -0.1271  0.0797  0.1972
13443TIP3    H161744   2.131   2.173  16.234 -0.0345  2.1779  0.7552
13443TIP3    H261745   2.214   2.080  16.320 -0.7883 -0.4965 -1.3474
13444TIP3   OH261746   5.022   6.241   5.856  0.4098 -0.1321 -0.1687
13444TIP3    H161747   4.956   6.205   5.916  0.5294  0.9089  0.6050
13444TIP3    H261748   5.101   6.247   5.909  0.5746  0.5936 -0.4942
13445TIP3   OH261749   1.261   4.723   3.327 -0.6581  0.5531 -0.1763
13445TIP3    H161750   1.297   4.682   3.405  0.5398  2.4137  0.2888
13445TIP3    H261751   1.201   4.658   3.290  0.2790 -1.1035  1.1785
13446TIP3   OH261752   5.742   2.945  16.166  0.2236 -0.7111 -0.4321
13446TIP3    H161753   5.761   2.876  16.102 -0.5610  0.2704 -1.7577
13446TIP3    H261754   5.702   3.015  16.114 -0.2741  0.1778  1.1192
13447TIP3   OH261755   5.911   2.784  14.195  0.3323 -0.1935  0.2070
13447TIP3    H161756   5.832   2.739  14.166 -0.5184  1.4731 -0.0932
13447TIP3    H261757   5.910   2.774  14.291  0.4031 -1.2105  0.1040
13448TIP3   OH261758   5.539   2.795   2.300 -1.1812 -0.2923  0.2831
13448TIP3    H161759   5.603   2.832   2.362 -0.2119 -0.7712 -0.4154
13448TIP3    H261760   5.457   2.839   2.322 -0.7111  0.0271  1.4805
13449TIP3   OH261761   6.684   2.654  15.496  0.3452 -0.0849  0.0903
13449TIP3    H161762   6.653   2.742  15.518  0.2691 -0.4495  1.4800
13449TIP3    H261763   6.765   2.644  15.546  0.6001 -0.6240 -0.4343
13450TIP3   OH261764   6.679   0.382  14.797  0.3635  0.6218 -0.8371
13450TIP3    H161765   6.686   0.472  14.828  1.5649  0.7673 -1.4921
13450TIP3    H261766   6.759   0.368  14.745 -0.3503 -0.4530 -1.6715
13451TIP3   OH261767   6.774   0.796   2.341 -0.2744 -0.2247  0.2346
13451TIP3    H161768   6.717   0.810   2.266 -0.1515 -0.0689  0.1694
13451TIP3    H261769   6.820   0.879   2.352 -1.7277  0.4267  1.6990
13452TIP3   OH261770   3.016   2.244  12.355 -0.8213 -0.5021 -0.0260
13452TIP3    H161771   2.930   2.238  12.315 -0.8257 -2.6992  0.2495
13452TIP3    H261772   3.074   2.196  12.295 -0.2413 -1.0908  0.9884
13453TIP3   OH261773   1.602   4.726  14.971 -0.1593 -0.5011 -0.1523
13453TIP3    H161774   1.515   4.743  14.934 -0.5766  2.0143  1.8387
13453TIP3    H261775   1.639   4.813  14.986  1.4464 -1.4911  1.9261
13454TIP3   OH261776   5.058   0.341   1.777 -0.7781 -0.0898  0.0205
13454TIP3    H161777   5.061   0.245   1.775 -0.2036 -0.0907  0.7114
13454TIP3    H261778   5.150   0.368   1.783 -1.0058  0.4625  1.1938
13455TIP3   OH261779   5.632   4.262  16.356 -0.6620  0.2634 -0.5095
13455TIP3    H161780   5.617   4.229  16.444 -1.7322  0.2128 -0.7028
13455TIP3    H261781   5.547   4.253  16.312 -0.7693  2.5218 -0.8195
13456TIP3   OH261782   1.053   4.098   0.653 -0.3178  0.5124  0.3893
13456TIP3    H161783   1.008   4.019   0.624 -0.0637  0.0859  1.1602
13456TIP3    H261784   1.131   4.101   0.598 -0.8546  0.8006 -0.3690
13457TIP3   OH261785   3.451   0.305  14.955 -0.5028 -0.2898 -0.0790
13457TIP3    H161786   3.540   0.286  14.984  0.1950  1.8135 -0.7166
13457TIP3    H261787   3.428   0.233  14.897  0.3696 -1.4005  0.9323
13458TIP3   OH261788   1.323   2.349  11.203 -0.2339  0.6096  0.4439
13458TIP3    H161789   1.249   2.410  11.208 -1.2852 -0.5432 -0.4060
13458TIP3    H261790   1.322   2.319  11.112  0.3456 -0.5663  0.8194
13459TIP3   OH261791   2.977   1.097   1.381 -0.1938  0.3526  0.0504
13459TIP3    H161792   2.988   1.045   1.461  0.5864  1.6441  0.7979
13459TIP3    H261793   2.934   1.177   1.410 -0.7777  0.4200 -0.9889
13460TIP3   OH261794   2.982   1.575   2.898 -0.1226  0.7231 -0.0443
13460TIP3    H161795   2.918   1.539   2.960 -0.1074  1.8973  0.6614
13460TIP3    H261796   3.059   1.594   2.951 -0.2445  2.1043 -0.3406
13461TIP3   OH261797   5.192   4.471  13.434 -0.1668 -0.3584  0.7502
13461TIP3    H161798   5.112   4.481  13.486 -0.2020 -2.5791  1.1864
13461TIP3    H261799   5.163   4.423  13.357  0.6216 -0.5515  0.5794
13462TIP3   OH261800   2.000   2.888  12.059 -0.2254  0.1121 -0.2199
13462TIP3    H161801   2.016   2.840  12.140  0.3504  0.8109  0.0848
13462TIP3    H261802   2.082   2.883  12.010  0.1143  1.4815  0.1867
13463TIP3   OH261803   3.864   4.551   2.640 -0.0173  0.1143 -0.6686
13463TIP3    H161804   3.956   4.526   2.654 -0.1274  0.0073 -0.1388
13463TIP3    H261805   3.836   4.589   2.723 -0.6954 -0.6058 -0.5601
13464TIP3   OH261806   5.526   0.331  12.933  0.1915 -0.0249  1.1027
13464TIP3    H161807   5.461   0.341  12.864 -0.0318  0.7925  1.4307
13464TIP3    H261808   5.551   0.239  12.928  1.1473  0.3280 -0.9088
13465TIP3   OH261809   5.021   2.110  13.938  0.5946  0.1414  0.3003
13465TIP3    H161810   5.004   2.046  13.869 -0.8655 -1.1650  1.8377
13465TIP3    H261811   4.943   2.166  13.938  0.8977  0.5653  0.4330
13466TIP3   OH261812   1.505   3.993   6.066  0.0784 -0.3189 -0.1954
13466TIP3    H161813   1.520   4.024   6.156  0.2168  0.6541 -0.5455
13466TIP3    H261814   1.505   3.898   6.073 -0.2434 -0.2469  0.8964
13467TIP3   OH261815   2.523   3.743  14.811 -0.2439  0.2667 -0.1979
13467TIP3    H161816   2.614   3.754  14.838 -0.4765  2.2207 -0.1154
13467TIP3    H261817   2.501   3.654  14.836  0.5032  0.9799  3.2760
13468TIP3   OH261818   5.299   1.155   3.882  0.0276 -0.1603  0.0188
13468TIP3    H161819   5.320   1.129   3.972  1.3244 -1.5313 -0.6602
13468TIP3    H261820   5.205   1.173   3.884 -0.3250 -1.9958  1.2201
13469TIP3   OH261821   1.623   6.419   2.144  0.3742  0.0704  0.0422
13469TIP3    H161822   1.557   6.355   2.167 -1.0912  1.8514  0.9455
13469TIP3    H261823   1.699   6.396   2.198 -0.3058 -0.5874  0.7261
13470TIP3   OH261824   5.321   2.348  14.513 -0.2204 -0.2495 -0.0410
13470TIP3    H161825   5.234   2.337  14.475  0.0546 -1.8475 -0.2578
13470TIP3    H261826   5.340   2.441  14.503 -0.3652 -0.5086 -3.3752
13471TIP3   OH261827   6.029   2.016  15.329  0.0959  0.5393  0.7466
13471TIP3    H161828   6.011   2.061  15.412  2.8088  0.1881  1.5824
13471TIP3    H261829   5.987   1.930  15.340 -2.3267  1.6271  0.4225
13472TIP3   OH261830   3.521   0.981  15.749 -0.0970 -0.6475 -0.4862
13472TIP3    H161831   3.583   0.911  15.770 -1.6669 -1.4217  1.7814
13472TIP3    H261832   3.438   0.935  15.733 -0.4840  0.4894 -1.8562
13473TIP3   OH261833   2.291   2.293  12.019 -0.0059 -0.2618 -0.6224
13473TIP3    H161834   2.362   2.331  12.071 -0.3117  1.7243 -1.5990
13473TIP3    H261835   2.335   2.255  11.943  0.3485 -2.3475  0.5885
13474TIP3   OH261836   6.021   0.157   4.594  0.8555 -0.3242 -0.0146
13474TIP3    H161837   6.060   0.174   4.509 -0.4950 -0.9441 -0.7699
13474TIP3    H261838   6.082   0.096   4.637  0.3362 -1.8965 -1.4775
13475TIP3   OH261839   5.734   1.333  15.827 -0.5101 -0.1449  0.9700
13475TIP3    H161840   5.713   1.256  15.879 -0.0851  0.5774  2.2164
13475TIP3    H261841   5.814   1.310  15.780 -2.1582 -1.6700 -1.2218
13476TIP3   OH261842   3.324   6.736   1.980 -0.3248  0.0939 -0.4225
13476TIP3    H161843   3.399   6.723   1.922 -0.4733  1.1075 -0.8503
13476TIP3    H261844   3.247   6.723   1.925 -0.4693 -0.8922  0.0041
13477TIP3   OH261845   5.120   3.486   2.553 -0.0167 -0.0310 -0.1416
13477TIP3    H161846   5.161   3.433   2.484  0.5462  0.8046 -0.4558
13477TIP3    H261847   5.026   3.471   2.542  0.0597  0.2573 -1.2340
13478TIP3   OH261848   5.670   1.529  12.320 -0.6258 -0.6446  0.0711
13478TIP3    H161849   5.675   1.617  12.358 -0.0682 -0.5207 -0.2894
13478TIP3    H261850   5.638   1.544  12.231  0.9952 -0.6552 -0.5319
13479TIP3   OH261851   0.720   5.933  12.214 -0.3578 -0.5154 -0.3587
13479TIP3    H161852   0.746   6.021  12.240 -0.4854 -0.7137  0.4510
13479TIP3    H261853   0.737   5.929  12.120  1.4736 -0.2728 -0.0384
13480TIP3   OH261854   4.998   3.131  12.156 -0.0799  0.4406  0.4350
13480TIP3    H161855   5.058   3.193  12.114 -0.2296  0.5854  0.4367
13480TIP3    H261856   4.999   3.054  12.099  0.5225  0.2332  0.7127
13481TIP3   OH261857   0.023   6.672   2.044  0.0450  0.6466 -0.2347
13481TIP3    H161858   0.022   6.577   2.034  0.5100  0.5435  0.5896
13481TIP3    H261859   0.109   6.691   2.081  0.3288  1.4942 -1.3326
13482TIP3   OH261860   4.790   3.588   0.002 -0.0901 -0.4135 -0.1411
13482TIP3    H161861   4.829   3.606   0.088  0.2568  1.5407 -0.6864
13482TIP3    H261862   4.837   3.645  -0.058 -2.3817  0.4466 -1.1477
13483TIP3   OH261863   6.761   3.370   5.175  0.7554 -0.2004  0.4829
13483TIP3    H161864   6.792   3.457   5.149 -2.4073  0.8880  0.0977
13483TIP3    H261865   6.766   3.318   5.095 -0.1000  0.4805 -0.0270
13484TIP3   OH261866   5.640   5.728  15.885  0.2462 -0.0107  0.3841
13484TIP3    H161867   5.707   5.784  15.923  0.1742  0.0581  0.4087
13484TIP3    H261868   5.607   5.676  15.958  1.3439 -1.1405  0.0906
13485TIP3   OH261869   5.230   4.835   1.728 -0.1210 -0.2119  0.2201
13485TIP3    H161870   5.151   4.852   1.779 -0.4528  1.7220 -0.8695
13485TIP3    H261871   5.302   4.860   1.785 -0.1895 -2.9389  1.5985
13486TIP3   OH261872   6.125   3.862  13.053 -0.1662 -0.0344 -0.3941
13486TIP3    H161873   6.032   3.839  13.061  0.2571 -1.1131  2.0383
13486TIP3    H261874   6.166   3.818  13.127  1.9651  2.1913 -0.2006
13487TIP3   OH261875   5.972   5.532  11.374 -0.2715 -0.1748  0.4676
13487TIP3    H161876   5.985   5.469  11.445 -0.7739 -1.2704 -0.3899
13487TIP3    H261877   5.895   5.500  11.327  0.0118  0.5625 -0.5222
13488TIP3   OH261878   0.062   0.676   4.652  0.4684 -0.7016 -0.4635
13488TIP3    H161879   0.091   0.634   4.733  2.1395  0.6707 -0.3327
13488TIP3    H261880   0.138   0.672   4.594 -0.4995 -1.0774 -1.7496
13489TIP3   OH261881   4.514   1.174  11.994  0.7136 -0.3961 -0.2625
13489TIP3    H161882   4.448   1.114  11.959  1.6817 -1.8054  0.2862
13489TIP3    H261883   4.513   1.158  12.088  1.3161  0.1082 -0.1709
13490TIP3   OH261884   3.414   1.698   0.492  0.1973 -0.2403 -0.0096
13490TIP3    H161885   3.394   1.734   0.405 -1.4162  0.5526  0.6702
13490TIP3    H261886   3.491   1.642   0.477 -1.1459 -1.5779 -2.3050
13491TIP3   OH261887   5.040   2.015   1.844 -0.6513 -0.9630  0.3517
13491TIP3    H161888   4.992   2.090   1.809 -1.1363 -2.1171 -1.5230
13491TIP3    H261889   5.132   2.041   1.840 -0.8343 -0.3668 -0.0218
13492TIP3   OH261890   1.708   6.059   5.210 -0.4394 -0.1398 -0.1678
13492TIP3    H161891   1.713   6.016   5.125 -1.0451  0.5984 -0.5836
13492TIP3    H261892   1.762   6.138   5.200 -0.1358 -0.2907  0.2782
13493TIP3   OH261893   4.342   5.136   5.173  0.2544  0.3206  0.7034
13493TIP3    H161894   4.306   5.144   5.262 -0.5441 -1.0702  0.5228
13493TIP3    H261895   4.436   5.151   5.184  0.0074  1.3306  1.5932
13494TIP3   OH261896   3.292   3.977  10.646  0.1891 -0.5220  0.2199
13494TIP3    H161897   3.353   3.995  10.718 -0.2898  1.1408  0.2317
13494TIP3    H261898   3.346   3.935  10.579  0.9968 -0.5978  0.9026
13495TIP3   OH261899   4.162   2.306  15.482 -0.4964 -0.3068  0.1180
13495TIP3    H161900   4.215   2.384  15.495 -1.4721  0.4925 -0.6123
13495TIP3    H261901   4.211   2.254  15.418  0.2523 -0.4073  0.7601
13496TIP3   OH261902   4.685   3.269   6.620 -0.0248  0.1522 -0.1647
13496TIP3    H161903   4.700   3.348   6.568 -1.0164 -0.8338 -2.0271
13496TIP3    H261904   4.771   3.227   6.625  0.4078  1.0929  0.4207
13497TIP3   OH261905   0.565   4.296  13.058  0.2660 -0.1252  0.4440
13497TIP3    H161906   0.610   4.284  13.142 -0.5792 -1.2964  0.7510
13497TIP3    H261907   0.509   4.218  13.050 -1.1234  0.9272 -0.2713
13498TIP3   OH261908   3.859   6.189   5.285  0.0213  0.5030  0.2416
13498TIP3    H161909   3.764   6.201   5.279 -0.0551  0.2340  0.8399
13498TIP3    H261910   3.887   6.171   5.195 -0.2504  2.3327 -0.2303
13499TIP3   OH261911   0.012   5.246   6.582  1.1494  0.5354  0.0327
13499TIP3    H161912   0.078   5.235   6.513 -1.7082  1.4151 -2.9701
13499TIP3    H261913  -0.022   5.158   6.598 -0.7390  0.7486 -2.4259
13500TIP3   OH261914   6.725   1.360   2.083 -0.5853  0.2408  0.0712
13500TIP3    H161915   6.652   1.321   2.130  0.4369 -1.2296  0.4755
13500TIP3    H261916   6.796   1.363   2.147 -0.2079  1.3984 -0.3930
13501TIP3   OH261917   0.962   1.862   1.579  0.7954 -0.6805  0.0489
13501TIP3    H161918   0.981   1.783   1.529 -1.5323  0.0419 -2.0885
13501TIP3    H261919   0.887   1.837   1.634  0.1915 -0.0382 -0.4757
13502TIP3   OH261920   0.712   0.905  14.151 -0.4442  0.2864  0.0477
13502TIP3    H161921   0.802   0.904  14.182  0.1383  0.8800 -1.5651
13502TIP3    H261922   0.688   0.812  14.142  0.1152  0.1314  0.1596
13503TIP3   OH261923   6.778   3.011  12.846 -0.0515 -0.4744 -0.3989
13503TIP3    H161924   6.741   2.950  12.910 -0.2924  1.0267  0.9220
13503TIP3    H261925   6.729   2.993  12.766 -1.1125 -1.0448  0.3579
13504TIP3   OH261926   2.230   4.154   2.771  0.0056 -0.0595  0.0979
13504TIP3    H161927   2.241   4.114   2.685  1.1884  0.8149 -0.1690
13504TIP3    H261928   2.317   4.153   2.810  0.1182  2.3761  0.0009
13505TIP3   OH261929   6.652   4.599  16.208 -0.4991 -0.0088  0.6122
13505TIP3    H161930   6.613   4.575  16.124  0.3217  0.5431  0.0643
13505TIP3    H261931   6.746   4.586  16.196 -0.6148 -2.8451  2.4198
13506TIP3   OH261932   6.754   1.906   5.419  0.5077  0.3280  0.6568
13506TIP3    H161933   6.788   1.939   5.336  1.2027  0.4837  1.0017
13506TIP3    H261934   6.814   1.835   5.442 -0.6232 -0.7858  0.2184
13507TIP3   OH261935   0.544   3.428   5.370 -0.2198 -0.2520  0.2273
13507TIP3    H161936   0.523   3.372   5.445 -1.6238  2.3858  1.8887
13507TIP3    H261937   0.481   3.500   5.376 -0.2416  0.1167 -3.4185
13508TIP3   OH261938   4.105   1.302   2.222 -1.0626 -0.0463  0.1219
13508TIP3    H161939   4.018   1.264   2.212 -1.2638  0.9865 -2.4651
13508TIP3    H261940   4.158   1.263   2.153  0.5306 -0.5588  1.5761
13509TIP3   OH261941   2.059   5.705   5.085 -0.0981  0.4532  0.1340
13509TIP3    H161942   2.048   5.621   5.129 -0.2784 -0.1016 -0.9482
13509TIP3    H261943   1.987   5.759   5.118 -0.4658 -0.0826  0.2201
13510TIP3   OH261944   2.082   0.055  12.738 -0.4554 -0.3480 -0.1179
13510TIP3    H161945   2.171   0.037  12.708 -0.8721  0.1110 -1.6825
13510TIP3    H261946   2.027   0.031  12.664 -1.6849 -1.2174  1.0676
13511TIP3   OH261947   1.052   5.165   4.782  0.4950 -0.6658  0.4865
13511TIP3    H161948   1.113   5.237   4.771  1.2245 -0.8555  2.8772
13511TIP3    H261949   1.076   5.126   4.866 -3.3091 -0.3449  1.8248
13512TIP3   OH261950   3.889   6.328   1.073  0.1540 -0.0734  0.1951
13512TIP3    H161951   3.923   6.260   1.131  1.5024  0.1747 -0.2902
13512TIP3    H261952   3.794   6.325   1.086  0.4040 -0.2725  2.1301
13513TIP3   OH261953   4.155   6.599  14.324  0.3050  0.3174 -0.3692
13513TIP3    H161954   4.139   6.648  14.405  0.3977 -2.8999  1.7355
13513TIP3    H261955   4.249   6.607  14.309  0.3062  0.8318 -0.0925
13514TIP3   OH261956   5.274   3.212  11.660 -0.3471 -0.2303 -0.5811
13514TIP3    H161957   5.325   3.235  11.582 -1.3552  0.7403 -0.9703
13514TIP3    H261958   5.269   3.293  11.710  0.0819 -0.7937  0.3858
13515TIP3   OH261959   1.312   4.618   1.294 -0.1430 -0.0206  0.3785
13515TIP3    H161960   1.311   4.666   1.377 -1.3022  0.6042  0.0207
13515TIP3    H261961   1.272   4.533   1.315  1.0195 -0.4690  0.7992
13516TIP3   OH261962   5.727   1.601  15.130  0.4097 -0.1928 -0.4912
13516TIP3    H161963   5.740   1.563  15.043 -0.7446 -1.7193 -0.0174
13516TIP3    H261964   5.643   1.566  15.159  0.8954  0.1162  1.3534
13517TIP3   OH261965   5.920   4.095  16.469 -0.0121  0.0056 -0.2377
13517TIP3    H161966   5.923   4.065  16.378  0.0377 -1.1675  0.1419
13517TIP3    H261967   5.994   4.051  16.511 -0.0897  0.4701  0.3975
13518TIP3   OH261968   3.058   4.776  13.641  0.3319  0.0481  0.0812
13518TIP3    H161969   3.107   4.793  13.721  1.5626  0.4813 -0.7533
13518TIP3    H261970   2.967   4.766  13.671  0.4176  2.3372  1.2933
13519TIP3   OH261971   0.848   1.709   3.314 -0.6153 -0.0789 -0.2801
13519TIP3    H161972   0.773   1.724   3.256 -1.0264 -2.5396 -0.4600
13519TIP3    H261973   0.905   1.652   3.263  2.1195  2.8927 -0.6960
13520TIP3   OH261974   5.358   4.784  12.972  0.1000 -0.7931  0.3457
13520TIP3    H161975   5.334   4.771  13.064  1.8266 -0.4689  0.8630
13520TIP3    H261976   5.450   4.756  12.967  0.9567  2.0153 -0.6021
13521TIP3   OH261977   5.105   2.228   2.432 -0.5932 -0.8754  0.4528
13521TIP3    H161978   5.161   2.256   2.504  1.9096 -2.6686 -0.7028
13521TIP3    H261979   5.123   2.291   2.362 -0.2281 -1.2726  0.1848
13522TIP3   OH261980   2.357   0.272  14.504  0.0696 -0.3300  0.4493
13522TIP3    H161981   2.440   0.225  14.498  0.1053 -0.1792 -0.2702
13522TIP3    H261982   2.290   0.204  14.511  0.0934 -0.4873 -0.9054
13523TIP3   OH261983   2.624   2.032   3.396  1.2423  0.3099  0.5137
13523TIP3    H161984   2.626   2.125   3.375  0.0774  0.6508  1.8080
13523TIP3    H261985   2.572   2.027   3.477 -1.3474 -1.7503 -1.1788
13524TIP3   OH261986   4.793   0.118  15.234  0.2757  0.5691  0.4533
13524TIP3    H161987   4.744   0.200  15.223  0.3470  0.6486  0.7211
13524TIP3    H261988   4.805   0.085  15.145 -1.2857 -0.0505  0.4467
13525TIP3   OH261989   4.364   2.641  11.637 -0.3130 -0.4361  0.2351
13525TIP3    H161990   4.395   2.673  11.722  1.7844 -0.5972 -0.4302
13525TIP3    H261991   4.349   2.548  11.650  1.0137 -0.6645  0.1680
13526TIP3   OH261992   0.936   5.039  14.369  0.9379  0.0789  0.1699
13526TIP3    H161993   0.895   5.040  14.282  0.7298  1.1462  0.2732
13526TIP3    H261994   0.983   4.957  14.372  0.6384 -0.1382 -0.8204
13527TIP3   OH261995   5.560   1.044   3.849  0.1836 -0.2899  0.1774
13527TIP3    H161996   5.476   1.084   3.868 -0.1126 -0.9641  0.3197
13527TIP3    H261997   5.611   1.113   3.807 -0.1385  0.3769  0.8738
13528TIP3   OH261998   0.383   1.534   3.681  0.5428 -0.4636  0.4981
13528TIP3    H161999   0.461   1.577   3.646 -0.7269  2.0889  0.7523
13528TIP3    H262000   0.312   1.561   3.623 -0.3449 -1.9884  0.8451
13529TIP3   OH262001   5.231   6.550   3.922  0.3780 -0.2463 -0.2702
13529TIP3    H162002   5.237   6.480   3.986  3.7816 -0.3877 -0.6302
13529TIP3    H262003   5.235   6.631   3.973  1.6631 -0.3540 -0.1918
13530TIP3   OH262004   0.988   6.647  12.614 -0.7253 -0.5656  0.4835
13530TIP3    H162005   1.062   6.641  12.675  0.3821 -0.1626 -0.8089
13530TIP3    H262006   0.935   6.570  12.635 -0.0995 -0.7173  1.6128
13531TIP3   OH262007   4.838   6.741  13.816 -0.2745  0.0083 -0.4229
13531TIP3    H162008   4.871   6.830  13.804 -0.2086  0.0610  0.1318
13531TIP3    H262009   4.855   6.698  13.733  2.7269 -0.4591  0.3549
13532TIP3   OH262010   1.569   6.768   6.046 -0.2575  0.5743 -0.1940
13532TIP3    H162011   1.521   6.844   6.080  0.1919  0.6154  0.3437
13532TIP3    H262012   1.593   6.718   6.124  2.2549  1.5427 -0.3151
13533TIP3   OH262013   0.441   4.393  11.382 -0.7096 -0.1963  0.4384
13533TIP3    H162014   0.363   4.425  11.427  0.0317 -0.9083  2.3013
13533TIP3    H262015   0.512   4.448  11.416 -0.0243 -1.2259  0.6983
13534TIP3   OH262016   6.379   2.195  14.134  0.7011  0.4075  0.4698
13534TIP3    H162017   6.358   2.233  14.048  2.7769  1.5149  0.4305
13534TIP3    H262018   6.294   2.168  14.169 -0.2345  0.3954 -1.7172
13535TIP3   OH262019   0.095   4.661  17.079 -0.2609 -0.2340 -0.6098
13535TIP3    H162020   0.092   4.641  16.985 -0.0018  0.4807 -0.7742
13535TIP3    H262021   0.160   4.600  17.114  0.1591 -0.0270 -1.0160
13536TIP3   OH262022   1.293   6.514  12.495 -0.3525 -0.0980 -0.1273
13536TIP3    H162023   1.262   6.511  12.585 -0.8769 -1.2458 -0.3337
13536TIP3    H262024   1.223   6.559  12.447 -0.8990 -1.0695 -0.2657
13537TIP3   OH262025   0.823   5.387  16.536 -0.4188 -0.0904  0.4907
13537TIP3    H162026   0.804   5.380  16.443 -1.8871  2.7846  0.5404
13537TIP3    H262027   0.737   5.392  16.578  0.1722 -2.7694  2.1844
13538TIP3   OH262028   0.209   0.105  16.466  0.0078  0.7907  0.3003
13538TIP3    H162029   0.287   0.127  16.517 -0.4387  0.7533  1.0107
13538TIP3    H262030   0.168   0.190  16.448  0.5911  0.8636 -0.6805
13539TIP3   OH262031   0.951   2.034  16.267 -0.6853 -0.2191  0.2549
13539TIP3    H162032   1.003   2.088  16.326  1.2601 -0.3413 -1.2910
13539TIP3    H262033   0.887   1.991  16.323  0.0158  0.9735  2.0011
13540TIP3   OH262034   6.737   0.028  11.827  0.0048  0.2567  0.0215
13540TIP3    H162035   6.643   0.046  11.829  0.2558  1.8581 -1.4547
13540TIP3    H262036   6.756  -0.007  11.914 -1.8077  0.6714  0.6095
13541TIP3   OH262037   1.830   4.313  11.611 -0.1580  0.1750 -0.0209
13541TIP3    H162038   1.750   4.349  11.649 -1.0754 -1.2840 -0.5578
13541TIP3    H262039   1.800   4.256  11.540  1.3835  0.0176 -0.5663
13542TIP3   OH262040   6.605   3.319   0.296  0.3540 -0.5439 -0.7147
13542TIP3    H162041   6.610   3.305   0.390 -0.7151  1.6517 -0.3012
13542TIP3    H262042   6.650   3.243   0.258 -0.2027 -2.0456  1.4993
13543TIP3   OH262043   6.360   2.709  11.469 -0.2639 -0.0270  0.1742
13543TIP3    H162044   6.379   2.701  11.563 -1.2789 -1.0428  0.3114
13543TIP3    H262045   6.353   2.804  11.454  2.7678  0.2950  0.4991
13544TIP3   OH262046   1.179   4.228  11.338 -0.0229 -0.2578  0.4902
13544TIP3    H162047   1.148   4.263  11.422  0.1670  1.4216 -0.1161
13544TIP3    H262048   1.254   4.173  11.361  0.1498  0.3512  1.4085
13545TIP3   OH262049   2.469   6.582   2.747  0.1103 -0.2990  0.2401
13545TIP3    H162050   2.431   6.520   2.685  0.8459  0.4267 -0.9469
13545TIP3    H262051   2.558   6.550   2.762  0.1101 -0.1732  0.5233
13546TIP3   OH262052   4.575   2.110   1.765  0.4704  0.0500 -0.2785
13546TIP3    H162053   4.598   2.021   1.739  0.7717  0.1141 -0.2338
13546TIP3    H262054   4.495   2.100   1.817  1.5113 -0.3874  1.2772
13547TIP3   OH262055   6.280   6.487   2.688  0.2492  0.3561 -0.6450
13547TIP3    H162056   6.298   6.450   2.774 -0.0244  1.2499 -0.1959
13547TIP3    H262057   6.263   6.412   2.632  0.1782 -0.2126  0.1400
13548TIP3   OH262058   5.074   4.104  15.321 -0.3435  0.4976  0.3694
13548TIP3    H162059   4.998   4.049  15.339 -0.8794  1.0412 -0.2306
13548TIP3    H262060   5.047   4.161  15.249  0.2285  1.4936  0.9261
13549TIP3   OH262061   5.444   4.603   0.848  0.3898  0.5289  0.5619
13549TIP3    H162062   5.523   4.552   0.832 -0.0532  0.5002 -1.8591
13549TIP3    H262063   5.469   4.693   0.828 -0.3917  0.3932 -1.1883
13550TIP3   OH262064   6.019   6.276   1.022 -0.0318 -0.2241  0.2793
13550TIP3    H162065   5.960   6.243   0.954 -1.5324  0.1252  1.4006
13550TIP3    H262066   5.971   6.347   1.064  1.5161  0.6257  0.6798
13551TIP3   OH262067   5.672   2.063  14.515 -0.1855  0.0347  0.2626
13551TIP3    H162068   5.752   2.025  14.478  1.1675  1.3884  1.7514
13551TIP3    H262069   5.675   2.043  14.608 -2.1476 -0.8378  0.1746
13552TIP3   OH262070   6.715   5.530  16.283 -0.0732  0.0599  0.4931
13552TIP3    H162071   6.642   5.508  16.225 -1.8554  1.1005  2.2857
13552TIP3    H262072   6.718   5.625  16.283  2.1208  0.0282 -0.5128
13553TIP3   OH262073   4.155   3.101   2.322 -0.6294 -0.2684 -0.1400
13553TIP3    H162074   4.185   3.033   2.261  2.3440 -0.2413  1.2168
13553TIP3    H262075   4.133   3.054   2.402 -1.4315  0.0583 -0.1639
13554TIP3   OH262076   3.873   2.407  16.624  0.3361 -0.2658 -0.0419
13554TIP3    H162077   3.907   2.362  16.547 -1.1671  0.4302 -1.1299
13554TIP3    H262078   3.782   2.427  16.603  0.4899  1.8194  1.0470
13555TIP3   OH262079   5.695   1.281  16.630  0.0815  0.6982 -0.0885
13555TIP3    H162080   5.776   1.230  16.625  1.1527  2.4131 -0.5406
13555TIP3    H262081   5.709   1.340  16.704 -0.1236  2.0682 -1.1292
13556TIP3   OH262082   5.028   6.145   3.101 -0.6248 -0.4913  0.4875
13556TIP3    H162083   5.042   6.225   3.152  0.3394 -0.5720  0.3607
13556TIP3    H262084   4.957   6.099   3.146 -2.5349  1.3598 -0.5291
13557TIP3   OH262085   6.332   0.882   4.375 -0.0555  0.1320  1.0558
13557TIP3    H162086   6.379   0.958   4.409 -2.4658  0.9603  2.6930
13557TIP3    H262087   6.245   0.916   4.354 -0.4151 -1.6796 -0.4271
13558TIP3   OH262088   2.251   1.063   3.311 -0.1220 -0.1202 -0.1599
13558TIP3    H162089   2.313   1.134   3.291 -1.1128  0.7278 -0.2621
13558TIP3    H262090   2.196   1.057   3.233 -1.4323  0.4837  0.6963
13559TIP3   OH262091   0.976   2.441  11.360  0.0693  0.4615  0.4781
13559TIP3    H162092   1.013   2.446  11.271 -0.1950  0.8494  0.3886
13559TIP3    H262093   1.045   2.400  11.412  0.3903  0.6126  0.1782
13560TIP3   OH262094   4.965   3.667   5.573 -0.3897  0.3712 -0.0466
13560TIP3    H162095   5.026   3.595   5.559  1.2579  1.8830 -0.8631
13560TIP3    H262096   4.890   3.647   5.516  0.0863 -0.6229 -0.3371
13561TIP3   OH262097   5.494   1.203  14.319 -0.3845 -0.0132 -0.4185
13561TIP3    H162098   5.512   1.122  14.367  0.6002 -0.3572 -1.3510
13561TIP3    H262099   5.525   1.186  14.230 -0.0814  1.4132 -0.5992
13562TIP3   OH262100   1.975   4.551  11.017 -0.0973 -0.4229  0.2183
13562TIP3    H162101   2.052   4.583  10.970  0.3622 -0.5597  0.8638
13562TIP3    H262102   1.927   4.501  10.951  0.5914 -0.7039 -0.0860
13563TIP3   OH262103   5.323   4.638  15.420  0.1501  0.3184  0.0371
13563TIP3    H162104   5.341   4.681  15.336 -1.6792 -0.6420 -0.8606
13563TIP3    H262105   5.384   4.564  15.421 -0.8070 -0.5152 -1.1290
13564TIP3   OH262106   1.376   0.424  14.288 -0.5503 -0.4234 -0.3017
13564TIP3    H162107   1.295   0.379  14.311 -0.2865 -0.7120  0.0687
13564TIP3    H262108   1.443   0.384  14.344 -0.3402  0.5244  0.1426
13565TIP3   OH262109   1.996   0.928  13.206  0.4497 -0.0957  0.0440
13565TIP3    H162110   2.046   0.900  13.130 -0.8017 -0.2578 -0.7288
13565TIP3    H262111   1.916   0.875  13.204  0.7462 -0.6777  1.9059
13566TIP3   OH262112   0.221   2.304   3.876  0.4471  0.2674 -0.2387
13566TIP3    H162113   0.158   2.376   3.876  1.2499  0.9830 -1.9754
13566TIP3    H262114   0.169   2.228   3.851  0.2308  0.8342 -1.5434
13567TIP3   OH262115   2.483   5.265  16.494  0.9234 -0.2804  1.0280
13567TIP3    H162116   2.551   5.224  16.441  1.4940  1.5933  0.2614
13567TIP3    H262117   2.485   5.357  16.468 -2.0392 -0.2214  0.8929
13568TIP3   OH262118   2.682   2.767   4.449 -0.4323  0.4660 -0.2879
13568TIP3    H162119   2.632   2.730   4.376 -0.3100 -1.6294  0.6608
13568TIP3    H262120   2.754   2.705   4.462  0.9922  2.1436 -0.0043
13569TIP3   OH262121   3.911   3.343  16.974 -0.1416 -0.1131 -0.8194
13569TIP3    H162122   3.996   3.353  17.016 -0.5595 -1.8687  0.5183
13569TIP3    H262123   3.863   3.423  16.998  0.9330  0.6370 -1.1520
13570TIP3   OH262124   3.883   0.263   3.347 -0.2222  0.5231 -0.3026
13570TIP3    H162125   3.837   0.208   3.411 -1.4244  0.9273 -0.8188
13570TIP3    H262126   3.973   0.231   3.350 -0.9886 -1.8480 -0.9715
13571TIP3   OH262127   3.636   1.163  17.121 -0.1464 -0.0311 -0.2885
13571TIP3    H162128   3.693   1.125  17.187 -0.9596 -0.1134  0.3754
13571TIP3    H262129   3.646   1.106  17.045  0.3181 -0.2911 -0.0315
13572TIP3   OH262130   2.563   6.372   1.956 -0.4614 -0.2996  0.8340
13572TIP3    H162131   2.572   6.277   1.948  0.8793  0.0598 -2.7111
13572TIP3    H262132   2.472   6.390   1.933  0.3642 -0.4042 -2.7522
13573TIP3   OH262133   3.504   5.532   5.742  0.1903  0.1156 -0.4336
13573TIP3    H162134   3.524   5.605   5.802  0.0031  0.2079 -0.4817
13573TIP3    H262135   3.538   5.455   5.786  0.1470  0.1982 -0.2549
13574TIP3   OH262136   2.269   1.387   0.342  0.6241  0.9804  0.2785
13574TIP3    H162137   2.180   1.356   0.320  0.2306  2.1661  0.1776
13574TIP3    H262138   2.309   1.404   0.257  0.1834  2.5539  0.3713
13575TIP3   OH262139   1.253   5.946   4.866  0.0197 -0.4585 -0.2262
13575TIP3    H162140   1.212   5.904   4.791 -1.8742  0.1678  0.4168
13575TIP3    H262141   1.277   6.033   4.835  0.7188 -0.7660 -0.5558
13576TIP3   OH262142   1.480   1.585   6.371  0.1685 -0.2732  0.0814
13576TIP3    H162143   1.498   1.615   6.460 -2.5414  1.5731  0.0499
13576TIP3    H262144   1.534   1.506   6.361  2.5494  0.9892  2.3925
13577TIP3   OH262145   2.231   0.877   2.806  0.5283  0.3985  0.2611
13577TIP3    H162146   2.187   0.805   2.761 -0.7439  0.4867  1.3250
13577TIP3    H262147   2.237   0.947   2.741 -0.2024  0.1064 -0.1219
13578TIP3   OH262148   5.281   1.745   4.137 -0.0565 -0.3658 -0.5348
13578TIP3    H162149   5.345   1.721   4.204 -0.0809  1.4520  0.1599
13578TIP3    H262150   5.253   1.661   4.100  1.2205 -1.2958  0.5436
13579TIP3   OH262151   6.609   3.250  17.093  0.6426 -0.3758 -0.2039
13579TIP3    H162152   6.563   3.190  17.035  0.0783 -0.0179 -0.1431
13579TIP3    H262153   6.689   3.205  17.118  2.0943  0.4469 -3.1952
13580TIP3   OH262154   5.443   0.141  16.801 -0.2258 -0.2217  0.0249
13580TIP3    H162155   5.400   0.185  16.727  0.6917  0.9838  0.1880
13580TIP3    H262156   5.375   0.086  16.839 -1.5279  1.3694  0.0594
13581TIP3   OH262157   3.297   4.996   3.760  0.1379 -0.3937 -0.1758
13581TIP3    H162158   3.355   5.022   3.689  0.0984 -0.4886 -0.2427
13581TIP3    H262159   3.238   4.931   3.721  1.2597 -1.7661  0.4050
13582TIP3   OH262160   5.887   3.080  12.505  0.3544  0.4732  0.4727
13582TIP3    H162161   5.848   3.166  12.522  0.3318  0.2831  1.4403
13582TIP3    H262162   5.931   3.089  12.421 -3.4201  0.1330 -1.6782
13583TIP3   OH262163   0.035   6.741  12.529 -0.3678  0.4228 -0.4275
13583TIP3    H162164   0.085   6.765  12.607 -1.5003  0.5108  0.2857
13583TIP3    H262165  -0.037   6.687  12.563 -0.4247 -0.1936 -1.5038
13584TIP3   OH262166   4.395   5.642  11.755 -0.2013 -0.5196  0.5050
13584TIP3    H162167   4.453   5.568  11.775 -1.2193 -1.1083  1.3822
13584TIP3    H262168   4.397   5.696  11.834 -0.2028 -0.1154  0.2283
13585TIP3   OH262169   3.321   3.465   3.828  0.5941 -0.1017 -0.2683
13585TIP3    H162170   3.400   3.413   3.840  1.3709  0.7927 -1.3959
13585TIP3    H262171   3.314   3.516   3.909  0.5724 -0.9465  0.2731
13586TIP3   OH262172   3.511   5.902   5.770 -0.2271  0.0679 -0.1610
13586TIP3    H162173   3.582   5.944   5.721  0.2805 -0.3956  0.1852
13586TIP3    H262174   3.459   5.976   5.803  0.1446  0.4082 -0.3257
13587TIP3   OH262175   0.609   5.571   0.260  0.3944 -0.1791 -0.0698
13587TIP3    H162176   0.593   5.641   0.323  1.3890 -0.1390  0.1588
13587TIP3    H262177   0.571   5.603   0.178  0.3557  0.3960  0.1705
13588TIP3   OH262178   6.740   4.606   3.909  0.3055  0.2778  0.2973
13588TIP3    H162179   6.660   4.626   3.861 -0.1166 -2.5365 -0.2923
13588TIP3    H262180   6.772   4.691   3.939 -0.8012  1.8664 -2.7473
13589TIP3   OH262181   1.888   3.013  13.023 -0.2768  0.0215  0.5300
13589TIP3    H162182   1.879   3.091  12.968 -1.8760 -0.1776  0.4923
13589TIP3    H262183   1.981   3.008  13.042 -0.0237  1.3863 -0.2916
13590TIP3   OH262184   4.880   0.561  14.289  0.2359  0.1063  0.2469
13590TIP3    H162185   4.909   0.547  14.199  0.8301 -0.6199  0.5473
13590TIP3    H262186   4.857   0.654  14.292  0.5663  0.2203 -0.5547
13591TIP3   OH262187   2.095   2.033   2.092 -0.3749 -0.4434  0.0038
13591TIP3    H162188   2.174   2.002   2.136  0.0335  0.0441 -0.3780
13591TIP3    H262189   2.104   2.128   2.090 -2.0369 -0.2065  1.9365
13592TIP3   OH262190   2.066   5.020   0.482  0.4678 -0.0124  0.7516
13592TIP3    H162191   1.974   4.995   0.487  0.4111  0.3663  1.7819
13592TIP3    H262192   2.068   5.098   0.426  0.0471  0.5079  1.4588
13593TIP3   OH262193   3.735   1.844   0.634 -0.3015  0.2554  0.2069
13593TIP3    H162194   3.802   1.908   0.610 -1.1640  1.2619  0.4299
13593TIP3    H262195   3.682   1.834   0.555  0.0104 -0.4138  0.0815
13594TIP3   OH262196   2.176   6.627  14.809 -0.2566 -0.1661  0.2008
13594TIP3    H162197   2.155   6.543  14.849  1.4443 -0.6071  0.2193
13594TIP3    H262198   2.124   6.631  14.730 -3.3698  0.5247  2.1897
13595TIP3   OH262199   3.799   3.137  12.356 -0.0733  0.5235  0.0239
13595TIP3    H162200   3.846   3.055  12.370 -0.5274 -0.0919 -1.9349
13595TIP3    H262201   3.845   3.200  12.411  1.5289 -0.6058  0.0198
13596TIP3   OH262202   4.474   4.687   2.639 -0.5382 -0.4247  0.2677
13596TIP3    H162203   4.382   4.709   2.651 -0.5602  1.2446 -2.4780
13596TIP3    H262204   4.503   4.653   2.724 -2.8655  1.9151  2.0543
13597TIP3   OH262205   2.455   4.698   4.809 -0.5969  0.2477 -0.3329
13597TIP3    H162206   2.410   4.668   4.730 -0.5898  1.3018 -0.7432
13597TIP3    H262207   2.405   4.774   4.839 -0.1273  0.3533  0.2058
13598TIP3   OH262208   1.192   4.629  11.454 -0.2639 -0.1877 -0.3107
13598TIP3    H162209   1.279   4.661  11.481 -0.5603  0.6106 -0.2793
13598TIP3    H262210   1.149   4.707  11.419 -0.6117 -0.7941 -1.2383
13599TIP3   OH262211   6.029   6.407   5.796 -0.3204  0.0562 -0.1108
13599TIP3    H162212   6.040   6.401   5.891 -0.2607 -0.4026 -0.1428
13599TIP3    H262213   6.117   6.396   5.761 -0.0530  2.1500 -0.1561
13600TIP3   OH262214   2.083   3.441  12.101 -0.1488 -0.5664  0.4369
13600TIP3    H162215   2.143   3.403  12.165 -0.8777 -0.3918  1.2343
13600TIP3    H262216   2.068   3.371  12.037 -0.1710 -1.0494  0.9723
13601TIP3   OH262217   2.104   2.567   5.165  0.1082 -0.2403 -0.3370
13601TIP3    H162218   2.038   2.618   5.117  0.4910  0.9687  0.4112
13601TIP3    H262219   2.188   2.595   5.127  0.2096 -1.8849 -1.3942
13602TIP3   OH262220   2.148   6.497   2.299 -1.2346 -0.1418  1.2098
13602TIP3    H162221   2.226   6.492   2.243 -1.8689  1.0651  0.2071
13602TIP3    H262222   2.098   6.419   2.277 -1.7940  0.6526 -0.4032
13603TIP3   OH262223   1.743   1.062  15.229 -0.0048  0.1973  0.0013
13603TIP3    H162224   1.764   1.006  15.303  1.5374  1.0183  0.2303
13603TIP3    H262225   1.664   1.109  15.255  1.2489  1.4251  1.6840
13604TIP3   OH262226   0.217   2.356   5.881 -0.1973  0.8091 -0.0030
13604TIP3    H162227   0.209   2.443   5.842  2.5765  0.5611 -1.2368
13604TIP3    H262228   0.300   2.359   5.929  0.4559 -1.4855 -0.9199
13605TIP3   OH262229   3.901   6.548  13.203  0.2407 -0.5330 -0.7806
13605TIP3    H162230   3.978   6.547  13.260 -1.2739 -1.3250  1.3172
13605TIP3    H262231   3.863   6.461  13.214 -2.2786  0.6415  0.0907
13606TIP3   OH262232   0.425   0.652  12.912  0.2460  0.2827 -0.6192
13606TIP3    H162233   0.388   0.728  12.866 -0.4618  0.0193 -0.4958
13606TIP3    H262234   0.519   0.669  12.915  0.3676  0.1302 -2.5322
13607TIP3   OH262235   0.555   6.394  13.063 -0.3545 -0.1306  0.5341
13607TIP3    H162236   0.491   6.431  13.124  0.5246 -2.4890  2.9958
13607TIP3    H262237   0.515   6.313  13.032 -0.3851  0.5766 -1.3401
13608TIP3   OH262238   5.176   4.052   0.219 -0.1151 -0.3087 -0.0326
13608TIP3    H162239   5.159   4.046   0.313 -1.5052  2.6503 -0.0521
13608TIP3    H262240   5.231   4.130   0.210 -0.9451  0.0752 -1.8133
13609TIP3   OH262241   2.864   3.185  13.234 -0.1737  0.3211 -0.1401
13609TIP3    H162242   2.908   3.220  13.157  1.1263 -0.5767  0.1809
13609TIP3    H262243   2.930   3.130  13.277 -1.9711 -2.0060 -0.2761
13610TIP3   OH262244   5.175   2.979   3.331 -0.5282 -0.2247  0.0290
13610TIP3    H162245   5.261   2.938   3.328 -0.1183  0.5681  0.8583
13610TIP3    H262246   5.155   2.986   3.424 -0.8358  0.9426 -0.1157
13611TIP3   OH262247   2.256   2.861   4.055  0.8344  0.4101  0.1359
13611TIP3    H162248   2.240   2.893   3.967 -1.0483 -0.3061  0.2051
13611TIP3    H262249   2.351   2.869   4.067  1.0839  0.5887 -1.9143
13612TIP3   OH262250   0.225   0.221  15.651 -0.0293 -0.7312  0.4924
13612TIP3    H162251   0.146   0.275  15.655  1.1886  1.1658 -0.2065
13612TIP3    H262252   0.260   0.235  15.563  1.1416 -1.4531  0.8247
13613TIP3   OH262253   6.428   2.525   2.628 -0.6176  0.0002  0.1365
13613TIP3    H162254   6.483   2.487   2.559 -0.3234  1.1783 -0.2760
13613TIP3    H262255   6.481   2.517   2.708 -0.6701 -0.7124  0.1022
13614TIP3   OH262256   6.074   6.684   3.110 -0.2135 -0.6548  0.0598
13614TIP3    H162257   6.077   6.652   3.020 -1.0375  0.5969 -0.4224
13614TIP3    H262258   5.981   6.697   3.128  0.1295  2.2598 -0.0581
13615TIP3   OH262259   6.324   5.091  11.432  0.7680 -0.5663  0.1489
13615TIP3    H162260   6.337   5.125  11.521  2.4424 -2.0575  0.5160
13615TIP3    H262261   6.343   5.165  11.375  2.3487 -0.3101  0.9766
13616TIP3   OH262262   2.358   5.029   0.919  0.0385 -0.2562 -0.0571
13616TIP3    H162263   2.422   4.966   0.886 -1.5225 -1.0565 -1.6972
13616TIP3    H262264   2.279   5.012   0.867 -0.8021  2.2396  0.3326
13617TIP3   OH262265   2.498   3.944  12.716 -0.0400 -0.0527  0.6268
13617TIP3    H162266   2.538   4.029  12.695 -0.6178  0.3463  1.1236
13617TIP3    H262267   2.441   3.962  12.791  0.3813 -1.0264  1.1897
13618TIP3   OH262268   4.704   2.965  13.496 -0.0146  0.6489  0.5092
13618TIP3    H162269   4.795   2.992  13.488  0.5560 -0.3870  3.0555
13618TIP3    H262270   4.686   2.968  13.590 -1.9315 -1.2714  0.2446
13619TIP3   OH262271   3.937   3.618  14.046  0.5763  0.2670  0.1726
13619TIP3    H162272   3.976   3.547  14.098  0.4492 -0.6287 -0.9417
13619TIP3    H262273   3.910   3.576  13.965 -1.7360  1.0943  0.4850
13620TIP3   OH262274   0.112   4.819  15.339  0.5238  0.2807 -0.8705
13620TIP3    H162275   0.159   4.808  15.256 -0.0276  1.6147 -1.3585
13620TIP3    H262276   0.096   4.913  15.347 -0.9966 -0.0161 -0.1187
13621TIP3   OH262277   1.099   2.221   2.258  0.1915 -0.0446  0.5257
13621TIP3    H162278   1.119   2.311   2.284 -0.0458 -0.0728  0.8147
13621TIP3    H262279   1.067   2.179   2.338 -1.1658  0.0473  0.0487
13622TIP3   OH262280   0.801   2.805  14.238  0.2089  0.2260 -0.0449
13622TIP3    H162281   0.784   2.838  14.326  0.0485  0.4818 -0.1703
13622TIP3    H262282   0.715   2.781  14.204  0.2461  0.3189 -0.2054
13623TIP3   OH262283   3.652   0.522  17.227 -0.8414  0.2716  0.4488
13623TIP3    H162284   3.560   0.527  17.252 -0.9407 -2.5383  0.8695
13623TIP3    H262285   3.671   0.428  17.223  1.7235  0.7737 -0.7024
13624TIP3   OH262286   0.779   4.438   4.545 -0.8912 -0.1311  0.2062
13624TIP3    H162287   0.868   4.470   4.531 -1.2080  0.8480  0.3574
13624TIP3    H262288   0.791   4.349   4.579 -0.0168 -0.5273 -1.0884
13625TIP3   OH262289   3.428   4.452   4.564 -0.3757 -0.4742  0.1180
13625TIP3    H162290   3.448   4.419   4.476  0.3605  0.0823  0.0681
13625TIP3    H262291   3.497   4.415   4.620 -0.8120 -0.7849  0.4526
13626TIP3   OH262292   6.098   1.291  14.892 -0.1873 -0.2647  0.3827
13626TIP3    H162293   6.101   1.218  14.955  1.3881 -0.7582 -0.2481
13626TIP3    H262294   6.086   1.368  14.947 -0.0424 -0.8211  1.2152
13627TIP3   OH262295   4.705   6.414   0.671 -0.1490  0.0582  0.2423
13627TIP3    H162296   4.630   6.457   0.712  0.8659  1.1696  0.9499
13627TIP3    H262297   4.667   6.364   0.599 -1.4515  1.4415 -0.0562
13628TIP3   OH262298   2.984   5.918  12.588 -0.1885 -0.5643 -0.0076
13628TIP3    H162299   3.049   5.849  12.589  2.2592  1.6722  1.2571
13628TIP3    H262300   2.970   5.937  12.495 -0.2537 -2.1249 -0.3318
13629TIP3   OH262301   3.305   4.946  11.207  0.2425  0.0928 -0.8712
13629TIP3    H162302   3.271   4.912  11.125  1.2182 -1.7319 -0.5462
13629TIP3    H262303   3.297   4.873  11.269  0.9812  0.9263  0.2342
13630TIP3   OH262304   2.829   5.141   2.845 -0.8404 -0.4715  0.0711
13630TIP3    H162305   2.740   5.105   2.835 -0.6309 -0.7513 -0.9069
13630TIP3    H262306   2.866   5.136   2.756  0.2544 -0.6353  0.5314
13631TIP3   OH262307   4.347   1.340  11.228  0.0440 -0.1936 -0.2297
13631TIP3    H162308   4.270   1.323  11.283  0.9414 -0.6398  0.9194
13631TIP3    H262309   4.360   1.258  11.180  0.2074 -0.3583  0.0914
13632TIP3   OH262310   2.109   0.273  12.061  0.0837 -0.5678 -0.1574
13632TIP3    H162311   2.111   0.338  12.132 -1.5681 -0.0594 -0.5561
13632TIP3    H262312   2.127   0.323  11.982 -2.3932 -0.3351 -0.6199
13633TIP3   OH262313   6.097   3.663  14.300  0.2752  0.2295 -0.1518
13633TIP3    H162314   6.179   3.707  14.323  0.5772 -0.5595  0.2803
13633TIP3    H262315   6.098   3.582  14.350  0.9811 -1.5824 -2.9743
13634TIP3   OH262316   1.782   2.977   1.483 -0.1022  0.0668  0.3873
13634TIP3    H162317   1.858   3.036   1.478  0.4536 -0.7730 -1.0441
13634TIP3    H262318   1.745   2.977   1.395 -0.0756 -1.7535  0.3550
13635TIP3   OH262319   3.766   1.182   1.298  0.1482 -0.2111 -0.5620
13635TIP3    H162320   3.786   1.090   1.283 -1.4294 -0.5965 -0.3895
13635TIP3    H262321   3.813   1.228   1.229  1.6375 -1.0633 -0.1404
13636TIP3   OH262322   1.884   5.366   5.363 -0.0051  0.4508 -0.0446
13636TIP3    H162323   1.904   5.286   5.411  0.8162  0.3084 -0.6133
13636TIP3    H262324   1.840   5.422   5.426  2.2078  0.7827  1.2503
13637TIP3   OH262325   6.140   1.606   2.632  0.0787  0.6432 -0.4647
13637TIP3    H162326   6.225   1.647   2.642 -0.3315  1.3696  0.0722
13637TIP3    H262327   6.135   1.582   2.539 -0.8340  4.4164 -1.4706
13638TIP3   OH262328   5.338   4.272   6.151 -0.1573 -0.1910  0.1366
13638TIP3    H162329   5.344   4.342   6.217 -2.5695 -0.4743  0.7045
13638TIP3    H262330   5.265   4.219   6.180  0.1249 -1.5722 -1.6395
13639TIP3   OH262331   1.545   0.696  12.688 -0.5051 -0.4090  0.9062
13639TIP3    H162332   1.589   0.732  12.766 -0.1266 -1.1351  1.0287
13639TIP3    H262333   1.458   0.737  12.689 -0.0088  0.6648  0.9277
13640TIP3   OH262334   5.489   6.125   2.353  0.1683 -0.3761 -0.7355
13640TIP3    H162335   5.430   6.198   2.333 -0.1840 -0.8858 -1.5986
13640TIP3    H262336   5.503   6.082   2.269 -2.1131 -3.1668  0.2445
13641TIP3   OH262337   4.429   2.006  11.749 -0.0682  0.1962 -0.3949
13641TIP3    H162338   4.409   2.025  11.657 -0.8066 -0.1758 -0.3176
13641TIP3    H262339   4.512   2.049  11.765  0.3152 -0.1642 -1.3851
13642TIP3   OH262340   4.432   4.354  16.841 -0.1303 -0.1004  0.5145
13642TIP3    H162341   4.499   4.312  16.895 -0.3573  0.3632  1.1672
13642TIP3    H262342   4.479   4.387  16.765 -0.1159 -2.4731 -0.5521
13643TIP3   OH262343   4.605   5.466   4.585 -0.5120  0.0779 -0.1888
13643TIP3    H162344   4.535   5.517   4.627 -1.1473 -1.1303  0.2192
13643TIP3    H262345   4.686   5.500   4.625 -1.0193 -0.1282  1.0362
13644TIP3   OH262346   0.995   0.439   2.598  0.5107 -0.4269  0.6767
13644TIP3    H162347   1.050   0.490   2.538  0.7800 -1.0279  0.4105
13644TIP3    H262348   1.055   0.376   2.637  0.0754 -0.8670  0.6354
13645TIP3   OH262349   1.874   4.405   2.936 -0.6074  0.0334  0.1381
13645TIP3    H162350   1.810   4.377   2.870  0.5033 -2.9805  0.2772
13645TIP3    H262351   1.958   4.374   2.902  0.6162  2.6047  0.7077
13646TIP3   OH262352   0.386   4.146   0.171 -0.1382  0.2267 -0.3539
13646TIP3    H162353   0.326   4.077   0.199  0.4020 -0.1644 -0.1565
13646TIP3    H262354   0.330   4.223   0.162 -0.2523  0.5291  2.4286
13647TIP3   OH262355   1.158   5.082  15.820 -0.0946 -0.3188 -0.0891
13647TIP3    H162356   1.139   5.150  15.755  0.8273  0.7546  0.7553
13647TIP3    H262357   1.157   5.000  15.769 -2.0891  0.2044 -0.9515
13648TIP3   OH262358   4.374   1.520   6.167 -0.3102 -0.0047 -0.6386
13648TIP3    H162359   4.321   1.583   6.117  0.6787  0.4620 -1.1003
13648TIP3    H262360   4.326   1.437   6.158 -1.8897  0.7787  0.4028
13649TIP3   OH262361   0.797   3.715  12.511 -0.1709  0.4094  0.1064
13649TIP3    H162362   0.764   3.630  12.482  0.9599  0.0834 -0.2298
13649TIP3    H262363   0.721   3.758  12.550 -1.1988 -0.0298 -1.3550
13650TIP3   OH262364   1.379   5.186   4.226  0.1539  0.4341  0.3051
13650TIP3    H162365   1.401   5.182   4.319 -0.3318  1.5470  0.4706
13650TIP3    H262366   1.406   5.100   4.192 -0.5266 -0.3366  1.6535
13651TIP3   OH262367   5.707   2.012   0.789  0.4619  0.1615  0.3057
13651TIP3    H162368   5.776   1.978   0.845  0.8966 -0.5813 -0.6708
13651TIP3    H262369   5.723   2.107   0.786  1.8099 -0.0856 -0.4169
13652TIP3   OH262370   2.760   1.323   1.749  0.4637  0.5142 -0.3491
13652TIP3    H162371   2.817   1.253   1.719 -0.5100 -0.1080 -0.7972
13652TIP3    H262372   2.680   1.278   1.778 -0.2343  1.4363 -0.7918
13653TIP3   OH262373   4.712   0.909  12.196 -0.1848  0.7459 -0.1886
13653TIP3    H162374   4.752   0.978  12.248 -0.1086  1.1627 -0.7941
13653TIP3    H262375   4.633   0.884  12.244 -0.6578  1.8277 -0.3883
13654TIP3   OH262376   1.213   6.072   4.435 -0.0625  0.1415  0.2993
13654TIP3    H162377   1.291   6.051   4.384  0.2508 -1.0295  1.2608
13654TIP3    H262378   1.143   6.021   4.393 -0.0093 -0.0260  0.4173
13655TIP3   OH262379   6.325   0.536  11.656  0.1376 -0.1477  0.1516
13655TIP3    H162380   6.326   0.583  11.572  0.9108  1.1105  0.8499
13655TIP3    H262381   6.286   0.451  11.635 -0.9991  0.6768 -1.1975
13656TIP3   OH262382   2.239   3.696  17.188  1.0152  0.5962 -0.0433
13656TIP3    H162383   2.189   3.748  17.125 -0.1811  1.7945  1.8308
13656TIP3    H262384   2.265   3.759  17.255 -0.9386 -1.2968  2.5632
13657TIP3   OH262385   5.555   3.849  17.146  0.2747  0.0707  0.3134
13657TIP3    H162386   5.605   3.842  17.065  0.0395  1.9643 -0.0001
13657TIP3    H262387   5.611   3.807  17.212 -0.5510 -3.6035 -1.2103
13658TIP3   OH262388   3.492   0.996   4.334 -0.1813  0.3362  0.1615
13658TIP3    H162389   3.567   0.945   4.364  0.5910  1.0421 -0.5336
13658TIP3    H262390   3.480   0.969   4.243  0.4386  1.6201 -0.3130
13659TIP3   OH262391   5.354   6.196   0.535 -0.6412 -0.5626  0.3627
13659TIP3    H162392   5.379   6.105   0.551  0.4751 -0.3728 -0.2745
13659TIP3    H262393   5.332   6.199   0.442  1.9793  0.4042 -0.2601
13660TIP3   OH262394   3.522   6.308  16.199 -0.0929 -0.1611 -0.3064
13660TIP3    H162395   3.427   6.307  16.211 -0.2230  1.7228 -1.0368
13660TIP3    H262396   3.541   6.396  16.166  1.9016 -0.5367 -0.2079
13661TIP3   OH262397   5.522   1.123   5.370 -0.0788 -0.1921  0.2192
13661TIP3    H162398   5.433   1.140   5.340  0.4442  0.5225 -1.0044
13661TIP3    H262399   5.518   1.131   5.465 -1.1445  0.7035  0.1143
13662TIP3   OH262400   1.802   2.262   5.637 -0.3128 -0.1092  0.8027
13662TIP3    H162401   1.808   2.188   5.576 -2.4857 -0.7810  1.3617
13662TIP3    H262402   1.829   2.226   5.721  2.3961  0.7454  0.3405
13663TIP3   OH262403   3.868   2.884   0.820  0.9565 -0.2711  0.2270
13663TIP3    H162404   3.951   2.920   0.850  1.1981 -1.6375  1.2449
13663TIP3    H262405   3.803   2.919   0.880  0.7174  1.2366 -0.9038
13664TIP3   OH262406   5.687   4.075   4.240  0.1068  0.1999 -0.4026
13664TIP3    H162407   5.648   3.995   4.275 -1.3612  1.1597  0.1756
13664TIP3    H262408   5.684   4.137   4.312 -0.6317  1.4170 -1.4700
13665TIP3   OH262409   4.907   1.978  12.105  0.4320 -0.0603  0.6018
13665TIP3    H162410   4.957   2.058  12.122 -0.0982  0.3440  0.2676
13665TIP3    H262411   4.899   1.974  12.010  3.2436 -2.2313  0.3863
13666TIP3   OH262412   1.078   4.479   3.570  0.6776 -0.2978  0.4104
13666TIP3    H162413   1.014   4.408   3.575  0.3711  0.0212  1.0540
13666TIP3    H262414   1.116   4.470   3.482 -0.6917 -0.1087 -0.2309
13667TIP3   OH262415   4.908   4.405  14.407 -0.8127  0.2432  0.0395
13667TIP3    H162416   4.973   4.401  14.477 -1.1878 -0.3468  0.3617
13667TIP3    H262417   4.911   4.495  14.376 -0.7608  0.5563  0.9309
13668TIP3   OH262418   1.885   2.285  13.754 -0.1902 -0.0452 -0.0936
13668TIP3    H162419   1.866   2.204  13.802  0.0546  0.1747  0.3765
13668TIP3    H262420   1.901   2.350  13.822 -1.8705  0.7721 -0.4452
13669TIP3   OH262421   1.735   0.224   4.707  0.3997  0.6016  0.1295
13669TIP3    H162422   1.791   0.155   4.671  0.9371  0.2456  1.6314
13669TIP3    H262423   1.671   0.241   4.637  0.8579 -0.7193 -0.6380
13670TIP3   OH262424   3.391   1.023  15.453  0.0751 -0.7380  0.3114
13670TIP3    H162425   3.378   1.096  15.513  2.8339  2.4705 -2.7422
13670TIP3    H262426   3.470   0.979  15.486  0.7069  0.1054 -0.0431
13671TIP3   OH262427   3.344   4.843  17.122 -0.0230  0.1706 -0.2288
13671TIP3    H162428   3.390   4.896  17.057 -0.6841  1.0580  0.0059
13671TIP3    H262429   3.399   4.848  17.200  1.3961 -1.9008 -1.0519
13672TIP3   OH262430   2.317   2.862   4.320 -0.4050 -0.2865  0.1394
13672TIP3    H162431   2.344   2.951   4.343 -0.3070 -0.1345 -0.5686
13672TIP3    H262432   2.298   2.866   4.227 -1.3387 -0.7747  0.3020
13673TIP3   OH262433   2.077   2.964  12.785 -0.0138  0.4236  0.2201
13673TIP3    H162434   2.004   3.001  12.735 -0.6092 -0.5181  0.3927
13673TIP3    H262435   2.096   3.030  12.852 -1.6193  0.0481  1.0464
13674TIP3   OH262436   6.131   0.474   3.433  0.4139  0.6391  0.5699
13674TIP3    H162437   6.070   0.406   3.403  0.6048 -0.0458  1.6649
13674TIP3    H262438   6.076   0.534   3.485  0.7036 -0.1456  1.8123
13675TIP3   OH262439   0.838   6.068   4.373  0.2105  0.2830 -0.5812
13675TIP3    H162440   0.825   6.064   4.278 -0.3571 -0.7210 -0.4659
13675TIP3    H262441   0.894   5.993   4.393 -0.7892 -0.3031  0.0516
13676TIP3   OH262442   3.931   0.716   0.918 -0.5244 -0.2651 -0.0329
13676TIP3    H162443   3.938   0.640   0.977 -2.4281 -0.3746  0.0667
13676TIP3    H262444   3.919   0.677   0.831 -0.6470 -0.0916 -0.0939
13677TIP3   OH262445   3.527   5.409  15.552 -0.2260  0.2666  0.1868
13677TIP3    H162446   3.550   5.430  15.461 -1.6561  1.1113 -0.0007
13677TIP3    H262447   3.599   5.355  15.583  2.2324  3.1862 -0.1968
13678TIP3   OH262448   0.549   0.313  14.726  0.0631  0.3009  0.3074
13678TIP3    H162449   0.504   0.265  14.657  2.3677 -0.4973 -0.6846
13678TIP3    H262450   0.483   0.372  14.762 -1.6062 -0.4818 -1.4400
13679TIP3   OH262451   2.458   4.212   0.559 -0.0932 -0.1911  0.5076
13679TIP3    H162452   2.509   4.174   0.631 -0.2892 -0.7708  0.3439
13679TIP3    H262453   2.376   4.163   0.559  0.3643 -0.9993 -0.8487
13680TIP3   OH262454   4.260   0.704  14.495 -0.2323 -0.5383 -0.3101
13680TIP3    H162455   4.295   0.766  14.431 -0.8864  1.0697  0.8404
13680TIP3    H262456   4.181   0.668  14.453 -0.8718  0.7904 -0.2775
13681TIP3   OH262457   5.519   2.788   1.586  0.4269  0.0941 -0.0099
13681TIP3    H162458   5.535   2.739   1.666 -3.0609 -0.6817  0.3252
13681TIP3    H262459   5.491   2.722   1.523 -0.5094  1.1450 -0.7179
13682TIP3   OH262460   4.949   6.438   2.720 -0.4062  0.1118 -0.4055
13682TIP3    H162461   4.907   6.404   2.641 -1.0349  1.1654 -0.5377
13682TIP3    H262462   4.991   6.520   2.691 -0.5433  0.4451  0.3301
13683TIP3   OH262463   3.037   2.689  15.221  0.5886  0.3420  0.3252
13683TIP3    H162464   3.080   2.603  15.221 -0.0015  0.0025  3.1242
13683TIP3    H262465   3.001   2.697  15.133 -1.6051 -3.4541  0.7775
13684TIP3   OH262466   1.027   1.521  14.196 -0.6207 -0.2069  0.2470
13684TIP3    H162467   1.028   1.542  14.102 -0.7058 -0.3780  0.2084
13684TIP3    H262468   0.939   1.545  14.225 -1.7863 -3.3593 -0.4526
13685TIP3   OH262469   5.362   4.026  13.294  0.7434  0.2315  0.3389
13685TIP3    H162470   5.372   3.966  13.221 -0.0701  0.7968 -0.2529
13685TIP3    H262471   5.444   4.074  13.297  1.8731 -1.7095  1.5746
13686TIP3   OH262472   4.961   6.095   2.799  0.8001 -0.4640  0.5740
13686TIP3    H162473   5.037   6.127   2.848  0.6176  2.2949 -0.8498
13686TIP3    H262474   4.977   6.124   2.709 -1.1917 -1.1937 -0.0403
13687TIP3   OH262475   5.848   3.981  12.415  0.1747 -0.0804  0.1905
13687TIP3    H162476   5.850   4.010  12.324  0.4245  1.5380  0.7022
13687TIP3    H262477   5.939   3.956  12.434  0.0072 -1.0025 -0.1712
13688TIP3   OH262478   3.666   0.212  10.689 -0.4555 -0.5560  0.4122
13688TIP3    H162479   3.610   0.192  10.614  0.4186 -0.0504 -0.3859
13688TIP3    H262480   3.610   0.262  10.748 -0.9635 -0.3791 -0.2102
13689TIP3   OH262481   4.189   2.195   2.890  0.3814  0.1835  0.6875
13689TIP3    H162482   4.150   2.244   2.818  0.8367  0.6452  0.7517
13689TIP3    H262483   4.183   2.254   2.965 -1.4795 -0.8789  1.3874
13690TIP3   OH262484   3.585   4.445  10.542  0.1431 -0.0543  0.3435
13690TIP3    H162485   3.537   4.365  10.521  0.5926 -0.5051  1.0326
13690TIP3    H262486   3.671   4.433  10.503  0.1691  0.1485  0.3363
13691TIP3   OH262487   0.137   0.261   1.484 -0.3181 -0.1061  0.5609
13691TIP3    H162488   0.130   0.171   1.517  0.3682  0.4588  2.2779
13691TIP3    H262489   0.190   0.307   1.549  0.7777  1.1387 -1.1597
13692TIP3   OH262490   3.576   1.951  16.462 -0.2850  0.4383 -0.1944
13692TIP3    H162491   3.578   2.045  16.447  0.9317  0.1195 -2.2462
13692TIP3    H262492   3.559   1.914  16.375  0.7797 -1.2990  0.3281
13693TIP3   OH262493   1.123   4.789  15.867  0.3703  0.0131  0.1672
13693TIP3    H162494   1.094   4.702  15.895 -1.3059  0.6874  0.5666
13693TIP3    H262495   1.079   4.849  15.927  1.4742  1.1492 -0.1402
13694TIP3   OH262496   5.443   5.446  15.337  0.3784 -0.3205  0.3168
13694TIP3    H162497   5.368   5.448  15.278 -0.7974 -2.2691  1.6955
13694TIP3    H262498   5.473   5.537  15.342 -1.0636  0.2548 -1.2622
13695TIP3   OH262499   3.233   4.817  13.851 -0.3826  0.1857  0.0858
13695TIP3    H162500   3.163   4.837  13.913 -0.0736 -0.5476  0.6779
13695TIP3    H262501   3.293   4.890  13.857 -0.7870  0.5251  0.0260
13696TIP3   OH262502   2.159   0.174   5.760  0.3367 -0.0718  0.3800
13696TIP3    H162503   2.220   0.211   5.824 -0.8529 -0.3824  1.7091
13696TIP3    H262504   2.185   0.082   5.754  2.5831  0.6532 -2.1031
13697TIP3   OH262505   3.390   0.887   5.746  0.0677  0.0264  0.8454
13697TIP3    H162506   3.304   0.846   5.748 -0.5422  1.2534  0.6556
13697TIP3    H262507   3.385   0.956   5.812 -0.3763  2.5308 -1.6905
13698TIP3   OH262508   5.281   6.081  12.393 -0.3475  0.2991  0.1884
13698TIP3    H162509   5.349   6.048  12.452 -1.0035  1.2726  1.5293
13698TIP3    H262510   5.205   6.026  12.410  0.0348 -0.6657 -1.1720
13699TIP3   OH262511   3.599   5.873   4.668 -0.2771 -0.0397  0.5028
13699TIP3    H162512   3.507   5.870   4.696  0.0746 -1.8410  1.5019
13699TIP3    H262513   3.648   5.897   4.746 -0.0221  2.7212 -0.4352
13700TIP3   OH262514   5.627   3.754  12.280 -0.1161  0.1727 -0.3188
13700TIP3    H162515   5.629   3.823  12.346 -0.7270  0.5129 -0.6505
13700TIP3    H262516   5.602   3.799  12.199  0.2421 -0.3097 -0.6961
13701TIP3   OH262517   5.677   0.702   1.426 -0.1546 -0.7597 -0.0667
13701TIP3    H162518   5.685   0.781   1.374 -0.2248 -0.2886  0.6332
13701TIP3    H262519   5.720   0.634   1.374  0.0332 -0.2361 -0.5966
13702TIP3   OH262520   3.971   4.173   2.377  0.0281 -0.4498  0.0722
13702TIP3    H162521   3.915   4.105   2.415  1.4208 -2.1290 -0.7681
13702TIP3    H262522   3.930   4.194   2.293 -1.0082  0.5700  0.8157
13703TIP3   OH262523   3.235   4.343  11.160 -0.1065 -0.3254 -0.6107
13703TIP3    H162524   3.147   4.350  11.122 -1.5862 -2.0903  2.2606
13703TIP3    H262525   3.241   4.252  11.187  1.1098  0.6801  2.6941
13704TIP3   OH262526   6.263   5.225  16.977  0.7450  0.1507 -0.8772
13704TIP3    H162527   6.184   5.189  16.939  0.6342  0.7396 -1.2133
13704TIP3    H262528   6.235   5.260  17.062  0.9517 -0.9809 -0.3406
13705TIP3   OH262529   2.414   1.345  17.086  0.2774 -0.3656 -0.4607
13705TIP3    H162530   2.397   1.252  17.068  3.0506 -1.2215  1.0883
13705TIP3    H262531   2.391   1.390  17.005 -0.0809 -2.5229 -1.5834
13706TIP3   OH262532   5.710   4.688   0.511 -0.2311 -0.2130  0.0186
13706TIP3    H162533   5.617   4.665   0.519 -0.1375  0.1002  2.2651
13706TIP3    H262534   5.739   4.705   0.601  1.7650  0.6513 -0.7495
13707TIP3   OH262535   0.740   0.911   5.512  0.3730  0.3452  0.4503
13707TIP3    H162536   0.661   0.905   5.567  0.6190  0.0833  0.7754
13707TIP3    H262537   0.736   0.833   5.458 -0.4344  1.1400 -0.6682
13708TIP3   OH262538   6.075   6.681  11.954  0.0744 -0.0421  0.5419
13708TIP3    H162539   6.080   6.587  11.972 -0.3208 -0.2515 -0.3779
13708TIP3    H262540   5.991   6.692  11.909  2.0286  0.0077 -3.3387
13709TIP3   OH262541   5.915   6.024  16.355  0.1959  0.0820 -0.0094
13709TIP3    H162542   6.006   6.003  16.375  0.1092  0.2655  0.5930
13709TIP3    H262543   5.919   6.110  16.314  0.3628 -0.2399 -0.6743
13710TIP3   OH262544   1.519   3.524  14.077  0.1185 -0.0558 -0.5987
13710TIP3    H162545   1.555   3.450  14.125  0.5992 -0.1484 -1.0963
13710TIP3    H262546   1.449   3.558  14.134  1.2975  0.4238  0.5954
13711TIP3   OH262547   6.083   1.060  15.912 -0.3272 -0.1191 -0.4161
13711TIP3    H162548   6.020   0.988  15.909 -0.1519 -0.2256 -1.8959
13711TIP3    H262549   6.159   1.028  15.864  0.2202  0.6021 -0.0362
13712TIP3   OH262550   6.193   5.233  15.692  0.3695  0.0858  0.0959
13712TIP3    H162551   6.132   5.235  15.766  0.5616  0.6770  0.2362
13712TIP3    H262552   6.254   5.163  15.714  1.0845  0.9876  1.0261
13713TIP3   OH262553   5.382   2.085  13.159  0.1717 -0.1761 -0.5438
13713TIP3    H162554   5.361   2.080  13.066 -2.1437  2.1169 -0.1969
13713TIP3    H262555   5.300   2.110  13.201  0.7354 -2.8209  2.3410
13714TIP3   OH262556   4.111   0.515  11.389  0.2952 -0.1628  0.4163
13714TIP3    H162557   4.076   0.436  11.348  0.8279 -1.0302  1.5970
13714TIP3    H262558   4.136   0.572  11.316  1.7012 -1.8764 -0.4428
13715TIP3   OH262559   2.240   3.502   5.326  0.3647  0.2335  0.5720
13715TIP3    H162560   2.288   3.508   5.409 -1.3793 -0.8481  1.6885
13715TIP3    H262561   2.178   3.574   5.329  0.0504 -0.0304  0.3601
13716TIP3   OH262562   3.341   5.307   3.628 -0.2323  0.2631 -0.5227
13716TIP3    H162563   3.404   5.288   3.559 -0.5321 -1.4239 -0.3539
13716TIP3    H262564   3.390   5.297   3.709 -1.0278 -2.5557 -0.3251
13717TIP3   OH262565   5.272   0.538   0.645 -0.5953 -0.1804  0.3093
13717TIP3    H162566   5.258   0.584   0.562 -0.6170  0.2262  0.5392
13717TIP3    H262567   5.270   0.445   0.621  1.1299 -0.0367 -0.4109
13718TIP3   OH262568   6.683   6.311  15.671  0.0510 -0.2364 -0.3307
13718TIP3    H162569   6.707   6.343  15.757 -0.1660 -1.9101  0.3646
13718TIP3    H262570   6.739   6.360  15.611  0.0191  1.1215  0.7197
13719TIP3   OH262571   6.273   0.712  11.060 -0.1313 -0.1427 -0.2335
13719TIP3    H162572   6.281   0.669  10.975  2.3772 -1.5028  0.6409
13719TIP3    H262573   6.335   0.785  11.056  0.7345 -0.8068  0.7533
13720TIP3   OH262574   2.516   3.072   2.883  0.3783  0.2779 -0.0797
13720TIP3    H162575   2.601   3.036   2.860  0.1919  0.8324 -1.6722
13720TIP3    H262576   2.489   3.123   2.806 -0.6011  1.5447  1.0658
13721TIP3   OH262577   4.188   2.263  12.056  0.2712 -0.6692  0.1114
13721TIP3    H162578   4.163   2.256  12.148  0.8923  1.0120  0.4218
13721TIP3    H262579   4.201   2.172  12.028 -0.9557 -1.2555  1.3797
13722TIP3   OH262580   5.646   1.444   5.218 -0.1364 -0.1403  0.1664
13722TIP3    H162581   5.698   1.383   5.166  1.4655  0.5576  0.9335
13722TIP3    H262582   5.561   1.446   5.174  0.9556 -0.1323 -1.9973
13723TIP3   OH262583   4.206   6.005   3.993  0.4996  0.0956 -0.3187
13723TIP3    H162584   4.196   6.074   4.058  0.6709  1.4147 -1.6759
13723TIP3    H262585   4.273   5.947   4.030  3.5469  2.9808 -1.0893
13724TIP3   OH262586   1.317   1.801  16.872  0.0895  0.0766 -0.1553
13724TIP3    H162587   1.386   1.737  16.891 -0.2136 -0.3190 -0.3602
13724TIP3    H262588   1.328   1.821  16.779 -0.1485 -0.0845 -0.2189
13725TIP3   OH262589   3.272   2.405   3.182 -0.5554 -0.4048  0.0234
13725TIP3    H162590   3.334   2.475   3.160 -1.9776  0.8061 -0.2237
13725TIP3    H262591   3.300   2.331   3.128  1.2915 -0.2044  0.6756
13726TIP3   OH262592   5.735   0.309  12.672 -0.4931  0.0867  0.0023
13726TIP3    H162593   5.698   0.272  12.592 -1.3851  1.6611 -0.3526
13726TIP3    H262594   5.787   0.239  12.710  0.6660 -0.4182 -2.4209
13727TIP3   OH262595   6.715   6.680   0.682  0.0639  0.1517  0.3266
13727TIP3    H162596   6.663   6.723   0.749  0.1015  2.1565 -0.8851
13727TIP3    H262597   6.791   6.645   0.729 -0.3779  0.7123  1.4590
13728TIP3   OH262598   2.083   4.926   5.690 -0.0553 -0.6953  0.3835
13728TIP3    H162599   2.161   4.884   5.726  0.0595 -0.4685  0.3964
13728TIP3    H262600   2.067   5.001   5.747  0.2613 -0.2038 -0.1773
13729TIP3   OH262601   1.277   1.462  14.198  0.5074  0.7833  0.4681
13729TIP3    H162602   1.186   1.492  14.206  0.0062 -0.1494 -1.3887
13729TIP3    H262603   1.324   1.537  14.162 -0.1508  0.3298 -1.3915
13730TIP3   OH262604   4.991   2.076   3.588  0.3000 -0.4128  0.3443
13730TIP3    H162605   4.919   2.014   3.600  0.1777 -0.0661  1.4328
13730TIP3    H262606   5.068   2.029   3.619  0.3498 -0.3452  0.3209
13731TIP3   OH262607   3.975   4.545  13.203  0.4887  0.1349 -0.0934
13731TIP3    H162608   4.003   4.553  13.294 -0.6351  0.8182  0.1981
13731TIP3    H262609   4.050   4.506  13.158  1.0072 -0.2957  1.1403
13732TIP3   OH262610   1.008   1.626   1.133  0.3863 -0.4411 -0.0098
13732TIP3    H162611   0.953   1.606   1.057 -0.2570 -0.2424  0.3961
13732TIP3    H262612   1.051   1.708   1.110 -1.0322  0.4597  0.4773
13733TIP3   OH262613   4.531   6.642   0.044 -0.0486 -0.1593  0.1410
13733TIP3    H162614   4.517   6.652  -0.050 -1.3259  0.3115  0.3743
13733TIP3    H262615   4.531   6.547   0.058  0.9468 -0.2529 -0.4441
13734TIP3   OH262616   0.678   1.015   1.285 -0.4286 -0.4101  0.7891
13734TIP3    H162617   0.659   1.101   1.246 -1.2912 -0.0796  1.9164
13734TIP3    H262618   0.678   0.955   1.211  0.6604  0.6342 -0.0823
13735TIP3   OH262619   3.994   3.482   2.495  0.3220 -0.3273 -0.7443
13735TIP3    H162620   3.922   3.419   2.485 -0.5267  0.9123 -2.8104
13735TIP3    H262621   3.952   3.568   2.493  1.8060  0.4042 -1.6731
13736TIP3   OH262622   5.680   2.987  14.204 -0.4793 -0.0784 -0.1277
13736TIP3    H162623   5.603   2.931  14.200  0.3864 -1.2981  0.1840
13736TIP3    H262624   5.722   2.977  14.118  1.0019 -1.8229  0.7780
13737TIP3   OH262625   2.013   5.403   1.962 -0.0668  0.1531 -0.1895
13737TIP3    H162626   1.918   5.405   1.949 -0.3865 -0.6404  1.9149
13737TIP3    H262627   2.028   5.455   2.041  0.9694 -1.9176  1.0069
13738TIP3   OH262628   0.792   3.034  12.014  0.2516  0.4483  0.6424
13738TIP3    H162629   0.726   3.025  12.082  1.3024 -0.4277  1.5650
13738TIP3    H262630   0.870   3.064  12.060  1.3959 -1.5641  0.0895
13739TIP3   OH262631   4.557   5.055   4.257 -0.3519  0.3352  0.0210
13739TIP3    H162632   4.576   5.133   4.309  1.2761  1.4731 -2.1982
13739TIP3    H262633   4.533   4.988   4.321 -1.6813  2.6085  1.9759
13740TIP3   OH262634   4.557   5.903  13.012 -0.4852 -0.2844 -0.7648
13740TIP3    H162635   4.615   5.970  13.048 -0.5328 -1.0657  0.8064
13740TIP3    H262636   4.585   5.822  13.055 -2.2512 -0.7959 -0.5548
13741TIP3   OH262637   3.641   6.386  17.083 -0.6678 -0.4010  0.6840
13741TIP3    H162638   3.734   6.388  17.104 -0.3323 -1.8434 -0.6561
13741TIP3    H262639   3.598   6.383  17.169  0.5033  0.1506  1.3022
13742TIP3   OH262640   2.848   1.289   4.055  0.2721  0.8123 -0.2960
13742TIP3    H162641   2.826   1.271   3.963 -0.1488  3.0776 -0.6628
13742TIP3    H262642   2.787   1.235   4.105 -0.0694  0.1999 -1.3454
13743TIP3   OH262643   5.296   1.594   4.714  0.4342 -0.5105  0.2523
13743TIP3    H162644   5.243   1.606   4.635  2.3622  2.1477 -0.6777
13743TIP3    H262645   5.309   1.499   4.720  0.0099 -0.7688 -2.4433
13744TIP3   OH262646   1.227   2.749  16.791 -0.3277  0.3799  0.6108
13744TIP3    H162647   1.228   2.707  16.877 -2.0669  0.9403  0.9271
13744TIP3    H262648   1.135   2.772  16.777  0.2140  1.8267 -0.6556
13745TIP3   OH262649   6.073   4.747  13.868  0.7729 -1.0385 -0.0499
13745TIP3    H162650   6.159   4.752  13.910  1.0908 -0.4220 -0.7584
13745TIP3    H262651   6.018   4.806  13.919  0.4469 -2.3496  1.1378
13746TIP3   OH262652   2.371   4.012  13.451  0.2522 -0.5004  0.5111
13746TIP3    H162653   2.278   4.002  13.466  0.6263  0.3587  3.6731
13746TIP3    H262654   2.406   3.923  13.450 -0.5101 -0.7982 -0.3106
13747TIP3   OH262655   1.255   3.264  11.472  0.2948  0.1548  0.3945
13747TIP3    H162656   1.239   3.170  11.484  0.3349  0.4009  2.4347
13747TIP3    H262657   1.330   3.268  11.413 -1.2314 -1.0741 -1.7054
13748TIP3   OH262658   6.057   0.431   3.027 -0.2195  0.1071 -0.1803
13748TIP3    H162659   6.000   0.392   3.093  0.5742 -2.0560 -0.7235
13748TIP3    H262660   6.129   0.469   3.076 -0.3034 -0.3312  0.2894
13749TIP3   OH262661   6.299   4.514  14.625  0.8640 -0.8350 -0.4600
13749TIP3    H162662   6.222   4.489  14.675 -0.9277  0.1967 -2.5899
13749TIP3    H262663   6.371   4.465  14.664 -0.4530 -0.1619  2.9719
13750TIP3   OH262664   1.297   1.957   5.902  0.1657 -0.4937 -0.3180
13750TIP3    H162665   1.372   1.901   5.880 -0.9541 -2.7825  1.5640
13750TIP3    H262666   1.296   1.960   5.997 -1.6993  0.1337 -0.3380
13751TIP3   OH262667   1.259   1.400  13.670 -0.1505 -0.2735  0.1776
13751TIP3    H162668   1.259   1.432  13.579 -0.0162  0.4324  0.4240
13751TIP3    H262669   1.343   1.430  13.706  0.2808 -1.5017  0.2031
13752TIP3   OH262670   5.656   2.132   5.016 -0.2509 -0.8657  0.0166
13752TIP3    H162671   5.640   2.221   4.985  1.1916 -0.5284  0.2346
13752TIP3    H262672   5.573   2.086   4.999 -0.9866  0.4921 -0.1312
13753TIP3   OH262673   6.655   2.866   1.743  0.3379  0.0085 -0.6766
13753TIP3    H162674   6.592   2.795   1.732 -0.2971  0.7279 -1.7171
13753TIP3    H262675   6.602   2.944   1.759  0.9004  0.8434 -2.7663
13754TIP3   OH262676   1.988   6.251  16.595  0.0207  0.6236  0.1858
13754TIP3    H162677   1.980   6.327  16.653  0.4014  0.9894 -0.2396
13754TIP3    H262678   2.041   6.189  16.645 -0.5406  0.5124  0.6551
13755TIP3   OH262679   5.461   0.717   4.893  0.6862  0.6778 -0.3618
13755TIP3    H162680   5.416   0.733   4.976  2.2448  0.6200  0.5133
13755TIP3    H262681   5.515   0.795   4.879 -0.3904  1.1671 -1.8818
13756TIP3   OH262682   6.237   6.347  14.751 -0.0573 -0.0589 -0.4342
13756TIP3    H162683   6.181   6.308  14.684 -0.0498  2.2226 -1.8105
13756TIP3    H262684   6.177   6.394  14.808  0.1719 -0.0342 -0.2118
13757TIP3   OH262685   5.709   6.059  12.034  0.3432  0.4669 -0.1849
13757TIP3    H162686   5.768   5.994  11.996  1.8490  1.9967 -0.5133
13757TIP3    H262687   5.623   6.038  11.997  0.5572 -2.0635  0.6612
13758TIP3   OH262688   6.152   4.548  14.220  0.5078 -0.1566 -0.3107
13758TIP3    H162689   6.136   4.640  14.239  3.2895  0.7139 -1.9149
13758TIP3    H262690   6.096   4.528  14.146  0.7437  0.5663 -0.6837
13759TIP3   OH262691   3.937   4.408  11.273  0.2401  0.3798  0.1057
13759TIP3    H162692   3.871   4.475  11.254  0.2451  0.8439  1.6639
13759TIP3    H262693   4.020   4.454  11.260  0.2466  0.4720  0.4766
13760TIP3   OH262694   1.673   0.996  13.696  0.2317  0.0161 -0.7453
13760TIP3    H162695   1.616   1.007  13.620  2.0361  1.0266 -1.9821
13760TIP3    H262696   1.741   0.935  13.666 -0.1662 -1.1666  0.7033
13761TIP3   OH262697   1.450   1.434  15.686  0.4980 -0.4669 -0.5654
13761TIP3    H162698   1.481   1.403  15.601  1.2071  0.1509 -0.5353
13761TIP3    H262699   1.416   1.355  15.729  1.6985 -1.0932 -0.7457
13762TIP3   OH262700   3.746   6.426   6.023  0.0859 -0.3537 -0.2577
13762TIP3    H162701   3.822   6.483   6.039 -0.5468  0.1124  1.1712
13762TIP3    H262702   3.720   6.446   5.933  1.1631  0.0710 -0.4874
13763TIP3   OH262703   2.524   3.123   1.824  0.6627 -0.0932 -0.1903
13763TIP3    H162704   2.596   3.081   1.778  0.5535 -0.4157 -0.0731
13763TIP3    H262705   2.465   3.050   1.846  0.7170  0.0520  0.4539
13764TIP3   OH262706   5.296   4.827  13.241 -0.3647  0.4590  0.0095
13764TIP3    H162707   5.204   4.847  13.263 -0.7486  0.0997 -1.2482
13764TIP3    H262708   5.319   4.756  13.301 -1.3455 -0.3901 -0.6018
13765TIP3   OH262709   4.640   0.055   4.687  0.0619 -0.0951 -0.1961
13765TIP3    H162710   4.707  -0.000   4.729 -1.1216 -0.8760  0.7088
13765TIP3    H262711   4.626   0.015   4.601  0.3259 -0.2785 -0.1543
13766TIP3   OH262712   6.382   0.685   0.680 -0.3638 -0.1235 -0.7305
13766TIP3    H162713   6.447   0.756   0.685 -1.2021  0.5867  0.7459
13766TIP3    H262714   6.311   0.722   0.628 -0.8452  0.1756  0.1249
13767TIP3   OH262715   4.261   2.920   2.133 -0.1351 -0.1919 -0.0920
13767TIP3    H162716   4.205   2.960   2.066  0.1681 -0.0380 -0.2539
13767TIP3    H262717   4.243   2.826   2.127 -0.7657 -0.0914  0.2112
13768TIP3   OH262718   0.290   3.424   3.967  0.2595  0.1412 -0.2569
13768TIP3    H162719   0.345   3.371   3.909  0.0072 -1.0493  0.5660
13768TIP3    H262720   0.351   3.463   4.029  0.2135 -1.1831  0.6603
13769TIP3   OH262721   5.053   5.866   0.871  0.2766  0.0553  0.2075
13769TIP3    H162722   4.990   5.832   0.808 -0.4160  0.8005  0.4905
13769TIP3    H262723   5.138   5.853   0.828 -0.0356 -1.2192 -0.0463
13770TIP3   OH262724   2.817   4.879  14.094  0.6293  0.1504  0.1986
13770TIP3    H162725   2.891   4.921  14.137 -0.1404  0.2408  1.4828
13770TIP3    H262726   2.824   4.787  14.119  2.5216 -0.6093 -2.9136
13771TIP3   OH262727   6.266   0.156  12.575 -0.0265  0.6529 -0.1533
13771TIP3    H162728   6.282   0.180  12.484  4.1216  0.9638  0.5799
13771TIP3    H262729   6.232   0.236  12.615 -0.4075  0.9569 -1.0690
13772TIP3   OH262730   1.373   4.254  14.074 -0.2488  0.4464 -0.1020
13772TIP3    H162731   1.365   4.335  14.124  0.6392  1.0438 -0.9199
13772TIP3    H262732   1.394   4.187  14.139  2.7225  1.5280  0.1358
13773TIP3   OH262733   4.034   0.483   0.364 -0.5351 -0.5432  0.2452
13773TIP3    H162734   4.093   0.555   0.342 -0.7873  0.0534  1.5048
13773TIP3    H262735   4.091   0.407   0.376 -0.4450 -1.1211 -3.3068
13774TIP3   OH262736   6.527   6.407   0.439 -0.7433 -0.1165  0.5447
13774TIP3    H162737   6.536   6.315   0.465  0.7024 -0.6483 -1.6772
13774TIP3    H262738   6.444   6.411   0.393  0.2394 -0.8644 -1.3738
13775TIP3   OH262739   2.530   2.027  14.310 -0.4126 -0.3615 -0.2394
13775TIP3    H162740   2.496   2.069  14.230  0.4558 -0.2697 -0.5668
13775TIP3    H262741   2.470   1.954  14.326  0.1313 -1.1536 -1.7088
13776TIP3   OH262742   0.623   3.927  12.605  0.5568  0.1192  0.4847
13776TIP3    H162743   0.644   3.907  12.696 -0.5317  0.5506  0.8388
13776TIP3    H262744   0.696   3.982  12.575  0.6276  0.4482  1.2688
13777TIP3   OH262745   5.600   4.193   1.005 -0.3286 -0.8703  0.3664
13777TIP3    H162746   5.513   4.220   0.974 -0.2484 -0.1990  0.7196
13777TIP3    H262747   5.583   4.125   1.070 -0.5959 -0.6948  0.4800
13778TIP3   OH262748   2.686   6.605   3.110 -0.3210  0.4175  0.4755
13778TIP3    H162749   2.725   6.677   3.160 -1.6597 -0.3055  2.6117
13778TIP3    H262750   2.686   6.637   3.019  2.7208  1.4959  0.7757
13779TIP3   OH262751   6.403   1.587  15.949  0.1016 -0.5812 -0.3784
13779TIP3    H162752   6.461   1.574  15.873  3.8929  0.7324  2.1179
13779TIP3    H262753   6.395   1.682  15.957  1.6103 -0.6058  2.0899
13780TIP3   OH262754   3.151   2.873  10.547 -0.4191  0.6333  0.5528
13780TIP3    H162755   3.100   2.791  10.546 -0.8074  0.8776 -0.1494
13780TIP3    H262756   3.172   2.889  10.455  1.7005  0.0653  0.9144
13781TIP3   OH262757   5.667   2.118  15.804 -0.5779 -0.2230 -0.5035
13781TIP3    H162758   5.751   2.113  15.759 -1.2682  1.4543 -2.0463
13781TIP3    H262759   5.613   2.052  15.760 -0.7544  0.2866 -1.0613
13782TIP3   OH262760   5.785   5.046   2.783 -0.4929  0.1535  0.1382
13782TIP3    H162761   5.869   5.091   2.786  0.2518 -1.1697 -0.3953
13782TIP3    H262762   5.730   5.092   2.846  1.5077 -0.7178  2.5918
13783TIP3   OH262763   5.771   3.992   3.267 -0.3463  0.0378 -0.1947
13783TIP3    H162764   5.724   4.065   3.226 -0.3832 -0.8658 -1.8026
13783TIP3    H262765   5.843   4.034   3.315 -0.9924  1.1994 -0.2078
13784TIP3   OH262766   6.619   2.332  16.249 -0.4053  0.5906  0.3770
13784TIP3    H162767   6.671   2.406  16.218  0.3808 -0.8015 -1.7398
13784TIP3    H262768   6.560   2.312  16.177 -1.9319  0.3425  1.6732
13785TIP3   OH262769   4.072   5.673  14.541 -0.1411  0.2725  0.3091
13785TIP3    H162770   4.072   5.719  14.457 -1.5750  0.5094  0.4267
13785TIP3    H262771   4.009   5.602  14.529 -0.8107  0.6780  1.3847
13786TIP3   OH262772   5.022   0.016   5.760  0.2600  0.6765 -0.4598
13786TIP3    H162773   4.984   0.066   5.832  1.1420  0.1074  0.4103
13786TIP3    H262774   5.047   0.082   5.696 -2.6191  1.0558 -1.3020
13787TIP3   OH262775   6.058   5.153   1.303 -0.2380 -0.4254 -0.0002
13787TIP3    H162776   6.071   5.202   1.222  1.4091 -0.4368  0.2525
13787TIP3    H262777   6.110   5.199   1.368 -1.3986 -0.5320  1.0237
13788TIP3   OH262778   3.641   1.244  12.014 -0.5720 -0.1254 -0.7765
13788TIP3    H162779   3.696   1.180  11.969 -0.6305 -0.4320 -0.4206
13788TIP3    H262780   3.580   1.190  12.066 -0.4920  0.2187 -0.3225
13789TIP3   OH262781   2.714   3.784   4.398  0.3980 -0.0911 -0.2988
13789TIP3    H162782   2.766   3.703   4.394  1.4002  0.3597  2.2556
13789TIP3    H262783   2.627   3.755   4.426  0.6661 -0.3265  0.3015
13790TIP3   OH262784   6.082   0.494  15.401  0.1190 -0.4475 -0.0455
13790TIP3    H162785   6.126   0.410  15.407 -0.4103 -0.5999  1.9802
13790TIP3    H262786   6.147   0.557  15.432 -0.4566 -0.4613  1.2107
13791TIP3   OH262787   1.612   5.845   4.565  0.8252  0.1378 -0.2715
13791TIP3    H162788   1.633   5.937   4.581  0.8456  0.1947 -0.6193
13791TIP3    H262789   1.660   5.797   4.632 -0.7359  0.5137  1.1570
13792TIP3   OH262790   2.824   5.342  16.679  0.1516 -0.0090  0.0496
13792TIP3    H162791   2.833   5.291  16.598  1.1878 -0.6176  0.5414
13792TIP3    H262792   2.858   5.428  16.657 -0.1534  0.0199 -0.3351
13793TIP3   OH262793   5.442   2.507   1.080 -1.3213  0.2454 -0.4371
13793TIP3    H162794   5.502   2.572   1.044 -0.2256 -0.2346  0.4934
13793TIP3    H262795   5.361   2.555   1.096 -0.6873  1.2555 -0.2293
13794TIP3   OH262796   0.053   0.403   2.365 -0.0312 -0.0376  0.1050
13794TIP3    H162797   0.131   0.458   2.354  1.8818 -2.5049  0.6622
13794TIP3    H262798   0.027   0.416   2.456 -2.1590  3.0804 -0.8627
13795TIP3   OH262799   3.959   4.899  11.727  0.5265  0.6206 -0.7430
13795TIP3    H162800   3.917   4.915  11.812  0.6960  1.6612 -0.8382
13795TIP3    H262801   3.911   4.827  11.688  0.2850  0.3078  0.1363
13796TIP3   OH262802   2.709   0.799  15.073  0.4850 -0.2036  0.3528
13796TIP3    H162803   2.680   0.778  15.162  0.9593 -1.0309  0.3194
13796TIP3    H262804   2.790   0.748  15.062  0.2813 -0.3108 -0.6471
13797TIP3   OH262805   4.792   2.513  11.445 -0.0984  0.0653 -0.0680
13797TIP3    H162806   4.862   2.488  11.385 -0.2207 -0.8715  0.1674
13797TIP3    H262807   4.796   2.609  11.449 -0.4611  0.1724 -2.0023
13798TIP3   OH262808   0.951   6.315   3.968  0.6862 -0.0381 -0.5035
13798TIP3    H162809   1.005   6.240   3.991  0.4394 -1.1328 -3.3329
13798TIP3    H262810   0.898   6.286   3.894 -2.1857  1.7336  0.7670
13799TIP3   OH262811   1.780   5.626   6.595 -0.0827 -0.1668 -0.0231
13799TIP3    H162812   1.842   5.686   6.554 -0.6935 -0.1775 -0.9694
13799TIP3    H262813   1.729   5.589   6.522 -0.4596 -0.9908  0.6426
13800TIP3   OH262814   2.882   2.047  12.738  0.0136 -0.0190 -0.4246
13800TIP3    H162815   2.849   2.058  12.649  0.9085 -0.7698 -0.8679
13800TIP3    H262816   2.805   2.025  12.790 -0.8729  2.6468 -0.5723
13801TIP3   OH262817   0.120   5.837   4.399  0.2497 -0.0759  0.3103
13801TIP3    H162818   0.025   5.851   4.392  0.2068  0.1724  1.3367
13801TIP3    H262819   0.157   5.925   4.400  0.3187 -0.1141  2.1562
13802TIP3   OH262820   1.916   6.388  11.613 -0.7548  0.4581 -0.3156
13802TIP3    H162821   1.903   6.427  11.700 -1.4535  1.9279 -1.0648
13802TIP3    H262822   2.011   6.382  11.605 -0.6692  0.7426  0.3770
13803TIP3   OH262823   6.015   3.567   1.463 -0.7057 -0.3546  0.1164
13803TIP3    H162824   6.011   3.494   1.401  1.9990 -2.0031  1.7659
13803TIP3    H262825   6.107   3.570   1.490 -0.7819  3.6822  0.1346
13804TIP3   OH262826   2.905   4.214   2.757  0.1094 -0.0024  0.4675
13804TIP3    H162827   2.857   4.212   2.674  0.6976  1.5816  0.0690
13804TIP3    H262828   2.878   4.295   2.799 -0.7318 -1.1351  2.1854
13805TIP3   OH262829   4.064   4.491   2.308  0.2034 -0.0113 -0.2333
13805TIP3    H162830   4.070   4.399   2.332  2.4157  0.7055  2.2365
13805TIP3    H262831   4.126   4.501   2.235  0.9565 -0.2322  0.3711
13806TIP3   OH262832   0.965   5.884   3.436 -0.3937  0.5359 -0.0185
13806TIP3    H162833   0.905   5.909   3.507 -0.8044  0.8341 -0.4701
13806TIP3    H262834   0.948   5.947   3.366 -0.5967 -0.2801 -0.7156
13807TIP3   OH262835   5.773   6.258  12.836 -0.1270 -0.6414  0.3375
13807TIP3    H162836   5.811   6.337  12.799 -0.3409  1.1067  3.5943
13807TIP3    H262837   5.848   6.202  12.857  0.2045 -0.1545  0.4572
13808TIP3   OH262838   2.909   4.465  17.020  0.2249  0.1029 -0.0754
13808TIP3    H162839   2.932   4.557  17.015 -0.2761  0.1974 -0.6583
13808TIP3    H262840   2.974   4.420  16.965  0.8801  0.0311  0.7507
13809TIP3   OH262841   4.293   0.657  15.388  0.3613 -0.0639 -0.1821
13809TIP3    H162842   4.222   0.594  15.405  0.2876 -0.3737 -1.5782
13809TIP3    H262843   4.253   0.723  15.331  0.7112  0.7228  0.4850
13810TIP3   OH262844   1.886   4.836   5.530 -0.7600 -0.4222 -0.0676
13810TIP3    H162845   1.851   4.922   5.507 -0.7829 -0.7581 -1.3246
13810TIP3    H262846   1.953   4.854   5.596 -1.1029  0.5164  0.0264
13811TIP3   OH262847   5.745   4.728   0.765  0.0683 -0.3480  0.2535
13811TIP3    H162848   5.767   4.692   0.851  1.6621  0.5486  0.2504
13811TIP3    H262849   5.654   4.755   0.773 -0.5755 -2.6013  0.8389
13812TIP3   OH262850   1.535   4.688  13.202  0.3405 -0.1408  0.2256
13812TIP3    H162851   1.485   4.610  13.225 -0.9592  0.6396  0.0907
13812TIP3    H262852   1.626   4.664  13.219 -0.1830 -1.1532  1.6897
13813TIP3   OH262853   6.621   1.681  11.387  0.6955  0.4181 -0.6607
13813TIP3    H162854   6.660   1.739  11.452  0.1458 -0.8561  0.8642
13813TIP3    H262855   6.529   1.707  11.384  0.7981  0.7239 -1.2211
13814TIP3   OH262856   4.617   4.324   5.323 -1.0003 -0.0101  0.2302
13814TIP3    H162857   4.523   4.333   5.333 -1.2879 -1.1343 -1.3769
13814TIP3    H262858   4.635   4.347   5.232  0.2164 -0.2347  0.4002
13815TIP3   OH262859   5.221   6.168  14.089 -0.1464 -0.2267 -0.1292
13815TIP3    H162860   5.224   6.123  14.174 -0.4805  0.2030  0.1169
13815TIP3    H262861   5.127   6.177  14.071 -0.0851 -2.1127 -1.5203
13816TIP3   OH262862   4.750   2.278  12.548  0.2794 -0.4572  0.1127
13816TIP3    H162863   4.783   2.354  12.596  0.2140  0.2845 -0.9728
13816TIP3    H262864   4.786   2.289  12.460  1.5129 -2.5212  0.3534
13817TIP3   OH262865   5.486   0.220  14.327 -0.6551  0.0447 -0.1720
13817TIP3    H162866   5.447   0.146  14.280 -0.1551 -0.7019  0.5795
13817TIP3    H262867   5.544   0.179  14.391 -0.2606  1.0979  0.1423
13818TIP3   OH262868   1.541   1.438  12.951  0.2163 -0.4921  0.2301
13818TIP3    H162869   1.634   1.417  12.940  0.2783  0.2625 -0.7253
13818TIP3    H262870   1.509   1.454  12.862 -0.7601 -0.4515  0.5830
13819TIP3   OH262871   3.001   5.519  15.157  0.2384 -0.3245 -0.8752
13819TIP3    H162872   3.002   5.462  15.235 -0.3403 -0.5005 -0.9905
13819TIP3    H262873   3.031   5.463  15.086  1.6201  0.0828 -0.6230
13820TIP3   OH262874   4.329   0.693  12.705  0.5604  0.2379 -0.6254
13820TIP3    H162875   4.376   0.631  12.762 -0.5772 -0.1370 -0.0899
13820TIP3    H262876   4.398   0.734  12.653  1.5476  0.0642  0.5192
13821TIP3   OH262877   2.155   0.373   6.130 -0.2506  0.0879  0.1522
13821TIP3    H162878   2.164   0.388   6.224  0.8657  1.4524 -0.1586
13821TIP3    H262879   2.068   0.335   6.121 -0.8609  1.0651  1.6167
13822TIP3   OH262880   1.447   5.337  14.355  0.0995  0.3652  0.2805
13822TIP3    H162881   1.521   5.327  14.295 -0.5869  0.8510 -0.6388
13822TIP3    H262882   1.422   5.429  14.348 -2.2663 -0.3804 -1.3704
13823TIP3   OH262883   5.478   2.172  13.543 -0.7706 -0.3316  0.1353
13823TIP3    H162884   5.492   2.080  13.524 -0.3259  0.1650 -2.0578
13823TIP3    H262885   5.511   2.184  13.632  0.7918 -1.8909 -0.2237
13824TIP3   OH262886   2.052   4.369   2.707  0.0428 -0.0275 -0.2434
13824TIP3    H162887   2.070   4.456   2.744  0.1969 -1.0009  2.0591
13824TIP3    H262888   2.118   4.312   2.748 -0.1855 -1.2733 -1.5781
13825TIP3   OH262889   6.622   5.541  14.426  0.0935  0.1787 -0.1502
13825TIP3    H162890   6.561   5.609  14.454 -1.8264 -1.4124 -0.3959
13825TIP3    H262891   6.570   5.462  14.421  1.7158 -0.8050 -2.4063
13826TIP3   OH262892   2.275   5.765  11.099  0.1814 -0.1874 -0.2057
13826TIP3    H162893   2.241   5.823  11.167  0.7666 -0.6032  0.4479
13826TIP3    H262894   2.310   5.823  11.031  0.2086  0.2218  0.1618
13827TIP3   OH262895   2.392   2.447   1.044 -0.1161  0.0169  0.6547
13827TIP3    H162896   2.354   2.461   1.130 -0.2451  1.7051  0.3497
13827TIP3    H262897   2.376   2.355   1.024 -1.7641  0.0895  1.6108
13828TIP3   OH262898   2.481   4.631   2.748 -0.0884  0.2194 -1.0354
13828TIP3    H162899   2.477   4.584   2.831 -1.0779  2.4596  0.2334
13828TIP3    H262900   2.573   4.657   2.739 -0.1477  0.7456 -0.1737
13829TIP3   OH262901   5.999   2.833   2.014 -0.4391  0.4931  0.5766
13829TIP3    H162902   5.951   2.822   2.096  1.0074  0.9469  1.5201
13829TIP3    H262903   5.934   2.865   1.952 -1.7048 -0.4734  1.3678
13830TIP3   OH262904   1.106   4.927  13.065 -0.6103  0.4828 -0.3110
13830TIP3    H162905   1.155   5.007  13.047 -0.9344  0.5371 -0.9600
13830TIP3    H262906   1.042   4.921  12.994 -1.1909  0.1244  0.2330
13831TIP3   OH262907   3.760   4.326   4.483 -0.2955  0.1611  0.2006
13831TIP3    H162908   3.731   4.415   4.463 -0.2774  0.1088 -0.0615
13831TIP3    H262909   3.852   4.325   4.458 -0.1227  0.2602  0.8159
13832TIP3   OH262910   1.335   0.293   4.616  0.3107 -0.4925  0.1741
13832TIP3    H162911   1.362   0.366   4.561 -0.2521 -0.8906 -0.6294
13832TIP3    H262912   1.366   0.316   4.703 -0.5417  1.0772  0.0796
13833TIP3   OH262913   5.974   6.677  14.448 -0.3910  0.3211 -0.0967
13833TIP3    H162914   6.011   6.737  14.383  2.3257 -0.0700  1.0377
13833TIP3    H262915   5.973   6.592  14.404 -0.9602  0.5234 -0.4873
13834TIP3   OH262916   5.444   6.162  16.899 -0.0256 -1.0398  0.1705
13834TIP3    H162917   5.510   6.227  16.875  0.3978 -2.3109 -2.2510
13834TIP3    H262918   5.433   6.173  16.994  0.3174  2.2640 -0.1168
13835TIP3   OH262919   5.517   3.792   5.849  0.2128 -0.6918  0.2481
13835TIP3    H162920   5.604   3.815   5.881  0.6275 -0.4673 -1.0288
13835TIP3    H262921   5.457   3.831   5.913  1.0024  0.5339  0.2605
13836TIP3   OH262922   4.349   5.021  15.630 -0.1330  0.4997  0.0258
13836TIP3    H162923   4.343   5.095  15.569 -0.0117 -0.3872 -1.0947
13836TIP3    H262924   4.443   5.004  15.638 -0.2133 -0.3464 -0.7453
13837TIP3   OH262925   1.636   4.587   2.852 -0.0784  0.0357 -0.1085
13837TIP3    H162926   1.669   4.520   2.794 -3.8520 -0.4775 -1.8320
13837TIP3    H262927   1.583   4.539   2.917  0.6239  0.9823  1.1958
13838TIP3   OH262928   3.277   3.615  11.501 -0.6078  0.9283 -0.6869
13838TIP3    H162929   3.282   3.550  11.431  1.6959 -0.8952  1.1228
13838TIP3    H262930   3.305   3.697  11.460 -0.6838  0.1806 -2.2453
13839TIP3   OH262931   3.211   3.435  15.223  0.4612 -0.4876  0.2215
13839TIP3    H162932   3.238   3.386  15.300 -3.1020  0.8112  2.4052
13839TIP3    H262933   3.129   3.394  15.196 -0.6072  1.8200 -0.1781
13840TIP3   OH262934   5.361   5.199   2.749 -0.0287 -0.0153 -0.0177
13840TIP3    H162935   5.330   5.290   2.751 -2.9181 -0.9768  1.9631
13840TIP3    H262936   5.343   5.169   2.660  0.0563  1.0694 -0.4021
13841TIP3   OH262937   5.101   6.470   2.353 -0.1264 -0.4717  0.1840
13841TIP3    H162938   5.154   6.541   2.388  0.1478 -2.2304  3.5518
13841TIP3    H262939   5.019   6.512   2.328 -0.2847  0.9514  2.8759
13842TIP3   OH262940   0.010   1.821  14.537 -0.6920  0.0238  0.7378
13842TIP3    H162941  -0.048   1.749  14.511  1.4521 -2.0105  1.3637
13842TIP3    H262942   0.094   1.798  14.497  0.0735  2.1139  1.1090
13843TIP3   OH262943   1.460   4.854   0.729 -0.1020  0.4377  0.0421
13843TIP3    H162944   1.450   4.766   0.765  0.7555  0.5590  0.5821
13843TIP3    H262945   1.413   4.851   0.645 -0.1349 -0.5092  0.0874
13844TIP3   OH262946   0.113   1.155   1.735  0.3739  0.1961 -0.4197
13844TIP3    H162947   0.140   1.192   1.651  2.4613 -0.6141 -0.1299
13844TIP3    H262948   0.140   1.063   1.730  0.9563  0.2616  1.3255
13845TIP3   OH262949   5.780   0.286   0.600 -0.5061  0.0386 -0.3784
13845TIP3    H162950   5.802   0.225   0.529 -0.4413 -0.6789  0.2446
13845TIP3    H262951   5.863   0.329   0.621 -0.0615 -1.3114  0.7068
13846TIP3   OH262952   5.390   1.413   0.411 -0.5027 -0.3295  0.1608
13846TIP3    H162953   5.432   1.353   0.474 -0.2456  0.7189  1.0085
13846TIP3    H262954   5.298   1.411   0.435 -0.4780 -0.3106  0.2587
13847TIP3   OH262955   6.388   1.976  13.469  0.3246  0.0924  0.2649
13847TIP3    H162956   6.335   2.049  13.437  0.6841  0.9121  1.5292
13847TIP3    H262957   6.381   1.981  13.564  0.7527 -1.2318  0.3758
13848TIP3   OH262958   6.256   0.686   2.337  0.2702 -0.1853  0.2659
13848TIP3    H162959   6.320   0.757   2.344 -1.0860  1.0790  0.1827
13848TIP3    H262960   6.218   0.679   2.425 -0.3235 -0.1118  0.0168
13849TIP3   OH262961   3.275   1.017  13.988  0.0732  0.5068 -0.4120
13849TIP3    H162962   3.201   0.987  14.040 -0.6733  1.1264 -1.0941
13849TIP3    H262963   3.295   0.944  13.929  0.5575  0.0216  0.3367
13850TIP3   OH262964   1.600   3.104   3.026  0.4588  0.4110 -0.3542
13850TIP3    H162965   1.514   3.066   3.007  0.3937  0.7290 -0.7166
13850TIP3    H262966   1.663   3.036   3.003  0.2092 -0.9755  2.8005
13851TIP3   OH262967   5.603   4.509  12.145 -0.4895  0.1336 -0.2001
13851TIP3    H162968   5.597   4.593  12.100 -0.1430 -0.3410 -1.1494
13851TIP3    H262969   5.570   4.445  12.081  0.4859 -0.6117  0.0255
13852TIP3   OH262970   6.016   4.894   5.631 -0.0164 -0.0933 -0.0140
13852TIP3    H162971   5.980   4.977   5.663  2.6623  1.4643 -0.8780
13852TIP3    H262972   5.951   4.862   5.569 -0.6227  1.8650 -0.4352
13853TIP3   OH262973   0.758   3.830  14.921 -0.1305  0.0770 -0.0357
13853TIP3    H162974   0.829   3.890  14.942 -0.8102  0.7520  0.3478
13853TIP3    H262975   0.763   3.819  14.826 -0.5110  1.3789 -0.2158
13854TIP3   OH262976   4.315   6.767   3.189  0.2268 -0.6101  0.0505
13854TIP3    H162977   4.349   6.678   3.199  2.0297 -0.0849 -1.1956
13854TIP3    H262978   4.350   6.797   3.105  1.3871  2.0217  1.3939
13855TIP3   OH262979   5.285   2.911   4.389 -0.3702 -0.1227 -0.5711
13855TIP3    H162980   5.200   2.906   4.434 -0.4058 -0.5748 -0.6868
13855TIP3    H262981   5.339   2.964   4.447 -0.5631 -0.2994 -0.2255
13856TIP3   OH262982   1.984   2.347  14.265 -0.7485 -0.2540  0.0709
13856TIP3    H162983   2.001   2.440  14.277 -2.2032 -0.0637  0.8192
13856TIP3    H262984   2.053   2.303  14.314  0.7008  0.4078 -1.3562
13857TIP3   OH262985   2.285   6.402   4.210  0.2788  0.2732 -0.1567
13857TIP3    H162986   2.331   6.465   4.154 -0.6722  1.6623  0.5978
13857TIP3    H262987   2.228   6.456   4.264 -3.1935 -1.4830 -1.9139
13858TIP3   OH262988   4.572   4.532   4.559  0.1691 -0.1136  0.1300
13858TIP3    H162989   4.631   4.578   4.499  0.7845 -1.1110 -0.0267
13858TIP3    H262990   4.591   4.571   4.645  1.6190 -0.9836  0.2145
13859TIP3   OH262991   4.985   0.203   4.645  0.1311  0.3886 -0.0534
13859TIP3    H162992   5.069   0.246   4.665  1.1915 -1.2528 -0.8761
13859TIP3    H262993   5.001   0.157   4.563 -1.1456 -1.1316  0.5308
13860TIP3   OH262994   4.566   4.965   5.266  0.5931  0.2835 -0.0939
13860TIP3    H162995   4.485   4.917   5.245  0.8169 -0.0782 -0.1426
13860TIP3    H262996   4.594   5.003   5.183  0.4577  0.4347 -0.0709
13861TIP3   OH262997   6.277   1.749   0.600 -0.1537  0.2429  0.1003
13861TIP3    H162998   6.236   1.826   0.639  0.0318  1.1248 -1.4131
13861TIP3    H262999   6.370   1.761   0.616 -0.2600 -0.5044  1.3224
13862TIP3   OH263000   5.797   1.933  12.085  0.5591  0.0021 -0.5702
13862TIP3    H163001   5.799   1.880  12.165 -0.2575  3.2984  1.7122
13862TIP3    H263002   5.707   1.923  12.053  0.3063  0.2784  0.0409
13863TIP3   OH263003   3.449   3.853   4.166  0.2453 -0.5783 -0.1215
13863TIP3    H163004   3.421   3.920   4.104  0.2897 -0.8995 -0.4863
13863TIP3    H263005   3.394   3.868   4.243  0.2227 -0.1507 -0.2157
13864TIP3   OH263006   2.049   1.952   3.670 -0.6438  0.8528  0.2172
13864TIP3    H163007   2.048   1.862   3.703  1.5362  0.3657 -0.9244
13864TIP3    H263008   2.068   1.943   3.577 -1.2874  2.4559 -0.0828
13865TIP3   OH263009   3.894   4.028  14.041  0.3071  0.2079  0.0373
13865TIP3    H163010   3.881   3.934  14.034 -0.5338  0.2993  0.3813
13865TIP3    H263011   3.934   4.053  13.957 -1.9262 -0.0364 -1.1166
13866TIP3   OH263012   0.685   4.524  11.506  0.0928  0.1590  1.0569
13866TIP3    H163013   0.728   4.447  11.469  0.7610  0.3046  1.5239
13866TIP3    H263014   0.752   4.566  11.559 -0.5806  0.4912  1.6504
13867TIP3   OH263015   1.718   3.726  14.154  0.3940 -0.1355  0.7379
13867TIP3    H163016   1.650   3.759  14.212 -0.2702  2.1889 -1.2754
13867TIP3    H263017   1.672   3.667  14.094  0.8106 -1.3489  1.5954
13868TIP3   OH263018   0.714   1.553   4.584 -0.9542 -0.6652  0.0273
13868TIP3    H163019   0.655   1.595   4.521 -1.1269  0.4314  0.9038
13868TIP3    H263020   0.744   1.625   4.640  1.3883 -1.1849 -0.5359
13869TIP3   OH263021   4.572   3.873   5.625  0.2108 -0.4584  0.1044
13869TIP3    H163022   4.663   3.867   5.655  0.1608  1.1686  0.6251
13869TIP3    H263023   4.579   3.889   5.531  0.4397 -1.0721  0.0124
13870TIP3   OH263024   6.776   3.720   6.062 -0.0339 -0.1451 -0.3202
13870TIP3    H163025   6.827   3.783   6.113  0.1465  0.0207 -0.7026
13870TIP3    H263026   6.759   3.648   6.123  0.4682 -0.1032 -0.1241
13871TIP3   OH263027   0.611   0.804  16.023  0.1859  0.2328  0.7663
13871TIP3    H163028   0.564   0.800  16.107  1.0171 -1.6320  1.1814
13871TIP3    H263029   0.564   0.742  15.967  1.1393 -0.4044  0.6618
13872TIP3   OH263030   3.047   1.642  16.181  0.2462  0.1662 -0.0401
13872TIP3    H163031   2.999   1.559  16.180  1.0843 -0.3330 -2.3536
13872TIP3    H263032   3.119   1.629  16.118  0.0807  2.8117 -0.8352
13873TIP3   OH263033   0.474   4.617   2.469  0.5641 -0.1091 -0.1941
13873TIP3    H163034   0.395   4.614   2.524  0.6476 -0.1623 -0.0775
13873TIP3    H263035   0.535   4.672   2.519  0.4788  0.2184 -0.4430
13874TIP3   OH263036   1.653   3.237   3.273  0.0697 -0.0062 -0.4786
13874TIP3    H163037   1.628   3.208   3.185 -0.7341  0.6825 -0.4827
13874TIP3    H263038   1.744   3.266   3.263 -0.7756  2.4267 -1.6774
13875TIP3   OH263039   0.335   6.649   3.429 -0.0982 -0.0403  0.7142
13875TIP3    H163040   0.362   6.704   3.502  1.6322 -0.8239  0.6996
13875TIP3    H263041   0.295   6.572   3.470  0.2410 -0.1608  0.8192
13876TIP3   OH263042   6.347   6.066  11.535 -0.2032 -0.3343 -0.1504
13876TIP3    H163043   6.396   5.989  11.563  0.8032  0.9082  1.5613
13876TIP3    H263044   6.274   6.071  11.596 -0.0437  0.3037 -0.0147
13877TIP3   OH263045   6.139   3.281   5.816 -0.5592  0.4637  0.0258
13877TIP3    H163046   6.226   3.311   5.841  0.1582  0.5839 -2.5037
13877TIP3    H263047   6.094   3.268   5.899  1.8599  0.3922  1.3737
13878TIP3   OH263048   0.008   1.416   0.425  0.2820 -0.3971 -0.0058
13878TIP3    H163049  -0.037   1.362   0.360  0.4363  0.0625 -0.4984
13878TIP3    H263050  -0.057   1.428   0.495  0.2312 -1.1759  0.0865
13879TIP3   OH263051   3.759   0.214   4.183 -0.1611  0.0582 -0.0990
13879TIP3    H163052   3.694   0.231   4.251 -1.6966 -1.2882 -1.1983
13879TIP3    H263053   3.711   0.221   4.101  1.1211 -0.7726 -0.9325
13880TIP3   OH263054   1.382   5.223  15.893  0.5547  0.3127  0.0969
13880TIP3    H163055   1.296   5.181  15.903 -0.5656  2.6752  0.9846
13880TIP3    H263056   1.433   5.189  15.966 -0.1975  0.1553  0.5622
13881TIP3   OH263057   4.942   3.875   2.648 -0.1707  0.1784  0.1631
13881TIP3    H163058   4.875   3.826   2.695  0.2422  0.2837  0.8689
13881TIP3    H263059   4.894   3.928   2.585 -0.6367 -1.0020 -0.4859
13882TIP3   OH263060   3.952   3.454   5.179 -0.2633  0.5179 -0.5204
13882TIP3    H163061   3.972   3.537   5.223  0.3044  0.5849 -0.9045
13882TIP3    H263062   4.033   3.403   5.185 -0.0987  0.6160 -1.6735
13883TIP3   OH263063   5.850   1.319  15.238  0.2232  0.2612 -0.4004
13883TIP3    H163064   5.855   1.363  15.323  1.0355 -0.5908  0.0036
13883TIP3    H263065   5.834   1.227  15.259  0.1537  0.0855 -1.1815
13884TIP3   OH263066   2.296   6.254  15.993  0.3386 -0.1114 -0.2669
13884TIP3    H163067   2.311   6.339  15.952 -0.1128 -0.2887 -0.7962
13884TIP3    H263068   2.210   6.226  15.961  0.3180 -0.5894  0.2053
13885TIP3   OH263069   0.138   5.555   3.913  0.0158 -0.0651  0.2128
13885TIP3    H163070   0.199   5.628   3.917 -1.8088  1.6187 -1.5761
13885TIP3    H263071   0.141   5.525   3.822  0.7426 -2.2541  0.9173
13886TIP3   OH263072   3.918   4.897  13.446  0.6897 -0.1614  0.0790
13886TIP3    H163073   3.985   4.855  13.393  0.0418  1.9174 -2.4945
13886TIP3    H263074   3.836   4.855  13.418  0.2359  1.6129 -1.2844
13887TIP3   OH263075   5.672   5.437  11.851  0.3927 -0.0366 -0.2383
13887TIP3    H163076   5.671   5.497  11.925 -2.8017 -1.1485  0.6603
13887TIP3    H263077   5.717   5.486  11.782  1.8954  1.6401  1.8609
13888TIP3   OH263078   2.574   0.881  12.059  0.2417  0.1127 -0.4394
13888TIP3    H163079   2.506   0.946  12.077 -1.0391 -1.3722  0.2247
13888TIP3    H263080   2.564   0.815  12.127  2.6631  0.0706 -0.0705
13889TIP3   OH263081   5.938   2.423   2.846  0.1188  0.3953  0.1948
13889TIP3    H163082   5.932   2.371   2.766  1.4132  1.9555 -0.9596
13889TIP3    H263083   5.973   2.507   2.817 -1.7005  1.8432  2.0475
13890TIP3   OH263084   2.099   0.976  13.932  0.5032  0.3867  0.0402
13890TIP3    H163085   2.178   0.938  13.895  0.0204 -0.4343 -0.1569
13890TIP3    H263086   2.039   0.984  13.857  0.7640  1.9992 -0.0293
13891TIP3   OH263087   0.587   5.108  11.200 -0.1881  0.0053  0.0606
13891TIP3    H163088   0.577   5.183  11.142 -0.6325 -1.5993 -1.9719
13891TIP3    H263089   0.550   5.137  11.283  0.1909  2.2243 -0.5187
13892TIP3   OH263090   2.077   1.915   3.394 -0.4014 -0.2389 -0.0455
13892TIP3    H163091   2.147   1.870   3.348  1.5574  2.2999  0.3161
13892TIP3    H263092   2.058   1.991   3.340 -0.8736  0.6128  1.2982
13893TIP3   OH263093   1.111   2.473   2.341  0.6304 -0.4946 -0.5882
13893TIP3    H163094   1.039   2.533   2.363  2.2400  0.5376  2.0755
13893TIP3    H263095   1.140   2.502   2.254 -0.8741  0.3117 -0.8528
13894TIP3   OH263096   5.243   1.463  12.985 -0.4786 -0.2407  0.2297
13894TIP3    H163097   5.186   1.392  13.014  1.6157 -2.0475  0.0542
13894TIP3    H263098   5.321   1.419  12.952  1.5353  2.2105  1.5668
13895TIP3   OH263099   4.678   3.403  13.713 -0.2815 -0.0825 -0.2982
13895TIP3    H163100   4.766   3.403  13.675 -1.2718 -0.0283 -2.6763
13895TIP3    H263101   4.654   3.311  13.719 -0.6409 -0.0507 -1.1068
13896TIP3   OH263102   6.424   3.927   0.633 -0.4156  1.0569 -0.3451
13896TIP3    H163103   6.361   3.854   0.632  0.8942 -0.0915 -1.5569
13896TIP3    H263104   6.442   3.942   0.726  1.2914 -1.9667 -0.1254
13897TIP3   OH263105   3.072   2.625   4.873  0.3432  0.0817  0.7239
13897TIP3    H163106   3.134   2.553   4.862  0.0538 -0.1851  0.8235
13897TIP3    H263107   2.987   2.585   4.855  0.3370  0.7702 -0.7847
13898TIP3   OH263108   5.962   4.060   1.186  0.3975 -0.1748  0.2907
13898TIP3    H163109   5.923   4.009   1.115  1.4060 -0.9148  0.2597
13898TIP3    H263110   5.920   4.146   1.179 -2.2989 -1.3461  1.1341
13899TIP3   OH263111   4.366   6.665  12.718  0.6197  0.1445  0.1062
13899TIP3    H163112   4.362   6.748  12.671 -1.5416 -0.5097 -0.9509
13899TIP3    H263113   4.408   6.605  12.657  0.8920  0.1196  0.3186
13900TIP3   OH263114   2.807   2.390   1.142 -0.3869 -0.1978  0.2885
13900TIP3    H163115   2.761   2.459   1.190 -0.8227 -0.2550 -0.0453
13900TIP3    H263116   2.875   2.360   1.203 -0.1645  0.5514  0.4192
13901TIP3   OH263117   2.274   5.452   0.119  0.0778  0.3364  0.1103
13901TIP3    H163118   2.336   5.478   0.187 -0.6109  0.5184  0.6851
13901TIP3    H263119   2.327   5.436   0.041  1.1367 -2.2173  1.3156
13902TIP3   OH263120   0.004   4.881  14.644 -0.0371 -0.0635  0.2173
13902TIP3    H163121   0.051   4.951  14.599 -2.0540  1.8616  1.0130
13902TIP3    H263122   0.025   4.893  14.737 -0.4818 -0.4113  0.3679
13903TIP3   OH263123   1.950   3.210   1.412 -0.3566  0.4916 -0.2384
13903TIP3    H163124   1.898   3.249   1.341 -0.2671  0.6826 -0.1988
13903TIP3    H263125   1.966   3.282   1.473  0.9250  0.7152 -0.8086
13904TIP3   OH263126   6.264   5.471  11.638  0.2020  0.1575  0.0474
13904TIP3    H163127   6.174   5.459  11.668 -0.5437  0.5352 -2.0268
13904TIP3    H263128   6.283   5.392  11.586  1.0077  0.1723  0.3012
13905TIP3   OH263129   1.444   3.404   4.282  0.3273  0.1241 -0.0491
13905TIP3    H163130   1.486   3.338   4.225  0.3273  0.0664  0.0176
13905TIP3    H263131   1.384   3.353   4.336  0.4761  0.1505  0.1432
13906TIP3   OH263132   5.233   0.120   3.217  0.0621 -0.0935 -0.0099
13906TIP3    H163133   5.155   0.105   3.271 -1.1586  2.0396 -1.1281
13906TIP3    H263134   5.202   0.110   3.127  0.9920  1.1403 -0.4825
13907TIP3   OH263135   4.101   3.041   4.748  0.0448 -0.3255  0.2182
13907TIP3    H163136   4.057   3.064   4.831 -0.3812  0.2382 -0.1566
13907TIP3    H263137   4.035   3.060   4.681 -0.1159 -2.1169 -0.1599
13908TIP3   OH263138   6.342   1.352   5.480  0.0688  0.0903  0.0692
13908TIP3    H163139   6.415   1.412   5.468  0.1183  0.1649  0.7390
13908TIP3    H263140   6.275   1.384   5.420  1.2571 -1.0984 -1.9290
13909TIP3   OH263141   2.905   5.799   5.837 -0.3521  0.0994  0.0523
13909TIP3    H163142   2.940   5.751   5.912  1.5634  1.3712 -0.0205
13909TIP3    H263143   2.908   5.891   5.864  0.9776  0.6191 -1.8226
13910TIP3   OH263144   4.254   4.024  14.912 -0.3848 -0.3443  0.5249
13910TIP3    H163145   4.232   4.055  14.999 -1.5288 -0.6066  0.3415
13910TIP3    H263146   4.187   4.062  14.855  0.1654 -0.4338 -0.1948
13911TIP3   OH263147   3.798   3.956   2.438 -0.2185 -0.4254 -0.7584
13911TIP3    H163148   3.733   3.972   2.370 -2.2259  0.2768  1.2494
13911TIP3    H263149   3.752   3.976   2.520  2.1959 -1.0082  0.7863
13912TIP3   OH263150   5.721   4.173  16.666  0.3201  0.2018 -0.1218
13912TIP3    H163151   5.794   4.143  16.611  1.5009  2.6047  0.0717
13912TIP3    H263152   5.764   4.217  16.740 -1.3163  0.7582  0.5055
13913TIP3   OH263153   2.838   4.928   2.432 -0.4444 -0.5149  0.5054
13913TIP3    H163154   2.879   4.848   2.399 -0.2180 -0.6762  1.1556
13913TIP3    H263155   2.771   4.950   2.368  0.8783 -0.0633 -0.7627
13914TIP3   OH263156   4.204   3.801  16.887  0.0548  0.0949  0.2366
13914TIP3    H163157   4.161   3.730  16.840 -1.3931  1.9000 -1.2766
13914TIP3    H263158   4.202   3.775  16.979 -1.3084 -1.3730 -0.1922
13915TIP3   OH263159   1.989   3.382   5.203  0.1079  0.3866 -0.2776
13915TIP3    H163160   2.066   3.354   5.153 -0.0684 -1.6003  0.5082
13915TIP3    H263161   1.990   3.478   5.198  3.6452  0.5138  1.1805
13916TIP3   OH263162   5.675   3.512   5.036 -0.2142  0.3151  0.3796
13916TIP3    H163163   5.665   3.506   5.131  0.9508 -0.1389  0.4887
13916TIP3    H263164   5.709   3.601   5.022 -5.3434  2.3636 -0.1076
13917TIP3   OH263165   0.225   5.026  16.933 -0.4991 -0.4232 -0.2343
13917TIP3    H163166   0.223   5.118  16.906  0.2242 -0.5086 -0.5980
13917TIP3    H263167   0.217   4.977  16.851 -0.6730 -0.6874 -0.0604
13918TIP3   OH263168   0.697   4.449  14.865 -0.0417  0.0727 -0.4338
13918TIP3    H163169   0.686   4.544  14.868 -0.3706  0.0127  0.8518
13918TIP3    H263170   0.609   4.415  14.847 -0.1806 -0.0309  0.4078
13919TIP3   OH263171   1.034   0.004  12.233 -0.0780 -0.2811 -0.4644
13919TIP3    H163172   1.119   0.040  12.209  0.3376 -0.7633  0.2995
13919TIP3    H263173   1.043  -0.090  12.220  0.1253 -0.5423  1.4946
13920TIP3   OH263174   4.697   5.975   5.310  0.0308  0.1266 -0.4366
13920TIP3    H163175   4.713   6.011   5.397  1.3921 -0.5942 -0.3755
13920TIP3    H263176   4.756   6.023   5.252 -1.1235  0.8494 -1.0280
13921TIP3   OH263177   3.613   6.133   1.785  0.2291  0.8036 -0.4309
13921TIP3    H163178   3.557   6.086   1.724 -0.2329  0.8255 -0.0239
13921TIP3    H263179   3.569   6.217   1.799  1.0338  1.3571 -1.1347
13922TIP3   OH263180   2.872   0.656  13.263  0.1586  0.0745  0.2088
13922TIP3    H163181   2.901   0.633  13.351  0.0932  0.1452  0.2483
13922TIP3    H263182   2.778   0.640  13.264 -0.1306  1.8003  0.6927
13923TIP3   OH263183   3.861   1.610   4.968  0.1027  0.0246 -0.1326
13923TIP3    H163184   3.833   1.535   4.915 -0.3708 -0.2744  0.5252
13923TIP3    H263185   3.957   1.609   4.962  0.2644 -2.1552  1.8663
13924TIP3   OH263186   1.810   6.189  12.019  0.1874  0.0512 -0.1260
13924TIP3    H163187   1.733   6.239  12.045  0.3237  0.1755  0.0330
13924TIP3    H263188   1.836   6.141  12.097  0.3164  0.0661 -0.1595
13925TIP3   OH263189   4.489   2.903  12.238 -0.5292 -0.2425 -0.3233
13925TIP3    H163190   4.435   2.949  12.173  0.5242  0.4636 -0.7033
13925TIP3    H263191   4.577   2.903  12.200 -0.0284 -0.3499  0.8436
13926TIP3   OH263192   3.546   3.098  16.067 -0.0595 -0.3629 -0.1042
13926TIP3    H163193   3.604   3.114  15.992 -0.8857 -3.6448 -1.5238
13926TIP3    H263194   3.604   3.067  16.136  0.1964 -1.5270 -0.8207
13927TIP3   OH263195   2.336   4.354  15.204  0.0896 -0.5842 -0.0512
13927TIP3    H163196   2.249   4.393  15.195 -0.7143 -2.3045  0.0604
13927TIP3    H263197   2.382   4.412  15.265 -0.5207  1.0618 -1.1280
13928TIP3   OH263198   3.105   0.521  15.488  0.8126 -0.2006 -0.7689
13928TIP3    H163199   3.184   0.468  15.502  0.7921 -0.3602 -1.2411
13928TIP3    H263200   3.106   0.540  15.394  1.2939  1.3912 -0.4578
13929TIP3   OH263201   0.115   4.165  12.166  0.0093  0.2975 -0.3561
13929TIP3    H163202   0.107   4.121  12.251  0.6494 -1.2904 -1.0970
13929TIP3    H263203   0.200   4.210  12.170 -0.4396  1.0958  0.2341
13930TIP3   OH263204   6.379   0.309   1.724  0.1351 -0.2419  0.1747
13930TIP3    H163205   6.429   0.387   1.697  0.2897  0.5439  2.5814
13930TIP3    H263206   6.377   0.254   1.646  0.9704  1.6933 -1.2691
13931TIP3   OH263207   4.994   6.367  11.311  0.2596  0.4878 -0.9941
13931TIP3    H163208   5.032   6.302  11.252 -0.5195 -0.0383 -0.9240
13931TIP3    H263209   4.911   6.329  11.338 -0.4701  1.7721 -1.3961
13932TIP3   OH263210   3.707   3.942  11.492  0.6759  0.2181  0.4332
13932TIP3    H163211   3.784   3.896  11.458 -1.0785 -1.3589 -1.4857
13932TIP3    H263212   3.744   4.009  11.550  3.6249  0.8641 -2.0416
13933TIP3   OH263213   0.420   1.980   4.159 -0.1112  0.3506  0.1055
13933TIP3    H163214   0.448   1.890   4.175  0.1146  0.5913  1.0760
13933TIP3    H263215   0.486   2.015   4.099  1.9385  1.0344  2.6916
13934TIP3   OH263216   4.587   3.771  14.700 -1.0847 -0.4852 -0.2632
13934TIP3    H163217   4.639   3.754  14.778 -2.0268 -0.7532  0.3121
13934TIP3    H263218   4.580   3.686  14.656  0.8054 -0.0292 -1.5041
13935TIP3   OH263219   2.980   1.479  12.021  0.1033  0.7655  0.4206
13935TIP3    H163220   2.951   1.411  11.960  0.1796 -0.5306  1.7909
13935TIP3    H263221   2.922   1.470  12.096  1.0709  1.2191  1.2414
13936TIP3   OH263222   3.238   2.504   1.488 -0.7939  0.0548  0.0212
13936TIP3    H163223   3.312   2.493   1.428 -0.9037  1.0711 -0.3043
13936TIP3    H263224   3.213   2.414   1.512 -0.0919 -0.3209 -0.6407
13937TIP3   OH263225   4.427   5.696  15.692  0.2066 -0.1388  0.6779
13937TIP3    H163226   4.504   5.676  15.639  1.4435  2.4231  1.4338
13937TIP3    H263227   4.373   5.751  15.636  0.6500  1.0651  1.4221
13938TIP3   OH263228   1.077   6.515   3.844 -0.3839  0.1393  0.4952
13938TIP3    H163229   1.027   6.451   3.895 -0.2523  0.1885  0.6861
13938TIP3    H263230   1.169   6.495   3.863 -0.3510  0.6776  0.9120
13939TIP3   OH263231   5.379   5.275   1.043  0.3269  0.5038 -0.0890
13939TIP3    H163232   5.416   5.352   1.086  0.8526 -0.1053  0.5676
13939TIP3    H263233   5.449   5.210   1.046  0.1184  0.2187 -1.2401
13940TIP3   OH263234   6.048   6.391   5.045 -0.1669 -0.7249 -0.4283
13940TIP3    H163235   5.982   6.457   5.023 -0.4315 -1.2620 -1.2799
13940TIP3    H263236   6.114   6.399   4.975 -1.2054 -2.7146 -1.6847
13941TIP3   OH263237   2.524   3.066  16.714  0.3184  0.3343 -0.1494
13941TIP3    H163238   2.554   2.980  16.744 -1.5048 -0.4265 -0.4237
13941TIP3    H263239   2.588   3.092  16.648  1.3623 -0.4205  0.5423
13942TIP3   OH263240   6.012   3.960   5.023 -0.1507  0.2672  0.4017
13942TIP3    H163241   5.960   3.974   4.944 -0.4913  0.2778  0.6254
13942TIP3    H263242   5.987   4.031   5.082  0.3987  0.4930  0.3698
13943TIP3   OH263243   5.208   2.981  14.803  0.6129 -0.2317  0.3390
13943TIP3    H163244   5.215   3.036  14.726  0.8073  1.0773  1.2724
13943TIP3    H263245   5.137   3.020  14.854 -0.9317 -2.2896 -0.1222
13944TIP3   OH263246   2.698   0.272  16.301 -0.4070 -0.4287 -0.3032
13944TIP3    H163247   2.786   0.296  16.330 -0.4871 -0.7028  0.1753
13944TIP3    H263248   2.651   0.250  16.381 -1.9260  2.9101 -0.1895
13945TIP3   OH263249   3.754   2.255   0.335  0.2099  0.2192  0.1364
13945TIP3    H163250   3.699   2.331   0.314  0.0354 -0.3484 -1.5917
13945TIP3    H263251   3.834   2.268   0.283  0.1815 -0.7565 -0.1715
13946TIP3   OH263252   3.416   4.999  13.027 -0.5712 -1.1288  0.5320
13946TIP3    H163253   3.477   5.059  13.068 -1.0166  1.0019 -1.7707
13946TIP3    H263254   3.349   4.983  13.094  0.9513 -1.1955  2.0711
13947TIP3   OH263255   1.510   6.449   0.460  0.4407 -0.7280 -0.1314
13947TIP3    H163256   1.518   6.364   0.504  0.8108 -0.3296  0.5728
13947TIP3    H263257   1.600   6.480   0.452  0.2664 -0.1436  0.1261
13948TIP3   OH263258   5.599   3.403  11.668 -0.0255 -0.5256  0.1842
13948TIP3    H163259   5.565   3.319  11.699 -0.5055 -0.4328 -0.0905
13948TIP3    H263260   5.537   3.468  11.702  1.3286 -0.1174  1.9158
13949TIP3   OH263261   4.912   1.961  11.824 -0.1798 -0.1081  0.5327
13949TIP3    H163262   4.988   2.008  11.792  1.1136 -0.8079  2.4844
13949TIP3    H263263   4.914   1.876  11.780  1.2505 -0.8366  1.9407
13950TIP3   OH263264   6.389   5.013   1.538  0.3507  0.1930  0.1135
13950TIP3    H163265   6.460   5.073   1.515 -1.0597  1.4198 -1.1538
13950TIP3    H263266   6.333   5.063   1.597 -0.2583 -0.2276 -0.0991
13951TIP3   OH263267   5.975   5.611  14.991  0.0174  0.4854 -0.0933
13951TIP3    H163268   5.945   5.569  15.072  0.6657 -0.6285 -0.4282
13951TIP3    H263269   6.011   5.695  15.020 -1.2859  0.8443  0.5806
13952TIP3   OH263270   6.715   5.285   0.467 -0.0944 -0.3919  0.2466
13952TIP3    H163271   6.723   5.233   0.387  0.5900 -1.8905  1.2661
13952TIP3    H263272   6.620   5.293   0.482 -0.1960 -1.7263  0.3209
13953TIP3   OH263273   6.525   5.542   3.760 -0.6834  0.4010  0.7495
13953TIP3    H163274   6.518   5.633   3.788 -0.9534  1.2345 -1.9387
13953TIP3    H263275   6.508   5.544   3.666 -1.6759 -2.5636  0.8240
13954TIP3   OH263276   5.629   1.725  13.987  0.1240 -0.5901  0.4403
13954TIP3    H163277   5.585   1.763  14.063 -0.4057  2.3557 -1.2495
13954TIP3    H263278   5.566   1.734  13.916  1.9936  0.1487 -1.1610
13955TIP3   OH263279   1.074   1.579   4.005 -0.2415  0.3308  0.0762
13955TIP3    H163280   1.098   1.541   3.920  0.2791  1.6253 -0.3709
13955TIP3    H263281   1.131   1.656   4.013 -0.1737  0.1262  1.6765
13956TIP3   OH263282   3.399   4.632  13.576 -0.1347  0.4433  0.3481
13956TIP3    H163283   3.319   4.647  13.627 -0.6811 -0.5898 -0.1865
13956TIP3    H263284   3.426   4.719  13.548 -1.5905  0.7350 -0.2266
13957TIP3   OH263285   4.156   2.876  13.809  0.2609 -0.0901  0.8148
13957TIP3    H163286   4.091   2.945  13.799  1.2757  0.8945  0.9202
13957TIP3    H263287   4.181   2.853  13.719 -0.0937 -0.3425  0.7790
13958TIP3   OH263288   2.672   0.138   3.583  0.2754  0.1991 -0.2699
13958TIP3    H163289   2.699   0.187   3.506  1.2570  0.5045  0.2586
13958TIP3    H263290   2.587   0.100   3.559  0.5918  0.2494 -1.5101
13959TIP3   OH263291   3.330   0.440  16.409 -0.0976  0.2921 -0.1917
13959TIP3    H163292   3.310   0.385  16.334 -0.1296 -0.7853  0.6001
13959TIP3    H263293   3.252   0.494  16.421 -1.1362 -1.3842  0.6865
13960TIP3   OH263294   6.374   1.456  16.641 -0.0549 -0.8569  0.0425
13960TIP3    H163295   6.366   1.513  16.718 -2.2650 -0.0718 -0.7356
13960TIP3    H263296   6.468   1.451  16.625  0.2365  1.8950  0.6268
13961TIP3   OH263297   6.470   0.156   5.705  0.3073 -0.1091 -0.3561
13961TIP3    H163298   6.485   0.235   5.653 -0.6035  1.6616  1.9799
13961TIP3    H263299   6.494   0.181   5.794  0.5610 -2.6653  0.3304
13962TIP3   OH263300   0.262   4.873   2.957 -0.1587  0.3383 -0.1600
13962TIP3    H163301   0.257   4.794   3.011  2.1221 -0.0900 -0.4932
13962TIP3    H263302   0.310   4.936   3.011 -1.0033  1.1379 -0.3232
13963TIP3   OH263303   2.491   4.216  16.260 -0.7253  0.7492  0.5047
13963TIP3    H163304   2.567   4.206  16.204 -2.2589 -1.2611 -1.3144
13963TIP3    H263305   2.490   4.309  16.283  1.6116  1.0222 -0.3425
13964TIP3   OH263306   5.413   3.838  14.288 -0.6222  0.2886 -0.0240
13964TIP3    H163307   5.442   3.752  14.256 -2.0178 -0.3285  0.3130
13964TIP3    H263308   5.367   3.877  14.213  1.2706  1.3854 -0.6512
13965TIP3   OH263309   0.051   1.372  11.077 -0.4872  0.0795  0.0119
13965TIP3    H163310   0.051   1.455  11.125  0.4484  1.2186 -1.8663
13965TIP3    H263311   0.144   1.352  11.065 -0.6652  0.7954 -2.8760
13966TIP3   OH263312   1.763   4.017   5.697 -0.3580 -0.2329  0.2583
13966TIP3    H163313   1.806   4.046   5.617 -0.9128  0.4434  0.1966
13966TIP3    H263314   1.730   4.097   5.737  0.7296 -0.4662  1.6492
13967TIP3   OH263315   3.039   5.770  11.210 -0.0140  0.4512 -0.2525
13967TIP3    H163316   3.002   5.737  11.128  1.1822  1.4881 -1.2311
13967TIP3    H263317   2.963   5.793  11.263 -0.8287 -1.4245 -0.5428
13968TIP3   OH263318   1.278   3.497  11.093  0.4028  0.0750  0.1936
13968TIP3    H163319   1.252   3.407  11.077 -0.4345  0.5385 -1.0689
13968TIP3    H263320   1.250   3.514  11.184 -0.9534 -0.4083 -0.1192
13969TIP3   OH263321   3.609   4.488   2.503  0.2973 -0.1530 -0.4951
13969TIP3    H163322   3.698   4.457   2.521  1.2959  2.4902 -0.6633
13969TIP3    H263323   3.569   4.500   2.589  0.6351  0.1505 -0.3808
13970TIP3   OH263324   3.153   4.992   4.213 -0.1283 -0.1296  0.0831
13970TIP3    H163325   3.210   4.936   4.265  0.2732  1.0087  0.8802
13970TIP3    H263326   3.130   5.064   4.271 -1.3901  0.0584 -0.6339
13971TIP3   OH263327   2.530   6.648   4.926  0.5722  0.7052  0.2107
13971TIP3    H163328   2.528   6.743   4.937  0.7012  0.7813 -0.3942
13971TIP3    H263329   2.513   6.613   5.013 -3.3181  1.2997 -0.2421
13972TIP3   OH263330   5.682   0.923   3.412  1.0806  0.3405  0.3214
13972TIP3    H163331   5.730   0.989   3.362  0.9847  0.4894  0.4235
13972TIP3    H263332   5.591   0.953   3.409  0.8711 -0.3781 -0.5599
13973TIP3   OH263333   5.662   3.914   2.139  0.2241 -0.4514 -0.0642
13973TIP3    H163334   5.665   3.991   2.083 -1.2221  0.6357  1.3199
13973TIP3    H263335   5.710   3.939   2.218 -0.5832 -0.8242  0.5547
13974TIP3   OH263336   6.206   2.094  16.665  0.5227 -0.6543 -0.1144
13974TIP3    H163337   6.128   2.140  16.697  0.0565 -1.7829  0.4002
13974TIP3    H263338   6.179   2.053  16.583  0.7353 -0.5788 -0.2229
13975TIP3   OH263339   5.206   3.339   0.032 -0.0325 -0.1040  1.0401
13975TIP3    H163340   5.202   3.431   0.058  1.1856  0.4249 -0.5644
13975TIP3    H263341   5.142   3.332  -0.039  2.4894  0.4259 -1.3902
13976TIP3   OH263342   4.767   5.433  15.998 -0.2967 -0.3000  0.3116
13976TIP3    H163343   4.782   5.509  15.942  1.9783 -0.1550  1.0758
13976TIP3    H263344   4.693   5.457  16.053 -1.9928 -0.0915 -1.9606
13977TIP3   OH263345   6.411   5.750   5.328 -0.2047 -0.3065 -0.1114
13977TIP3    H163346   6.473   5.678   5.316  0.4524  0.2916 -0.3489
13977TIP3    H263347   6.448   5.823   5.277 -1.2162 -0.0056 -0.4410
13978TIP3   OH263348   4.868   1.714  15.322  0.1829  0.1721 -0.4551
13978TIP3    H163349   4.866   1.643  15.386 -0.7921 -0.7926 -1.5241
13978TIP3    H263350   4.954   1.755  15.334  0.9918 -1.5606 -0.2106
13979TIP3   OH263351   6.245   4.189   4.983  0.3689  0.2181  0.2029
13979TIP3    H163352   6.261   4.235   4.901  0.4891  1.7300  1.0575
13979TIP3    H263353   6.159   4.220   5.011  1.3555  1.5335  1.8379
13980TIP3   OH263354   1.680   4.548  16.610  0.1922  0.6608 -0.3670
13980TIP3    H163355   1.742   4.477  16.626  2.1642  2.4814  0.3358
13980TIP3    H263356   1.730   4.613  16.560 -1.8938  1.0844 -1.9929
13981TIP3   OH263357   0.329   0.148  14.565  0.1583  0.0174 -0.0243
13981TIP3    H163358   0.322   0.229  14.514 -0.8052 -0.1112 -0.1019
13981TIP3    H263359   0.293   0.080  14.508 -1.4704 -0.0347  1.0460
13982TIP3   OH263360   5.587   2.385   2.793  0.7875 -0.2083 -0.0798
13982TIP3    H163361   5.609   2.408   2.703  0.5364  1.0212  0.1641
13982TIP3    H263362   5.666   2.346   2.828  1.3378  0.5912 -0.4131
13983TIP3   OH263363   6.193   0.645  13.990 -0.2575 -0.4691 -0.0653
13983TIP3    H163364   6.227   0.729  13.960 -0.7970  0.1147  0.9514
13983TIP3    H263365   6.221   0.582  13.923  0.4503  0.4581 -0.6367
13984TIP3   OH263366   5.689   0.983  17.039 -0.8345 -0.7046 -0.1380
13984TIP3    H163367   5.762   0.975  16.977 -1.7679  0.7346 -1.4831
13984TIP3    H263368   5.731   1.003  17.123  0.4004 -1.5960 -0.5346
13985TIP3   OH263369   0.318   4.363  17.163 -0.1287  0.1778  0.3675
13985TIP3    H163370   0.282   4.390  17.248 -0.0289 -1.4310  0.9264
13985TIP3    H263371   0.390   4.424  17.148  1.9707 -1.5228  3.0204
13986TIP3   OH263372   0.616   1.836   5.467 -0.1685  0.1227 -0.2602
13986TIP3    H163373   0.553   1.818   5.397 -2.0406  0.1457  1.3693
13986TIP3    H263374   0.594   1.774   5.536  1.2065  0.5513  0.5975
13987TIP3   OH263375   0.204   1.397  13.785 -0.5900 -0.6333  0.1743
13987TIP3    H163376   0.112   1.403  13.808 -0.4157  0.5751  0.6078
13987TIP3    H263377   0.212   1.443  13.702 -0.4461 -1.1015 -0.0735
13988TIP3   OH263378   0.905   3.627   3.452 -0.6351  0.1260  0.2019
13988TIP3    H163379   0.831   3.653   3.507  0.6279  0.5963  1.7141
13988TIP3    H263380   0.919   3.534   3.474 -0.1483  0.3067  0.6635
13989TIP3   OH263381   0.527   3.701  14.023 -0.1017 -0.4207 -0.0581
13989TIP3    H163382   0.463   3.630  14.020 -2.2190  1.4541  0.1850
13989TIP3    H263383   0.528   3.736  13.934 -1.7851  1.5901  0.6767
13990TIP3   OH263384   3.719   5.944  11.671 -0.8134 -0.0429  0.2895
13990TIP3    H163385   3.754   5.862  11.636 -1.0779 -0.4583  0.9942
13990TIP3    H263386   3.796   5.991  11.703 -0.6254  0.1263 -0.3926
13991TIP3   OH263387   2.749   5.902   3.167 -0.0657  0.0053 -0.9283
13991TIP3    H163388   2.687   5.964   3.127 -0.2302 -0.3557 -1.2381
13991TIP3    H263389   2.693   5.832   3.201  0.1020  0.1473 -0.3648
13992TIP3   OH263390   2.106   0.824   6.778  0.2226  0.5603  0.5778
13992TIP3    H163391   2.038   0.775   6.731  0.1591 -0.0622  1.3163
13992TIP3    H263392   2.183   0.819   6.721 -0.3147  1.2119 -0.2342
13993TIP3   OH263393   0.140   5.591  13.331  0.5470  0.0046 -0.1625
13993TIP3    H163394   0.084   5.515  13.346  1.1130 -0.1335  1.3486
13993TIP3    H263395   0.166   5.583  13.240  0.5061 -1.5719 -0.0608
13994TIP3   OH263396   6.060   0.477  12.128 -0.6717  0.0221 -0.5195
13994TIP3    H163397   6.037   0.396  12.083 -1.5143 -0.5551  0.9147
13994TIP3    H263398   5.993   0.539  12.100 -1.1487 -0.3122 -0.1279
13995TIP3   OH263399   0.294   5.796  16.027 -0.6646 -0.2034  0.0316
13995TIP3    H163400   0.305   5.888  16.004  0.7734 -0.1672  0.8491
13995TIP3    H263401   0.312   5.748  15.946  1.1162  0.1000  0.2443
13996TIP3   OH263402   1.928   3.915  12.047 -0.8570 -0.2882  0.0076
13996TIP3    H163403   1.882   3.983  11.998 -1.5120 -0.8703 -0.2007
13996TIP3    H263404   1.880   3.834  12.027  0.1031 -0.8706 -0.0160
13997TIP3   OH263405   0.755   1.006   4.175  0.2017 -0.0868  0.4056
13997TIP3    H163406   0.800   0.973   4.253  0.0486 -0.8264  0.1883
13997TIP3    H263407   0.748   0.930   4.117 -3.4655 -0.5781  1.4106
13998TIP3   OH263408   1.672   1.200   1.860  0.4159  0.7594 -0.1343
13998TIP3    H163409   1.611   1.274   1.858 -0.6465 -0.1293 -0.6361
13998TIP3    H263410   1.617   1.123   1.849  1.4538 -0.1572  0.9319
13999TIP3   OH263411   1.206   0.471   3.390 -0.0915  0.5387  0.3731
13999TIP3    H163412   1.191   0.449   3.482 -0.5777  0.1136  0.1928
13999TIP3    H263413   1.123   0.451   3.347  0.6456 -0.8002 -0.4340
14000TIP3   OH263414   0.158   4.625   3.470 -0.0747 -0.6019 -0.2610
14000TIP3    H163415   0.144   4.600   3.561 -1.2024 -0.3465 -0.3555
14000TIP3    H263416   0.073   4.657   3.441  0.0444 -1.5470 -1.6791
14001TIP3   OH263417   6.202   3.474  11.088 -0.2687 -0.3152  0.3005
14001TIP3    H163418   6.261   3.470  11.164  0.9965 -0.8040 -0.6874
14001TIP3    H263419   6.161   3.560  11.094 -0.9532 -0.7355  2.1023
14002TIP3   OH263420   0.284   2.027  15.990  0.4249  0.3896 -0.0331
14002TIP3    H163421   0.232   2.048  15.913 -0.0577 -1.0090 -0.1053
14002TIP3    H263422   0.220   2.005  16.057  0.7478  3.7897  1.4882
14003TIP3   OH263423   5.961   5.273   3.450  0.1490 -0.4972  0.7712
14003TIP3    H163424   6.044   5.268   3.496  0.0301  1.5866  1.2862
14003TIP3    H263425   5.980   5.322   3.370 -0.3976 -0.7722  0.4663
14004TIP3   OH263426   4.013   2.201  15.696  0.4456 -0.3392  0.1524
14004TIP3    H163427   4.078   2.140  15.731  0.3401 -0.9967 -0.7708
14004TIP3    H263428   4.061   2.255  15.634 -0.0601 -1.4904 -1.2940
14005TIP3   OH263429   4.027   0.544   3.264  0.1646 -0.2274 -0.2580
14005TIP3    H163430   3.974   0.617   3.295 -1.8246 -1.2558 -1.1591
14005TIP3    H263431   4.036   0.486   3.340 -1.9544 -1.1544 -0.6819
14006TIP3   OH263432   6.266   2.087   4.995  0.2010 -0.0589 -0.7270
14006TIP3    H163433   6.218   2.138   4.930 -1.2506  1.3629  1.4180
14006TIP3    H263434   6.270   2.142   5.073  0.0718 -2.5332  1.1166
14007TIP3   OH263435   1.355   2.432   2.638  0.2065 -0.0588 -0.4862
14007TIP3    H163436   1.260   2.426   2.648  0.2776  0.9038  0.8306
14007TIP3    H263437   1.390   2.359   2.689  0.1641 -0.7107 -1.3748
14008TIP3   OH263438   6.206   1.167   2.076  0.6363 -0.1039 -0.1151
14008TIP3    H163439   6.156   1.249   2.082  0.5874  0.0047 -1.7011
14008TIP3    H263440   6.203   1.145   1.983  0.0891 -2.2774  0.4045
14009TIP3   OH263441   6.220   0.060   6.372  0.3704 -0.1121 -0.3124
14009TIP3    H163442   6.189   0.092   6.288  1.7990 -0.2699 -0.9071
14009TIP3    H263443   6.302   0.108   6.388  1.1427 -1.5230  0.0436
14010TIP3   OH263444   2.936   4.778   5.028  0.2391 -0.8093 -0.2797
14010TIP3    H163445   2.864   4.746   4.973  0.5848 -0.5616 -0.8721
14010TIP3    H263446   3.000   4.814   4.967  0.7428 -0.7641  0.2667
14011TIP3   OH263447   4.451   5.441   1.024  0.6076  0.0965  0.2857
14011TIP3    H163448   4.455   5.369   1.087 -1.5988 -1.5252 -1.3498
14011TIP3    H263449   4.358   5.449   1.002  1.0692  2.0891 -1.1173
14012TIP3   OH263450   1.461   5.036  15.081 -0.1897  0.2484  0.2580
14012TIP3    H163451   1.415   5.119  15.071  2.6538  2.1759  2.1609
14012TIP3    H263452   1.492   5.037  15.172  2.2292 -1.6448 -0.4920
14013TIP3   OH263453   2.378   5.137   1.446  0.4459  0.6165 -0.2112
14013TIP3    H163454   2.380   5.169   1.356 -0.9441 -2.8010 -1.5368
14013TIP3    H263455   2.286   5.141   1.471  0.2751 -1.9758 -0.3285
14014TIP3   OH263456   3.882   5.938   4.261  0.6513 -0.1881 -0.3616
14014TIP3    H163457   3.907   6.028   4.283  2.5305 -0.8572  0.3455
14014TIP3    H263458   3.823   5.912   4.331  0.7912  0.2078 -0.0915
14015TIP3   OH263459   3.391   2.816   2.441  0.0103 -0.0655 -0.0453
14015TIP3    H163460   3.305   2.841   2.407 -1.4428 -4.0426  0.4015
14015TIP3    H263461   3.405   2.727   2.409  2.5915 -0.6358  2.4140
14016TIP3   OH263462   3.018   0.344   2.765 -0.1119  0.0203 -0.3352
14016TIP3    H163463   3.099   0.340   2.713 -0.3608 -0.2337 -0.7056
14016TIP3    H263464   2.962   0.405   2.718 -0.9762 -1.4755 -1.2868
14017TIP3   OH263465   5.074   2.032   5.729 -0.3880 -0.5493  0.1524
14017TIP3    H163466   5.027   2.002   5.807  0.8307  0.5584  1.3315
14017TIP3    H263467   5.123   2.109   5.758 -1.2176  0.9041 -2.1034
14018TIP3   OH263468   1.663   5.779   2.866 -0.0329  0.3696  0.3001
14018TIP3    H163469   1.746   5.765   2.820 -0.8371  2.2443 -1.8351
14018TIP3    H263470   1.683   5.761   2.958  2.6457  0.4147 -0.2234
14019TIP3   OH263471   3.742   1.855   0.325 -0.6632  0.1836 -0.6759
14019TIP3    H163472   3.832   1.885   0.313 -0.5065 -0.3518 -0.8500
14019TIP3    H263473   3.741   1.766   0.289 -1.4073  0.4039 -1.2027
14020TIP3   OH263474   0.352   4.962  13.899  0.0354  0.1479  0.3438
14020TIP3    H163475   0.294   4.893  13.869 -0.2688 -0.2243  1.7358
14020TIP3    H263476   0.430   4.916  13.931 -1.0042  0.2357  3.2007
14021TIP3   OH263477   1.870   1.593   1.315 -0.0319 -0.0828 -0.2399
14021TIP3    H163478   1.869   1.603   1.410  0.9666 -0.6095 -0.1737
14021TIP3    H263479   1.870   1.682   1.281 -0.3539  0.1066  0.2492
14022TIP3   OH263480   1.031   2.982   4.418  0.7045  0.3113  0.5336
14022TIP3    H163481   1.079   3.013   4.342 -1.0383  0.1856 -0.6527
14022TIP3    H263482   1.097   2.971   4.486  2.3207  0.1983 -1.0323
14023TIP3   OH263483   3.139   1.287  17.099 -0.1979  0.1377 -0.4549
14023TIP3    H163484   3.165   1.378  17.081 -1.2067  0.1415 -1.8946
14023TIP3    H263485   3.192   1.263  17.175 -0.3737  2.1371  0.3419
14024TIP3   OH263486   1.088   1.994   6.193 -0.4048  0.2358 -0.3704
14024TIP3    H163487   0.995   1.977   6.206 -0.1093 -0.4748  0.9583
14024TIP3    H263488   1.128   1.907   6.196  0.4765  0.6663  0.6131
14025TIP3   OH263489   4.089   3.595   6.014 -0.0359 -0.1555  0.3012
14025TIP3    H163490   3.996   3.573   6.008 -0.0059 -0.7194  1.6409
14025TIP3    H263491   4.096   3.646   6.095  0.5200  1.5203 -0.7762
14026TIP3   OH263492   2.170   3.460   1.287  0.1434 -0.1608  0.0264
14026TIP3    H163493   2.078   3.487   1.294 -0.5594 -2.7775  1.9687
14026TIP3    H263494   2.194   3.435   1.376  2.3351 -0.7581 -0.7152
14027TIP3   OH263495   3.618   1.242  14.868 -0.2902 -0.2736 -0.1864
14027TIP3    H163496   3.544   1.181  14.874 -0.1639 -0.4976 -0.8842
14027TIP3    H263497   3.590   1.306  14.802 -0.2080  0.1290  0.1665
14028TIP3   OH263498   6.448   0.624   4.968  0.1876 -0.2268  0.5111
14028TIP3    H163499   6.536   0.660   4.961 -0.7122  1.8635 -0.6282
14028TIP3    H263500   6.401   0.687   5.023 -0.7749 -0.9759  0.5613
14029TIP3   OH263501   3.501   2.227   1.472  0.0472 -0.2448  0.1124
14029TIP3    H163502   3.462   2.262   1.392 -0.6312  1.6106  1.2167
14029TIP3    H263503   3.456   2.144   1.487 -0.7559  0.0316 -0.7168
14030TIP3   OH263504   0.393   3.071  16.720  0.2510  0.0737 -0.0730
14030TIP3    H163505   0.422   3.112  16.639  1.0681 -0.1023  0.1234
14030TIP3    H263506   0.312   3.026  16.696 -0.2795  1.2081 -0.4502
14031TIP3   OH263507   6.095   4.542  15.047  0.9389  0.0304 -0.3339
14031TIP3    H163508   6.106   4.557  15.141  0.7913 -0.0901 -0.2967
14031TIP3    H263509   6.182   4.555  15.010  0.6278  2.1015 -0.4445
14032TIP3   OH263510   5.961   0.464  17.169  0.7864 -0.2295  0.0060
14032TIP3    H163511   5.883   0.420  17.202 -1.0260  1.5399 -1.7852
14032TIP3    H263512   5.977   0.422  17.084  1.1331  0.1545 -0.1147
14033TIP3   OH263513   1.692   0.177  12.872 -0.0333  0.2702 -0.5445
14033TIP3    H163514   1.644   0.249  12.830 -0.5532 -0.3858 -1.0866
14033TIP3    H263515   1.704   0.113  12.802  0.8267  0.0221 -0.1780
14034TIP3   OH263516   2.363   4.239   5.037 -0.0299  0.2402  0.2317
14034TIP3    H163517   2.393   4.151   5.014  0.0775 -0.6620  3.5854
14034TIP3    H263518   2.437   4.296   5.015  0.5762 -0.7240 -0.2954
14035TIP3   OH263519   5.728   2.020   0.498  0.5835  0.2002  0.0695
14035TIP3    H163520   5.759   1.930   0.490 -3.2308 -1.0168 -2.1510
14035TIP3    H263521   5.682   2.022   0.582 -1.8162 -0.7649 -1.1962
14036TIP3   OH263522   0.885   2.766   1.300 -0.0915  0.1168  0.1030
14036TIP3    H163523   0.798   2.753   1.263 -0.2854  0.1184  0.5604
14036TIP3    H263524   0.907   2.682   1.340  0.0911  0.1372  0.0489
14037TIP3   OH263525   0.117   2.773   4.113  0.2373  0.8091  0.3359
14037TIP3    H163526   0.171   2.738   4.042 -1.5141 -1.2070 -0.0829
14037TIP3    H263527   0.059   2.836   4.070 -0.1177  0.3530  0.1320
14038TIP3   OH263528   1.837   3.294  15.061 -0.0396 -0.5447  0.5659
14038TIP3    H163529   1.851   3.388  15.050  0.4974 -0.7252 -0.4111
14038TIP3    H263530   1.820   3.282  15.154 -1.9876  0.7650  0.4187
14039TIP3   OH263531   1.150   2.950   2.051 -0.1810 -0.2086 -0.9231
14039TIP3    H163532   1.097   2.921   2.125 -0.1457 -0.0505 -0.8364
14039TIP3    H263533   1.231   2.899   2.058 -0.6029 -0.9615 -1.4542
14040TIP3   OH263534   3.184   5.560   3.006 -1.0494 -0.9005  0.2172
14040TIP3    H163535   3.187   5.643   3.054 -0.3002  0.1721 -1.6226
14040TIP3    H263536   3.098   5.560   2.964 -1.3761 -1.4427  0.8916
14041TIP3   OH263537   3.033   6.515   4.445 -0.3380 -0.6819  0.1374
14041TIP3    H163538   3.116   6.563   4.450  0.1404 -1.4897  0.0658
14041TIP3    H263539   3.054   6.427   4.476 -1.2176 -0.8349  0.3082
14042TIP3   OH263540   6.426   3.715  13.738  0.4364  0.0082  0.1455
14042TIP3    H163541   6.489   3.646  13.755 -0.4706 -0.8897 -0.0922
14042TIP3    H263542   6.399   3.745  13.825  0.7640 -0.0016  0.2488
14043TIP3   OH263543   1.604   4.637   5.330  0.1686  0.2079  0.9533
14043TIP3    H163544   1.619   4.631   5.425  0.1608  0.0844  0.9471
14043TIP3    H263545   1.641   4.722   5.306 -0.5894  0.6219  1.2092
14044TIP3   OH263546   5.693   1.872  15.195 -0.5462  0.2738  0.4661
14044TIP3    H163547   5.646   1.916  15.124  2.9029  2.4849 -0.5780
14044TIP3    H263548   5.741   1.801  15.151  0.5028  0.7688  0.8028
14045TIP3   OH263549   5.206   4.883   1.311 -0.3404 -0.2103 -0.2136
14045TIP3    H163550   5.111   4.892   1.313 -0.3434 -0.3816  0.6798
14045TIP3    H263551   5.237   4.937   1.384  0.2805  0.2398 -0.8106
14046TIP3   OH263552   2.150   4.643   5.846  0.1246 -0.1937 -0.1290
14046TIP3    H163553   2.063   4.676   5.867  0.1783 -0.7474  0.9682
14046TIP3    H263554   2.207   4.719   5.855 -0.0566 -0.1172  0.3883
14047TIP3   OH263555   2.682   0.841   4.131  0.2642 -0.2663 -0.0562
14047TIP3    H163556   2.711   0.932   4.135  1.0999 -0.4110 -2.1032
14047TIP3    H263557   2.634   0.827   4.212  1.8304  1.4138  1.1779
14048TIP3   OH263558   4.681   1.558  12.632 -0.0040  0.2377  0.0778
14048TIP3    H163559   4.683   1.643  12.677 -0.9099  0.5050 -0.3755
14048TIP3    H263560   4.729   1.500  12.690 -3.5316 -0.1138  2.8790
14049TIP3   OH263561   2.349   2.346  14.712  0.1812  0.3582  0.4260
14049TIP3    H163562   2.402   2.267  14.726 -0.0259  0.3687  1.3401
14049TIP3    H263563   2.288   2.346  14.786 -0.3590  0.9396 -0.0203
14050TIP3   OH263564   6.401   2.600  15.701  0.7984  0.3756  0.5455
14050TIP3    H163565   6.455   2.679  15.702  1.0559  0.2765 -2.4794
14050TIP3    H263566   6.313   2.631  15.681  0.5307  0.0764  1.2423
14051TIP3   OH263567   0.428   5.622  11.748  0.3608  0.2861 -0.0076
14051TIP3    H163568   0.400   5.713  11.746 -0.3613  0.1534  2.6778
14051TIP3    H263569   0.350   5.573  11.774  1.2018 -0.9049  0.3406
14052TIP3   OH263570   3.197   0.093  13.955 -0.6053 -0.4940 -0.2032
14052TIP3    H163571   3.145   0.134  13.886 -1.1349 -0.4777  0.2066
14052TIP3    H263572   3.133   0.052  14.013 -0.3817  1.8975  1.8544
14053TIP3   OH263573   1.982   0.161  11.677 -0.6393 -0.2175  0.3498
14053TIP3    H163574   1.964   0.153  11.584  0.5448 -0.2694  0.1238
14053TIP3    H263575   1.901   0.133  11.720 -0.8837 -1.0243 -0.6449
14054TIP3   OH263576   5.104   3.786  11.791  0.2388  0.0763 -0.1508
14054TIP3    H163577   5.113   3.861  11.731  0.5030  0.3157  0.1874
14054TIP3    H263578   5.185   3.787  11.842  0.0072 -0.1229  0.2186
14055TIP3   OH263579   5.860   2.795  14.736  0.7620  0.0829 -0.1943
14055TIP3    H163580   5.881   2.709  14.700 -1.3401 -2.0081  3.3660
14055TIP3    H263581   5.907   2.799  14.819  0.1009  1.9773  0.1103
14056TIP3   OH263582   3.663   3.005  10.338 -0.5429 -0.3173  0.2139
14056TIP3    H163583   3.627   3.052  10.263 -1.5022 -1.3199  0.0284
14056TIP3    H263584   3.743   3.052  10.360 -0.7073  0.4980 -0.8967
14057TIP3   OH263585   2.408   3.556  11.990  0.2037  0.3710 -0.6431
14057TIP3    H163586   2.331   3.611  12.004  0.0326  0.2903 -1.2433
14057TIP3    H263587   2.407   3.493  12.062 -0.6868 -0.0756 -1.0394
14058TIP3   OH263588   6.503   2.132  14.490 -0.1356  0.1509 -0.3953
14058TIP3    H163589   6.517   2.064  14.424  0.1417 -0.4234  0.2570
14058TIP3    H263590   6.504   2.214  14.440  0.8258 -0.2271 -1.0059
14059TIP3   OH263591   3.042   5.625   3.313  0.2636 -0.2762  0.1947
14059TIP3    H163592   3.112   5.579   3.357  2.5422  2.0309 -0.8525
14059TIP3    H263593   3.047   5.595   3.222 -0.1764 -0.1891  0.1403
14060TIP3   OH263594   3.093   4.028  11.742  0.3055  0.4959  0.1977
14060TIP3    H163595   3.153   3.953  11.741 -0.8075 -0.4001 -0.4976
14060TIP3    H263596   3.039   4.015  11.820  2.6110  2.6250  2.2448
14061TIP3   OH263597   6.350   0.272  11.108  0.0945 -0.2025 -0.5422
14061TIP3    H163598   6.336   0.198  11.049 -0.3270 -0.5456 -0.0246
14061TIP3    H263599   6.297   0.251  11.185 -1.9676  1.7997 -1.3751
14062TIP3   OH263600   5.938   4.321  13.226  0.1583 -0.3600 -0.3639
14062TIP3    H163601   6.022   4.275  13.221  0.0017 -0.5992 -0.8836
14062TIP3    H263602   5.941   4.369  13.308  0.1848 -1.5928  0.3771
14063TIP3   OH263603   2.856   2.378   5.123  0.2777  1.2539  0.0886
14063TIP3    H163604   2.917   2.336   5.062 -0.2365 -0.2961  0.6091
14063TIP3    H263605   2.833   2.461   5.081  0.7215  0.6776 -1.3296
14064TIP3   OH263606   3.115   5.916  14.073  0.2717  0.2252 -0.7322
14064TIP3    H163607   3.138   5.888  14.162 -1.0530  0.5890 -0.2537
14064TIP3    H263608   3.043   5.978  14.086  0.0703  0.2817 -2.0663
14065TIP3   OH263609   2.163   6.270   5.711 -0.5824 -0.7077  0.0687
14065TIP3    H163610   2.171   6.338   5.778 -0.1985 -0.2689 -0.4157
14065TIP3    H263611   2.148   6.318   5.630 -0.1896 -1.2017 -0.2983
14066TIP3   OH263612   4.338   3.043   0.752  0.3506 -0.2411 -0.1133
14066TIP3    H163613   4.245   3.033   0.773  0.1021 -1.8130 -1.7992
14066TIP3    H263614   4.376   2.958   0.774  0.8616 -0.4966 -1.9006
14067TIP3   OH263615   3.234   4.935   5.677  0.1982  0.1603  0.0077
14067TIP3    H163616   3.239   4.956   5.584 -1.5754 -2.0403 -0.6240
14067TIP3    H263617   3.239   4.840   5.681 -4.0487 -0.1122  1.7387
14068TIP3   OH263618   3.057   0.558   4.691  0.0715 -0.0992 -0.0668
14068TIP3    H163619   2.970   0.595   4.700  1.4750  2.6633  2.9329
14068TIP3    H263620   3.052   0.474   4.737 -1.5009 -0.9166 -1.6744
14069TIP3   OH263621   3.532   5.671   5.248  0.2707 -0.3465  0.0964
14069TIP3    H163622   3.539   5.576   5.258 -1.7528 -0.4246  1.1411
14069TIP3    H263623   3.557   5.706   5.334 -0.8966 -0.0568  0.3262
14070TIP3   OH263624   4.209   3.967   4.374  0.6320 -0.1952 -0.3958
14070TIP3    H163625   4.289   3.942   4.326  0.5822 -2.1627  0.5100
14070TIP3    H263626   4.138   3.952   4.311  0.8393  0.0960 -0.6992
14071TIP3   OH263627   4.344   6.511  15.629 -0.0566 -0.1273  0.3676
14071TIP3    H163628   4.395   6.464  15.694 -0.4848  0.1060  0.8765
14071TIP3    H263629   4.363   6.467  15.547  0.5472 -0.3740  0.6409
14072TIP3   OH263630   2.478   2.379  15.955  0.5498 -0.7475 -0.7245
14072TIP3    H163631   2.413   2.404  15.890 -0.9900  0.2097  1.1162
14072TIP3    H263632   2.553   2.437  15.938 -1.3919  2.4002  0.8541
14073TIP3   OH263633   2.939   2.466  12.505  0.4697 -0.3889  0.0431
14073TIP3    H163634   2.962   2.391  12.451 -1.4114  0.5241 -2.0666
14073TIP3    H263635   2.962   2.542  12.452  0.5727  0.5370  1.3901
14074TIP3   OH263636   4.810   3.031   0.971  0.3120 -0.1908  0.0392
14074TIP3    H163637   4.848   3.119   0.968  0.1873 -0.1300  0.2314
14074TIP3    H263638   4.823   3.003   1.061  1.3353 -0.8039 -0.2870
14075TIP3   OH263639   0.986   1.920  15.670 -0.4022 -0.3932  0.0489
14075TIP3    H163640   0.973   1.848  15.607  0.2486 -1.1542  0.7807
14075TIP3    H263641   1.063   1.966  15.638  0.0999 -0.9547  0.4532
14076TIP3   OH263642   6.198   0.564  10.304 -0.4761 -0.9781  0.0927
14076TIP3    H163643   6.219   0.580  10.396  0.6370 -0.8068 -0.1931
14076TIP3    H263644   6.114   0.608  10.291  0.4838  0.9800  0.4222
14077TIP3   OH263645   5.099   2.495   6.151 -0.3572 -0.4930 -0.3701
14077TIP3    H163646   5.057   2.466   6.070 -0.1535  2.3449 -1.5373
14077TIP3    H263647   5.192   2.474   6.138  0.0117  1.8104 -1.8012
14078TIP3   OH263648   3.304   3.630   4.060  0.9110  0.4982 -0.0716
14078TIP3    H163649   3.220   3.674   4.052 -0.0418 -1.5787 -1.9787
14078TIP3    H263650   3.361   3.694   4.104 -1.4254  2.1862  0.5789
14079TIP3   OH263651   0.307   2.685   4.920 -1.5069  0.3347 -0.0294
14079TIP3    H163652   0.380   2.672   4.981 -1.0960 -0.1242 -0.6160
14079TIP3    H263653   0.229   2.675   4.975 -1.1659 -1.6924  0.1537
14080TIP3   OH263654   4.867   1.970  16.975  0.0389  0.0762 -0.2718
14080TIP3    H163655   4.836   1.912  17.045 -1.0432  0.7811 -0.1664
14080TIP3    H263656   4.855   2.058  17.009  1.0105  0.3918 -0.7184
14081TIP3   OH263657   3.712   2.925   5.410 -0.2377  0.1000  0.3827
14081TIP3    H163658   3.767   3.002   5.398 -0.1703  0.1817  1.2120
14081TIP3    H263659   3.638   2.956   5.463 -0.5384 -0.2543  0.1709
14082TIP3   OH263660   5.525   6.311  13.750 -0.1155  0.3531  0.2402
14082TIP3    H163661   5.589   6.374  13.716  0.3978 -1.1191 -1.5688
14082TIP3    H263662   5.568   6.271  13.825 -0.0995  1.5195  0.8619
14083TIP3   OH263663   6.314   2.534  12.699  0.2182  0.4094 -0.1735
14083TIP3    H163664   6.345   2.526  12.608 -0.5214  1.3325 -0.5106
14083TIP3    H263665   6.383   2.582  12.744  0.5858 -0.0457 -0.2425
14084TIP3   OH263666   6.058   6.264  11.051  0.3862  0.1022  0.3586
14084TIP3    H163667   6.008   6.230  10.977 -0.6600 -1.1279  1.6051
14084TIP3    H263668   6.071   6.188  11.108  1.4974  0.9511  1.2567
14085TIP3   OH263669   2.603   3.745  11.137 -0.1500  0.1883  0.2539
14085TIP3    H163670   2.639   3.711  11.055  2.6465 -0.5125  1.7121
14085TIP3    H263671   2.520   3.698  11.147 -0.6802  0.4784 -2.2741
14086TIP3   OH263672   3.856   0.804  11.114  0.4958  0.7539 -0.0907
14086TIP3    H163673   3.920   0.870  11.086  0.3975  1.1181  0.5326
14086TIP3    H263674   3.870   0.796  11.208 -0.6943  1.1812  0.1281
14087TIP3   OH263675   4.190   0.564   4.693 -0.8142 -0.4009 -0.2927
14087TIP3    H163676   4.190   0.469   4.707 -2.3412 -0.2525  0.9345
14087TIP3    H263677   4.175   0.575   4.599  0.4710 -1.3737 -0.6295
14088TIP3   OH263678   6.084   6.224   4.536  0.1409 -0.3180  0.2110
14088TIP3    H163679   6.127   6.289   4.480 -0.5771 -0.1552 -0.1642
14088TIP3    H263680   6.084   6.144   4.484 -2.8116  0.4567 -1.1330
14089TIP3   OH263681   0.674   2.192  10.508  0.1907  0.2946  0.8994
14089TIP3    H163682   0.686   2.097  10.513  0.9143  0.3489  0.3865
14089TIP3    H263683   0.581   2.206  10.523  0.0459 -0.5141  0.7735
14090TIP3   OH263684   3.901   5.688   1.499 -0.3061 -0.5624  0.4380
14090TIP3    H163685   3.987   5.727   1.483 -0.4190 -0.7752 -0.7130
14090TIP3    H263686   3.842   5.763   1.509  0.0516 -0.4098  1.5355
14091TIP3   OH263687   0.995   3.273   6.138  0.2935  0.3962 -0.5209
14091TIP3    H163688   1.079   3.278   6.184 -0.2330 -0.8944  0.6439
14091TIP3    H263689   0.952   3.357   6.157  0.8098  0.5644 -0.0794
14092TIP3   OH263690   5.024   2.684  15.402 -1.0255  0.7281  0.3594
14092TIP3    H163691   5.011   2.621  15.331  2.6247  1.2000 -0.8660
14092TIP3    H263692   4.997   2.768  15.364  1.7619  1.1233 -0.8592
14093TIP3   OH263693   2.418   0.461   5.558  0.2849  0.4224  0.5118
14093TIP3    H163694   2.333   0.436   5.592 -0.2263  1.0250 -0.3160
14093TIP3    H263695   2.441   0.541   5.607  0.7367 -0.1803  1.2945
14094TIP3   OH263696   4.181   0.371  15.082 -0.3626 -0.5389  0.1217
14094TIP3    H163697   4.173   0.447  15.025 -0.6757 -0.2794  0.5154
14094TIP3    H263698   4.254   0.321  15.045 -0.0097  0.0677  0.0001
14095TIP3   OH263699   5.581   1.659   1.964  0.0215  0.1543 -0.3612
14095TIP3    H163700   5.669   1.681   1.994 -0.8465  0.7598  1.8125
14095TIP3    H263701   5.582   1.563   1.956  1.4909  0.2939 -2.4447
14096TIP3   OH263702   2.449   4.815   3.826 -0.6871 -0.2097 -0.3098
14096TIP3    H163703   2.416   4.904   3.820 -1.1211 -0.2263  1.5476
14096TIP3    H263704   2.532   4.823   3.874 -0.5130 -0.7423 -0.5186
14097TIP3   OH263705   1.620   5.899   1.580 -0.0344 -0.2456 -0.2807
14097TIP3    H163706   1.554   5.853   1.528 -0.4760 -0.5316  0.5219
14097TIP3    H263707   1.621   5.988   1.546 -1.1392 -0.1276 -0.0159
14098TIP3   OH263708   2.955   5.471   5.309  0.5831  0.1083 -0.4675
14098TIP3    H163709   2.929   5.438   5.223  3.5257  2.5895 -2.4793
14098TIP3    H263710   2.902   5.549   5.322 -0.3096 -0.6201  0.2709
14099TIP3   OH263711   4.706   6.074   2.876  0.0449 -0.1878 -0.1121
14099TIP3    H163712   4.799   6.089   2.861 -0.0106  1.0151  0.6427
14099TIP3    H263713   4.663   6.135   2.816 -0.2715 -1.0885 -0.8138
14100TIP3   OH263714   6.298   4.491  16.702 -0.2246  0.4755 -0.1198
14100TIP3    H163715   6.211   4.470  16.667 -0.2053  1.4483 -0.7878
14100TIP3    H263716   6.356   4.425  16.664 -0.7573 -0.5058  0.7624
14101TIP3   OH263717   0.086   0.222  12.422 -0.0926 -0.9093 -0.0939
14101TIP3    H163718   0.170   0.203  12.464  0.1318 -0.8806 -0.5330
14101TIP3    H263719   0.036   0.141  12.432 -0.5457 -0.4714  1.4323
14102TIP3   OH263720   0.073   1.641  10.800  0.3800  0.2743  0.0194
14102TIP3    H163721   0.165   1.617  10.789  0.1703  0.3504 -2.2115
14102TIP3    H263722   0.076   1.732  10.829  1.0136 -0.0561  1.0242
14103TIP3   OH263723   6.620   2.592  11.404  0.1732 -0.0635  0.0533
14103TIP3    H163724   6.601   2.535  11.478 -0.0069  0.5700  0.4992
14103TIP3    H263725   6.565   2.669  11.418 -1.5259 -0.8685 -1.9153
14104TIP3   OH263726   4.192   1.718  13.844 -0.0255 -0.0981  0.8403
14104TIP3    H163727   4.106   1.722  13.802  0.8674  3.7567 -0.8010
14104TIP3    H263728   4.192   1.791  13.905  2.0136 -0.1639  0.9407
14105TIP3   OH263729   6.580   5.905  15.749 -0.1006  0.2845 -0.1612
14105TIP3    H163730   6.672   5.885  15.730  0.2706  2.1494 -0.4230
14105TIP3    H263731   6.532   5.873  15.674  0.1957 -1.7549  0.4954
14106TIP3   OH263732   5.645   5.924   5.090 -0.0131  0.0934  0.4643
14106TIP3    H163733   5.721   5.865   5.095 -0.3907 -0.3597  0.7952
14106TIP3    H263734   5.569   5.867   5.096 -0.3943  0.4871 -0.4811
14107TIP3   OH263735   3.525   2.953   0.265  0.0570 -0.2887  0.2764
14107TIP3    H163736   3.572   2.916   0.190  0.2210 -0.2339  0.3541
14107TIP3    H263737   3.553   3.044   0.268 -1.4036  0.2152 -0.7725
14108TIP3   OH263738   3.171   1.915  14.423  0.1848  0.1066 -0.4153
14108TIP3    H163739   3.098   1.970  14.393  0.2583 -0.6209 -1.9724
14108TIP3    H263740   3.159   1.832  14.377  1.7922 -0.1518 -0.3925
14109TIP3   OH263741   4.892   6.280   1.691 -0.8153  0.2677  0.5323
14109TIP3    H163742   4.893   6.353   1.753  0.0947  0.6012  0.1212
14109TIP3    H263743   4.820   6.225   1.722 -3.0449  2.5065 -0.5456
14110TIP3   OH263744   1.857   3.398  10.771 -0.2715 -0.0205  0.1984
14110TIP3    H163745   1.915   3.336  10.725 -0.9211 -0.6154  0.1631
14110TIP3    H263746   1.909   3.430  10.844  0.2620 -0.2013 -0.0947
14111TIP3   OH263747   2.292   3.957  12.513  0.6678 -0.0535  0.1571
14111TIP3    H163748   2.334   3.970  12.598  0.0047 -1.4445  0.7079
14111TIP3    H263749   2.218   3.899  12.531 -1.2899  2.0489 -0.8490
14112TIP3   OH263750   3.803   4.221  11.450  1.2772  0.3553 -0.0545
14112TIP3    H163751   3.865   4.228  11.378 -0.9483 -2.1651 -2.3198
14112TIP3    H263752   3.728   4.275  11.423  0.4095 -0.6449  0.3361
14113TIP3   OH263753   1.200   5.750   5.064  0.2920  0.7139 -0.1816
14113TIP3    H163754   1.218   5.819   5.000  1.9456 -0.1729 -0.7066
14113TIP3    H263755   1.285   5.710   5.080 -0.3321  0.0582  1.5915
14114TIP3   OH263756   5.643   3.118   3.390 -0.0124 -0.2270  0.6605
14114TIP3    H163757   5.591   3.169   3.327  2.2443  1.2589 -0.0803
14114TIP3    H263758   5.599   3.131   3.474 -0.6998  1.1938  0.0924
14115TIP3   OH263759   2.533   0.985  15.562  0.4061 -0.2298  0.2182
14115TIP3    H163760   2.532   0.955  15.653 -0.5960  3.1542  1.4269
14115TIP3    H263761   2.626   0.988  15.539  0.7167 -0.3887  1.4046
14116TIP3   OH263762   0.229   3.960  13.684 -0.1155 -0.1738 -0.0270
14116TIP3    H163763   0.264   4.015  13.754  0.3003  0.1530 -0.4947
14116TIP3    H263764   0.258   3.871  13.706  1.6685  0.2002 -0.8377
14117TIP3   OH263765   1.917   2.392  12.173 -0.4438  0.7302 -0.0677
14117TIP3    H163766   1.894   2.413  12.264  1.2412 -1.5079  0.9060
14117TIP3    H263767   1.967   2.468  12.143 -1.0190  1.4880  0.8693
14118TIP3   OH263768   2.249   2.588  11.629 -0.1311  0.0902 -0.1689
14118TIP3    H163769   2.155   2.607  11.625  0.1619  1.9091  0.7553
14118TIP3    H263770   2.254   2.493  11.641 -1.9928  0.3704  3.6082
14119TIP3   OH263771   5.451   6.377  10.840  0.2563  1.1997  0.3648
14119TIP3    H163772   5.463   6.433  10.764  1.9577  2.0188  1.2106
14119TIP3    H263773   5.523   6.400  10.899 -0.2129 -0.4125  1.6168
14120TIP3   OH263774   0.221   2.408  16.415  0.0081  0.2322 -0.1502
14120TIP3    H163775   0.260   2.452  16.340 -0.0177  0.7698  0.1523
14120TIP3    H263776   0.129   2.434  16.413  0.2589  1.2360  0.7719
14121TIP3   OH263777   4.737   1.071  14.319  0.0190 -0.0125 -0.1771
14121TIP3    H163778   4.676   1.130  14.275 -0.3436 -0.1795  0.0981
14121TIP3    H263779   4.751   1.111  14.405  1.4755  0.8215 -0.7836
14122TIP3   OH263780   1.370   3.277   2.529 -0.3419  0.3297  0.1264
14122TIP3    H163781   1.348   3.185   2.516 -0.3359  0.1132  1.5749
14122TIP3    H263782   1.466   3.278   2.528 -0.3426  0.3295  0.0553
14123TIP3   OH263783   5.664   3.853  16.064  0.2643  0.2936  0.7932
14123TIP3    H163784   5.739   3.794  16.053 -0.2428 -0.1926 -0.1944
14123TIP3    H263785   5.651   3.891  15.977 -1.6104 -0.8261  0.5586
14124TIP3   OH263786   1.056   6.127   2.794  0.2384  0.5967 -0.2276
14124TIP3    H163787   1.006   6.139   2.713 -1.5837 -1.1576  0.6098
14124TIP3    H263788   1.147   6.128   2.766 -0.2008  3.8098 -1.8021
14125TIP3   OH263789   0.824   2.731   6.043  0.3572 -0.0151  0.3123
14125TIP3    H163790   0.882   2.703   5.973 -0.1087  0.4198 -0.2449
14125TIP3    H263791   0.883   2.767   6.110  0.6029  2.0852 -1.0111
14126TIP3   OH263792   1.989   4.202  12.424 -0.4220  0.6285 -0.1728
14126TIP3    H163793   1.960   4.258  12.352 -2.4810  0.7636  0.7264
14126TIP3    H263794   1.915   4.144  12.440  0.1753  0.3247  1.5655
14127TIP3   OH263795   0.236   2.581   3.882  0.4208  0.3352  0.2458
14127TIP3    H163796   0.301   2.562   3.950  0.5894 -0.5521 -0.1553
14127TIP3    H263797   0.274   2.544   3.802  0.1515  1.2343 -0.3036
14128TIP3   OH263798   1.274   5.175   2.822  0.0734  0.2366 -0.2554
14128TIP3    H163799   1.202   5.178   2.760 -0.4040 -1.0782  0.2094
14128TIP3    H263800   1.276   5.262   2.862 -0.5161  0.6350 -1.0811
14129TIP3   OH263801   6.529   5.245   5.321 -0.2000 -0.2355 -0.0860
14129TIP3    H163802   6.520   5.242   5.226 -0.7707  2.0281 -0.1497
14129TIP3    H263803   6.621   5.268   5.336 -0.4189  0.7211 -0.1518
14130TIP3   OH263804   0.024   5.480   2.874  0.0815  0.7254  0.0629
14130TIP3    H163805  -0.063   5.508   2.845 -0.3810 -0.3680  0.3580
14130TIP3    H263806   0.037   5.395   2.832  0.5882  0.4348  0.7997
14131TIP3   OH263807   0.108   5.806  11.908 -0.4480  0.9107 -0.0959
14131TIP3    H163808   0.015   5.806  11.889 -0.4336  0.7901 -0.1642
14131TIP3    H263809   0.115   5.760  11.992 -0.3883  0.3856 -0.3862
14132TIP3   OH263810   5.464   1.122  11.734 -0.0351 -0.2166 -0.3494
14132TIP3    H163811   5.370   1.137  11.725  0.0372  0.5081  0.0907
14132TIP3    H263812   5.494   1.100  11.646 -0.6514 -0.6682 -0.4499
14133TIP3   OH263813   3.894   3.945   5.895  0.2282  0.0346  0.5231
14133TIP3    H163814   3.810   3.912   5.928 -0.1851  1.3548  0.8281
14133TIP3    H263815   3.941   3.974   5.974  1.7783 -2.4244  0.5693
14134TIP3   OH263816   2.998   3.075   0.819 -0.3281 -0.3012 -0.4963
14134TIP3    H163817   2.917   3.108   0.858  0.3630  1.0400 -0.1459
14134TIP3    H263818   2.978   2.985   0.794 -2.1041  0.1960 -0.9511
14135TIP3   OH263819   1.721   4.144   1.379 -0.3464 -0.0190  0.6606
14135TIP3    H163820   1.706   4.072   1.318 -1.6668  1.4865 -0.8362
14135TIP3    H263821   1.708   4.223   1.327  2.9852  1.3765  1.7919
14136TIP3   OH263822   2.775   1.831   1.188 -0.0555 -0.1747  0.1542
14136TIP3    H163823   2.727   1.776   1.125 -0.5162 -1.2539  1.4209
14136TIP3    H263824   2.833   1.771   1.234  2.1610  1.0368 -0.9724
14137TIP3   OH263825   5.576   1.140   4.875  0.4389 -0.2645  0.1038
14137TIP3    H163826   5.618   1.086   4.808 -1.3569 -2.5909  0.7630
14137TIP3    H263827   5.604   1.102   4.958  0.6238  1.0055  0.6360
14138TIP3   OH263828   0.037   2.152   4.566  0.4066  0.0446  0.6054
14138TIP3    H163829   0.037   2.210   4.489 -0.1645  1.6960  1.8085
14138TIP3    H263830  -0.031   2.189   4.623 -0.5359 -2.3288  1.0463
14139TIP3   OH263831   6.450   2.141  12.226 -0.2812  0.2096  0.2573
14139TIP3    H163832   6.416   2.060  12.189 -0.1319  0.1248  0.3072
14139TIP3    H263833   6.473   2.119  12.316 -1.8845  0.7522  0.8232
14140TIP3   OH263834   3.932   4.365  16.401 -0.2465 -0.1159  0.0892
14140TIP3    H163835   3.906   4.293  16.343 -0.5751  0.4016 -0.4155
14140TIP3    H263836   3.852   4.417  16.412 -0.1735 -0.1926  0.9856
14141TIP3   OH263837   0.021   0.905  13.729  0.2233  0.2133 -0.3568
14141TIP3    H163838   0.018   0.893  13.634  0.4305 -1.6375 -0.1619
14141TIP3    H263839   0.084   0.976  13.743 -1.4177  1.9693 -1.6875
14142TIP3   OH263840   1.014   0.088   3.937  0.0698  0.4075  0.2597
14142TIP3    H163841   0.972   0.030   3.874  0.7096  0.3299 -0.0968
14142TIP3    H263842   1.096   0.043   3.960  0.4142  1.0145  0.2297
14143TIP3   OH263843   6.513   2.589  12.247  0.6816  0.3144  0.5590
14143TIP3    H163844   6.540   2.677  12.223 -1.6422  0.1501 -2.9366
14143TIP3    H263845   6.453   2.601  12.321  2.2347  1.4335  1.6623
14144TIP3   OH263846   3.417   1.370   2.034 -0.1333 -0.0618  0.3607
14144TIP3    H163847   3.436   1.437   1.968  0.6303 -1.4313 -0.8494
14144TIP3    H263848   3.417   1.288   1.985 -0.4896 -1.0126  1.9225
14145TIP3   OH263849   5.564   4.145   4.726  0.0389  0.0276  0.7485
14145TIP3    H163850   5.482   4.194   4.722  0.0374  0.0236  0.7258
14145TIP3    H263851   5.611   4.169   4.646  0.4221  0.6673  1.1601
14146TIP3   OH263852   3.186   6.291   2.863 -0.4280  0.0770 -0.1733
14146TIP3    H163853   3.129   6.225   2.904  0.0065  0.7507  1.5531
14146TIP3    H263854   3.275   6.259   2.879 -0.2086  1.1498  0.8108
14147TIP3   OH263855   4.421   3.535   0.607  0.3240  0.2049  0.3791
14147TIP3    H163856   4.350   3.543   0.671  0.3463  0.6125  0.3596
14147TIP3    H263857   4.429   3.441   0.591  1.3484 -0.0252  2.1081
14148TIP3   OH263858   3.842   3.692   2.388 -0.9739  0.0595  0.3331
14148TIP3    H163859   3.756   3.686   2.348 -0.6753 -0.5153 -0.2347
14148TIP3    H263860   3.839   3.772   2.440 -2.2404 -0.5588  1.2611
14149TIP3   OH263861   5.761   3.350  11.972  0.5578  0.2788 -0.4945
14149TIP3    H163862   5.801   3.292  11.908  1.0365 -0.4830  0.4846
14149TIP3    H263863   5.667   3.330  11.968  0.8130 -1.1604  0.4250
14150TIP3   OH263864   4.076   0.758   4.323 -0.1275 -0.0320  0.0797
14150TIP3    H163865   4.125   0.750   4.241 -0.7961 -0.1560 -0.3107
14150TIP3    H263866   3.990   0.720   4.303 -0.6196  0.8238  0.5534
14151TIP3   OH263867   5.590   5.797  14.309  0.5388  0.1413  0.7038
14151TIP3    H163868   5.505   5.840  14.320  0.2372 -0.4243  0.6139
14151TIP3    H263869   5.610   5.808  14.216 -0.5205 -1.6952  0.2303
14152TIP3   OH263870   6.369   2.333  17.069  0.3817  0.0243  0.0890
14152TIP3    H163871   6.426   2.327  16.992  0.6494 -0.7177  0.3415
14152TIP3    H263872   6.347   2.426  17.075 -1.2282 -0.1813 -2.0342
14153TIP3   OH263873   2.223   4.998  16.306 -0.7199 -0.4737  0.4254
14153TIP3    H163874   2.257   5.077  16.265  0.1257  0.3131  2.5566
14153TIP3    H263875   2.153   5.029  16.363 -1.0657 -1.3877  0.5063
14154TIP3   OH263876   5.667   6.183   4.639 -0.3461 -0.6787  0.1967
14154TIP3    H163877   5.716   6.207   4.718 -0.7488  0.6948  0.0470
14154TIP3    H263878   5.594   6.130   4.671 -1.7569  1.6772  1.0326
14155TIP3   OH263879   4.058   1.600   1.913  0.0408  0.8515  0.2296
14155TIP3    H163880   4.100   1.514   1.910 -0.0997  0.8087 -0.6321
14155TIP3    H263881   4.019   1.604   2.000  1.1885  0.5863  0.7647
14156TIP3   OH263882   5.048   2.550  12.473  0.0439 -0.5886 -0.2498
14156TIP3    H163883   4.955   2.532  12.479 -0.5673  1.7920 -1.8773
14156TIP3    H263884   5.082   2.528  12.560 -2.4666  0.8496  1.1612
14157TIP3   OH263885   4.791   1.602  14.352 -0.1637 -0.1131  0.1665
14157TIP3    H163886   4.712   1.608  14.299  0.4736 -0.9642 -0.8819
14157TIP3    H263887   4.772   1.657  14.428 -2.0999 -1.0195  0.3687
14158TIP3   OH263888   1.902   2.487   2.737 -0.4950  0.2796  0.3238
14158TIP3    H163889   1.955   2.411   2.758 -0.6343  0.0473 -0.1706
14158TIP3    H263890   1.951   2.533   2.669 -0.3005  0.7538  0.7764
14159TIP3   OH263891   1.428   0.235   6.099  0.4177 -0.4826  0.2861
14159TIP3    H163892   1.421   0.252   6.193  0.0755  1.3747 -0.0575
14159TIP3    H263893   1.339   0.242   6.066  0.7372  0.4669 -0.4199
14160TIP3   OH263894   4.763   5.245   4.036 -0.1335 -0.1657  0.0379
14160TIP3    H163895   4.715   5.314   3.991  0.3808 -0.3241 -0.7555
14160TIP3    H263896   4.826   5.292   4.090  1.4161 -0.0379 -1.8381
14161TIP3   OH263897   4.135   0.199  16.914 -0.0876  0.5222 -0.0154
14161TIP3    H163898   4.203   0.181  16.849  1.1532 -0.5303  1.5299
14161TIP3    H263899   4.108   0.289  16.896  1.0686  0.6442 -1.2509
14162TIP3   OH263900   3.516   6.231   4.240  0.4019 -0.5702  0.3966
14162TIP3    H163901   3.510   6.322   4.270 -1.3923  0.1133 -1.9323
14162TIP3    H263902   3.434   6.191   4.268 -0.2102 -0.5946 -1.4112
14163TIP3   OH263903   3.602   2.764  13.119 -0.3939 -0.3974  0.6411
14163TIP3    H163904   3.512   2.782  13.092  0.5587  0.1720 -2.3304
14163TIP3    H263905   3.645   2.850  13.115  1.0477 -1.1650 -1.1520
14164TIP3   OH263906   2.007   5.558   6.210  0.1256  0.0752  0.2247
14164TIP3    H163907   2.047   5.642   6.188  0.6194 -0.0608  0.5967
14164TIP3    H263908   2.050   5.531   6.291 -3.0157  1.4615  2.4399
14165TIP3   OH263909   4.728   5.377   6.616 -0.0379 -0.1954 -0.0060
14165TIP3    H163910   4.661   5.445   6.609  1.0770  0.6666 -3.1863
14165TIP3    H263911   4.679   5.296   6.627 -1.4809  0.7891  1.0446
14166TIP3   OH263912   0.725   0.557  16.995  0.7861 -0.0763 -0.1072
14166TIP3    H163913   0.794   0.623  17.000  1.0937 -0.2852 -1.4949
14166TIP3    H263914   0.649   0.598  17.036  0.9844  1.1325 -0.9342
14167TIP3   OH263915   2.765   4.943  12.082  0.6863  0.2848 -0.5494
14167TIP3    H163916   2.745   4.876  12.016  0.0230 -1.4914  1.4216
14167TIP3    H263917   2.853   4.974  12.059  1.0779 -1.4074 -1.3709
14168TIP3   OH263918   5.930   0.145  12.237  0.5106 -0.4705  0.3266
14168TIP3    H163919   6.008   0.170  12.189 -0.8795  0.9736 -1.2208
14168TIP3    H263920   5.898   0.226  12.276  0.0431 -1.1389  1.3726
14169TIP3   OH263921   5.356   0.545   5.522 -0.1274  0.2750  0.0639
14169TIP3    H163922   5.265   0.563   5.497 -0.2527  1.1124  1.1049
14169TIP3    H263923   5.407   0.563   5.443 -0.6123  2.1011  0.1571
14170TIP3   OH263924   5.723   1.702   0.691  0.4626 -0.6951  0.0077
14170TIP3    H163925   5.642   1.751   0.684  0.6623 -0.2801  0.5537
14170TIP3    H263926   5.695   1.611   0.702  0.0321 -0.4013  1.5208
14171TIP3   OH263927   4.654   2.539   5.815  0.1927  0.5329 -0.3222
14171TIP3    H163928   4.655   2.635   5.810 -1.9670  0.4781 -2.8735
14171TIP3    H263929   4.566   2.518   5.847  0.2843 -0.6311 -0.8176
14172TIP3   OH263930   0.160   4.649  13.309 -0.2003  0.9673  0.2531
14172TIP3    H163931   0.193   4.566  13.344 -0.3365  0.6631 -0.3333
14172TIP3    H263932   0.070   4.654  13.340  0.5554  2.0957  2.3832
14173TIP3   OH263933   3.215   4.649  12.817  0.1369  0.0065 -0.2086
14173TIP3    H163934   3.120   4.644  12.827  0.1285 -2.0081 -1.1906
14173TIP3    H263935   3.249   4.593  12.887  0.5831 -0.2925 -0.6687
14174TIP3   OH263936   4.677   5.022   4.996 -0.0927 -0.2647 -0.1883
14174TIP3    H163937   4.652   5.100   4.945 -0.8942  0.1512  0.8223
14174TIP3    H263938   4.772   5.029   5.005  0.1469 -0.6499 -2.1099
14175TIP3   OH263939   2.550   0.098   5.275 -0.0403  0.2848  0.3427
14175TIP3    H163940   2.609   0.132   5.207  0.8064  2.7213  2.2050
14175TIP3    H263941   2.595   0.022   5.311  0.2093 -0.1001 -0.7539
14176TIP3   OH263942   2.336   0.135  14.127 -0.8100  0.2247 -0.4976
14176TIP3    H163943   2.265   0.164  14.184  0.7237  0.5020  1.3162
14176TIP3    H263944   2.292   0.087  14.057 -2.7686  0.1777  0.7153
14177TIP3   OH263945   0.867   5.767  13.103  0.1758  0.2314  0.2659
14177TIP3    H163946   0.822   5.851  13.110  1.5315  1.0196 -0.1683
14177TIP3    H263947   0.944   5.786  13.050  0.5864 -1.2631  0.2996
14178TIP3   OH263948   1.188   3.547  13.515  0.2775 -0.4568 -0.2450
14178TIP3    H163949   1.237   3.604  13.575  1.3855 -0.3159 -1.2698
14178TIP3    H263950   1.097   3.573  13.527  0.5174 -0.1877  1.1224
14179TIP3   OH263951   4.228   1.130  15.029 -0.4936  0.1189  0.2604
14179TIP3    H163952   4.211   1.209  15.081 -0.6653 -0.6631  1.4207
14179TIP3    H263953   4.314   1.099  15.060 -0.1299  0.2020 -0.6438
14180TIP3   OH263954   5.616   1.922   5.360  0.5500  0.2163  0.2470
14180TIP3    H163955   5.678   1.945   5.291  1.1706  0.6631  0.9394
14180TIP3    H263956   5.661   1.946   5.441 -0.4596  0.3805  0.7711
14181TIP3   OH263957   3.767   0.703  16.314  0.0036 -0.1826 -0.4307
14181TIP3    H163958   3.683   0.750  16.316  0.6345  0.9849 -1.0369
14181TIP3    H263959   3.812   0.738  16.237  1.4752 -0.0948  0.4559
14182TIP3   OH263960   0.444   4.401   0.311 -0.4800  0.2335 -0.4410
14182TIP3    H163961   0.492   4.479   0.286 -1.1424  0.8369  0.1425
14182TIP3    H263962   0.512   4.336   0.331  0.0749  0.7850 -0.5298
14183TIP3   OH263963   0.780   1.611  11.861  0.1305  0.4596  0.1085
14183TIP3    H163964   0.781   1.684  11.799 -0.1823 -1.6166 -2.4417
14183TIP3    H263965   0.780   1.533  11.806  1.7679 -1.5013  2.7754
14184TIP3   OH263966   5.342   5.374   4.077 -0.7626  0.0054  0.5913
14184TIP3    H163967   5.270   5.347   4.133 -1.0911 -0.4732 -0.0478
14184TIP3    H263968   5.408   5.409   4.137 -1.7113  0.8877  1.1441
14185TIP3   OH263969   2.504   6.099  12.945  0.1102 -0.1479  0.2448
14185TIP3    H163970   2.599   6.110  12.941  0.3158 -1.8359 -0.0619
14185TIP3    H263971   2.488   6.016  12.900 -1.5615  0.3423 -0.0971
14186TIP3   OH263972   4.277   3.281   3.852  0.3030 -0.2488 -0.1947
14186TIP3    H163973   4.219   3.326   3.790  0.4840 -0.5754 -0.6012
14186TIP3    H263974   4.233   3.197   3.869  0.5376 -0.3968 -0.3189
14187TIP3   OH263975   5.274   1.843   3.297  0.0384 -0.2025 -0.8215
14187TIP3    H163976   5.345   1.839   3.233  0.6063 -0.6650 -0.1642
14187TIP3    H263977   5.217   1.913   3.265  0.2406 -0.5196 -1.9117
14188TIP3   OH263978   3.406   3.752   0.943 -0.2853 -0.0106 -0.0179
14188TIP3    H163979   3.320   3.741   0.982 -0.2678 -0.2797 -0.0496
14188TIP3    H263980   3.394   3.819   0.876 -1.1412 -2.0572 -2.0066
14189TIP3   OH263981   6.233   6.746  15.801  0.4224  0.4856 -0.5068
14189TIP3    H163982   6.239   6.651  15.808 -0.5106  0.3224 -1.7472
14189TIP3    H263983   6.322   6.774  15.778  1.3044  0.1810  2.3840
14190TIP3   OH263984   3.272   6.137   1.736  0.0175  0.0736 -1.2238
14190TIP3    H163985   3.325   6.216   1.730 -0.4830  0.3877 -1.4819
14190TIP3    H263986   3.334   6.066   1.721  0.3588  0.4406 -1.5586
14191TIP3   OH263987   2.944   5.339  12.237  0.7012  0.4084 -0.0232
14191TIP3    H163988   2.957   5.265  12.297 -1.5154  0.1562  0.1968
14191TIP3    H263989   2.852   5.333  12.212  0.3769  3.3536  0.3171
14192TIP3   OH263990   3.568   3.441  16.729 -0.1473 -0.2612  0.0507
14192TIP3    H163991   3.512   3.423  16.804 -1.2441 -0.4155 -0.7778
14192TIP3    H263992   3.561   3.535  16.715  0.6279 -0.1197  0.5704
14193TIP3   OH263993   4.312   3.704   2.690  0.3952  0.4426  0.1608
14193TIP3    H163994   4.292   3.791   2.657 -2.5975 -0.5284 -0.8173
14193TIP3    H263995   4.268   3.700   2.775 -1.1954 -0.7559 -0.6922
14194TIP3   OH263996   2.319   4.031   4.526  0.1117 -0.1898  0.5914
14194TIP3    H163997   2.227   4.015   4.505  0.7636 -0.1521 -2.5887
14194TIP3    H263998   2.319   4.065   4.616 -2.8170 -1.6201  1.1607
14195TIP3   OH263999   4.530   1.698  16.313  0.2954  0.0001  0.4205
14195TIP3    H164000   4.542   1.693  16.407 -0.4178 -1.5285  0.4552
14195TIP3    H264001   4.575   1.779  16.286 -0.0312  0.7595  2.1355
14196TIP3   OH264002   0.437   1.751  12.623 -0.3904 -0.0935  0.0593
14196TIP3    H164003   0.484   1.834  12.609  0.4885 -0.8328 -1.4255
14196TIP3    H264004   0.369   1.774  12.686 -0.1312  1.7645 -0.2810
14197TIP3   OH264005   2.077   1.727  16.033 -0.2386 -0.2304  0.0057
14197TIP3    H164006   2.153   1.783  16.026 -0.6613  0.1153 -2.0721
14197TIP3    H264007   2.112   1.638  16.027  0.0637 -0.0853 -0.3872
14198TIP3   OH264008   5.766   3.754   4.979  0.0426 -0.1822  0.3565
14198TIP3    H164009   5.705   3.780   4.910 -0.1858 -1.4611  0.0680
14198TIP3    H264010   5.779   3.834   5.030  0.3389  0.8278 -1.2484
14199TIP3   OH264011   3.489   4.576  15.212 -0.5414  0.2515  0.3477
14199TIP3    H164012   3.409   4.544  15.255 -0.7843 -1.5352 -1.3619
14199TIP3    H264013   3.460   4.606  15.126  0.8902 -2.1472 -1.0086
14200TIP3   OH264014   2.100   3.241  11.905  0.1501  0.0454 -0.8089
14200TIP3    H164015   2.105   3.232  11.810  2.0385 -1.1116 -0.6110
14200TIP3    H264016   2.191   3.251  11.933 -0.6244  5.3213  0.4493
14201TIP3   OH264017   1.162   3.574   3.072 -0.1580  0.2354 -0.5639
14201TIP3    H164018   1.244   3.542   3.035 -0.0423  0.0272 -0.1311
14201TIP3    H264019   1.144   3.515   3.145 -0.0727  0.9989  0.0827
14202TIP3   OH264020   1.272   2.748  13.937  0.0404 -0.6290  0.1970
14202TIP3    H164021   1.256   2.724  13.846  1.0705  0.0943 -0.1816
14202TIP3    H264022   1.268   2.665  13.985  4.4328 -1.8109 -1.2220
14203TIP3   OH264023   1.807   5.983   3.881  0.4590 -0.3331 -0.5202
14203TIP3    H164024   1.739   5.927   3.843 -0.6655  0.2229  0.6179
14203TIP3    H264025   1.837   6.037   3.808 -1.5496  0.6109 -0.6887
14204TIP3   OH264026   0.226   5.654  10.353 -0.0421 -0.3378  0.5612
14204TIP3    H164027   0.161   5.639  10.421 -1.1499  4.1890  0.6515
14204TIP3    H264028   0.176   5.655  10.272  0.9196 -3.1281 -0.1425
14205TIP3   OH264029   3.136   3.732   5.332  0.2978 -0.0893 -0.1976
14205TIP3    H164030   3.186   3.651   5.339  0.9406  0.2739 -0.6279
14205TIP3    H264031   3.147   3.774   5.418  0.1885 -0.3243 -0.0679
14206TIP3   OH264032   1.188   1.054  12.184 -0.4792 -0.6641 -0.2009
14206TIP3    H164033   1.143   1.025  12.263  1.4939 -0.7333  0.9292
14206TIP3    H264034   1.210   0.973  12.138 -0.7764 -0.6660 -0.3409
14207TIP3   OH264035   2.391   3.583  11.126  0.4031 -0.1722  0.5812
14207TIP3    H164036   2.318   3.524  11.145 -0.2951 -0.0150 -1.4952
14207TIP3    H264037   2.438   3.542  11.054  0.4150  1.3469 -0.3087
14208TIP3   OH264038   1.817   1.986   4.239  0.6227  0.0573 -0.4169
14208TIP3    H164039   1.750   1.966   4.174  0.7290 -0.2714 -0.4214
14208TIP3    H264040   1.891   2.019   4.188  1.1233 -1.2702 -0.5519
14209TIP3   OH264041   3.066   4.883   2.198 -0.0474  0.7972 -0.6464
14209TIP3    H164042   2.975   4.909   2.191 -0.4375 -0.5110 -0.6026
14209TIP3    H264043   3.096   4.874   2.108 -0.5466 -0.7135 -0.6759
14210TIP3   OH264044   1.754   5.472  16.093 -0.0219  0.1259 -0.0652
14210TIP3    H164045   1.745   5.560  16.129  1.2907 -0.0319  0.6691
14210TIP3    H264046   1.794   5.486  16.007  2.0643  0.1462  0.8662
14211TIP3   OH264047   0.484   1.479   2.956 -0.4343  0.2066  0.1182
14211TIP3    H164048   0.416   1.543   2.978 -0.6768  0.2139 -0.6464
14211TIP3    H264049   0.556   1.500   3.016 -1.2293 -0.0196  1.1708
14212TIP3   OH264050   5.411   3.617   3.663  0.2110 -0.0400  0.2184
14212TIP3    H164051   5.324   3.657   3.652  0.1909  0.3237  1.6073
14212TIP3    H264052   5.465   3.686   3.699  0.6436 -0.7516  0.9571
14213TIP3   OH264053   0.085   0.053  11.558 -0.0760 -0.0670 -0.3670
14213TIP3    H164054   0.091   0.145  11.535 -2.3255  0.2028  0.0595
14213TIP3    H264055   0.040   0.051  11.642 -0.4901 -1.5828 -0.5982
14214TIP3   OH264056   2.861   3.642  12.303 -0.2390 -0.0467 -0.1237
14214TIP3    H164057   2.823   3.712  12.248  3.0168  3.1699  1.4925
14214TIP3    H264058   2.846   3.672  12.393  0.6087 -1.8187  0.6247
14215TIP3   OH264059   2.939   1.637  15.540  0.2332 -0.8291  0.3494
14215TIP3    H164060   2.940   1.632  15.636 -0.5870  0.3251  0.4318
14215TIP3    H264061   2.876   1.706  15.521  1.8019  0.2499 -0.9773
14216TIP3   OH264062   4.702   1.274   4.852 -0.0067  0.4372  0.3711
14216TIP3    H164063   4.724   1.325   4.930  0.8059  0.6337  0.0081
14216TIP3    H264064   4.640   1.208   4.884  0.6754  0.2287  1.2713
14217TIP3   OH264065   2.195   1.865  16.588 -0.1515  0.2394  0.6348
14217TIP3    H164066   2.132   1.866  16.661  2.1343  0.5683  2.6787
14217TIP3    H264067   2.252   1.791  16.607 -0.2707 -0.4383 -1.5261
14218TIP3   OH264068   6.056   5.399   2.947 -0.6078 -0.1947  0.5853
14218TIP3    H164069   5.994   5.434   2.884 -0.7040  0.0316  0.8008
14218TIP3    H264070   6.062   5.306   2.927  0.5711  0.1528 -0.7876
14219TIP3   OH264071   5.946   3.007  17.080 -0.2070  0.1663  0.5468
14219TIP3    H164072   6.023   3.016  17.137  0.9479  1.9322 -1.2282
14219TIP3    H264073   5.905   2.925  17.108  1.6352 -0.1832  2.3497
14220TIP3   OH264074   1.243   4.152  14.978  0.2944 -0.1407 -0.0069
14220TIP3    H164075   1.278   4.162  14.890  0.7148 -2.2682 -0.1211
14220TIP3    H264076   1.312   4.185  15.036  0.7484 -0.3655 -0.4168
14221TIP3   OH264077   2.313   3.045   5.869  0.9683  0.0721  0.4835
14221TIP3    H164078   2.336   2.952   5.878  0.4231 -0.0998  0.1420
14221TIP3    H264079   2.221   3.050   5.896  1.2535  0.6644  1.3520
14222TIP3   OH264080   3.783   3.621   1.837  0.1728  0.0021 -0.1734
14222TIP3    H164081   3.726   3.670   1.895 -0.1402  0.9329 -1.2496
14222TIP3    H264082   3.872   3.641   1.868 -0.0454 -0.5121  0.7673
14223TIP3   OH264083   4.737   6.170  11.041  0.1412  0.1299 -0.3233
14223TIP3    H164084   4.779   6.180  10.956  0.6931 -1.0251 -0.1869
14223TIP3    H264085   4.792   6.220  11.101  1.2088 -1.1918 -0.1828
14224TIP3   OH264086   1.215   5.438   4.204 -0.2120 -0.0283 -0.1639
14224TIP3    H164087   1.263   5.464   4.283  0.2524 -1.1808 -0.0573
14224TIP3    H264088   1.259   5.359   4.174 -2.0407 -1.1192 -0.0662
14225TIP3   OH264089   3.519   6.394   2.596 -0.0154 -0.5814 -0.5413
14225TIP3    H164090   3.442   6.361   2.643  0.0091  1.6185  1.1408
14225TIP3    H264091   3.521   6.343   2.515 -2.4619 -1.6219 -0.0096
14226TIP3   OH264092   2.050   3.507   2.132  0.1717 -0.4012  0.0072
14226TIP3    H164093   2.103   3.584   2.154  0.4954  0.0161 -2.1630
14226TIP3    H264094   2.090   3.472   2.053 -2.2340 -0.6336 -1.1473
14227TIP3   OH264095   4.959   3.296  17.161  0.1456 -0.2445  0.2304
14227TIP3    H164096   4.933   3.204  17.149 -1.4108  0.2514 -0.3354
14227TIP3    H264097   4.925   3.319  17.247  0.6511 -0.2274  0.4285
14228TIP3   OH264098   6.277   5.803   2.678 -0.2099  0.7119 -0.4823
14228TIP3    H164099   6.318   5.734   2.627  0.1564 -0.5531  1.4765
14228TIP3    H264100   6.278   5.879   2.620  0.3373 -0.6175 -2.2838
14229TIP3   OH264101   0.473   3.291  11.149  0.1178 -0.2335  0.6956
14229TIP3    H164102   0.432   3.204  11.144  0.5093 -0.2892 -2.5335
14229TIP3    H264103   0.408   3.345  11.193 -0.1788 -2.1079  2.6607
14230TIP3   OH264104   0.493   4.205   5.005  0.0019  0.0340 -0.1990
14230TIP3    H164105   0.534   4.256   5.074  0.5611  0.8738 -1.1314
14230TIP3    H264106   0.566   4.165   4.958 -0.3432 -0.1863 -0.5532
14231TIP3   OH264107   1.058   5.278   0.905 -0.3154  0.0481 -0.2914
14231TIP3    H164108   1.010   5.355   0.937  1.3327  0.2672  1.7345
14231TIP3    H264109   1.064   5.221   0.981  1.1951 -0.6964 -0.9685
14232TIP3   OH264110   4.762   2.481   4.152 -0.1231  0.3727  0.4076
14232TIP3    H164111   4.697   2.414   4.133  0.9589 -1.0053  1.4455
14232TIP3    H264112   4.711   2.556   4.181 -1.2235 -0.9861  2.1000
14233TIP3   OH264113   5.780   4.423   6.579 -0.2642  0.1752 -0.0723
14233TIP3    H164114   5.711   4.361   6.556  1.4691 -1.2201 -1.6413
14233TIP3    H264115   5.790   4.479   6.502  1.1579 -0.3825 -0.3002
14234TIP3   OH264116   0.611   1.425   0.829 -0.2393 -0.0081 -0.2514
14234TIP3    H164117   0.691   1.399   0.875 -0.3503  0.9215  0.4799
14234TIP3    H264118   0.540   1.384   0.878 -0.3759  1.1890  0.5860
14235TIP3   OH264119   4.947   0.202  13.765 -0.4497  0.3783  0.4471
14235TIP3    H164120   4.977   0.244  13.684  0.2848  3.4811  2.2517
14235TIP3    H264121   5.020   0.213  13.826 -0.9370 -2.0754  1.5189
14236TIP3   OH264122   0.188   6.404  14.142  0.6074  0.2258  0.4575
14236TIP3    H164123   0.274   6.363  14.134  0.3431 -0.3418  0.5460
14236TIP3    H264124   0.181   6.425  14.235  0.0713 -0.9970  0.7062
14237TIP3   OH264125   4.237   0.270  11.620 -0.4441 -0.5965  0.2165
14237TIP3    H164126   4.219   0.340  11.684 -0.7940 -1.4775  1.1077
14237TIP3    H264127   4.319   0.231  11.650  0.3095  0.1212 -0.9019
14238TIP3   OH264128   4.434   4.012  15.703  0.1004 -0.5515  0.5018
14238TIP3    H164129   4.469   3.929  15.672  0.0630 -0.1776 -0.5658
14238TIP3    H264130   4.366   3.988  15.766 -2.6935 -1.4678 -2.7034
14239TIP3   OH264131   5.638   0.246  13.845 -0.0553  0.0203  0.4411
14239TIP3    H164132   5.565   0.185  13.860 -0.7891  0.5131 -0.9628
14239TIP3    H264133   5.603   0.309  13.782  1.6525  0.1585 -0.3963
14240TIP3   OH264134   0.516   1.944   5.134  0.1098 -0.2791 -0.7123
14240TIP3    H164135   0.538   2.037   5.129  0.3185 -0.2294  0.8610
14240TIP3    H264136   0.598   1.900   5.157 -0.5324 -0.5353  1.1890
14241TIP3   OH264137   2.699   2.210   2.388  0.2671  0.3052  0.7413
14241TIP3    H164138   2.681   2.173   2.302 -0.1314  0.6509  0.6745
14241TIP3    H264139   2.613   2.214   2.431  0.3903  0.6217  0.9593
14242TIP3   OH264140   6.594   4.072  16.123  0.6512  0.8227 -0.0605
14242TIP3    H164141   6.563   4.021  16.197  0.8094  0.3088 -0.3466
14242TIP3    H264142   6.688   4.053  16.118  0.5029  0.2742 -0.8467
14243TIP3   OH264143   3.586   3.565  15.043 -0.2925 -0.2106  0.1421
14243TIP3    H164144   3.518   3.539  14.980 -0.3809  2.2590 -0.8232
14243TIP3    H264145   3.668   3.555  14.995  0.0756 -3.0562  1.2657
14244TIP3   OH264146   0.431   0.675   5.442 -0.2551  0.1366 -0.4995
14244TIP3    H164147   0.411   0.737   5.372  0.2603 -0.6181 -1.3334
14244TIP3    H264148   0.413   0.722   5.523  0.6965  1.5491 -1.1076
14245TIP3   OH264149   1.114   2.901  13.627  0.1378 -0.0973  0.3354
14245TIP3    H164150   1.127   2.993  13.605  2.1144  0.1801  2.4374
14245TIP3    H264151   1.174   2.854  13.569 -0.3444  0.0011 -0.2414
14246TIP3   OH264152   0.549   1.053   6.099  0.5144  0.8448 -0.0842
14246TIP3    H164153   0.609   1.020   6.166  1.4564  1.4709 -0.6087
14246TIP3    H264154   0.539   1.146   6.120 -2.9404  0.0669  2.0121
14247TIP3   OH264155   0.247   3.104   4.093  0.3775  0.1444  0.5095
14247TIP3    H164156   0.155   3.120   4.072  0.2238 -0.6623  0.5352
14247TIP3    H264157   0.244   3.054   4.175  0.9315  2.4387  1.9591
14248TIP3   OH264158   5.599   0.818  11.898  0.0340  0.0993  0.0572
14248TIP3    H164159   5.554   0.764  11.963 -1.0366 -1.7815 -2.2001
14248TIP3    H264160   5.670   0.763  11.865  0.1042  0.7672 -0.9295
14249TIP3   OH264161   2.679   3.790   0.889  0.5704  0.0532  0.5958
14249TIP3    H164162   2.732   3.725   0.934  1.5404  0.5922  0.2520
14249TIP3    H264163   2.726   3.808   0.808 -1.2390 -1.0039 -0.7004
14250TIP3   OH264164   5.671   0.441   1.703 -0.3217 -0.2236  0.1834
14250TIP3    H164165   5.758   0.405   1.689 -0.8759 -1.8175  0.6922
14250TIP3    H264166   5.675   0.530   1.668  1.7570  0.0294  1.0471
14251TIP3   OH264167   5.688   0.651  13.619 -0.0095  0.0944  0.5805
14251TIP3    H164168   5.751   0.677  13.687 -0.3947  1.1510  0.5361
14251TIP3    H264169   5.725   0.570  13.583  1.1757  0.5422  0.7530
14252TIP3   OH264170   6.603   2.836  13.508 -0.5491 -0.9033 -0.0652
14252TIP3    H164171   6.615   2.745  13.535  0.5188 -0.6850  0.1918
14252TIP3    H264172   6.690   2.867  13.485 -0.8772  0.1039  0.0024
14253TIP3   OH264173   1.617   6.072  11.774 -0.6337  0.3904 -0.3187
14253TIP3    H164174   1.704   6.034  11.785 -0.7664 -0.4220 -2.0397
14253TIP3    H264175   1.597   6.110  11.860  0.3841 -1.5344  0.8041
14254TIP3   OH264176   1.801   6.538  13.967  0.2099 -0.4222  0.5382
14254TIP3    H164177   1.832   6.601  14.033 -2.2991  2.2731 -0.7592
14254TIP3    H264178   1.864   6.547  13.895 -0.9524  1.6745 -0.2275
14255TIP3   OH264179   2.178   1.877   4.015 -0.6199  0.2801  0.2878
14255TIP3    H164180   2.113   1.940   3.985  0.2978  1.3316  0.4971
14255TIP3    H264181   2.233   1.925   4.077  0.0618 -0.7251  0.4881
14256TIP3   OH264182   1.098   5.797  17.137 -0.6022 -0.0931 -0.0687
14256TIP3    H164183   1.131   5.709  17.120 -2.1337 -0.9075  1.1080
14256TIP3    H264184   1.176   5.852  17.139  0.4538 -1.5908  0.2583
14257TIP3   OH264185   1.959   0.438   0.042 -0.2252  0.5708  0.0915
14257TIP3    H164186   1.906   0.451  -0.037 -0.3481 -0.4623 -0.0124
14257TIP3    H264187   1.896   0.434   0.113 -0.1342  1.2596  0.2079
14258TIP3   OH264188   2.693   2.078   1.593  0.6761  0.0566 -0.0836
14258TIP3    H164189   2.686   1.984   1.574  1.1826 -0.4379  2.0583
14258TIP3    H264190   2.610   2.099   1.636  1.5415  0.0565  1.5944
14259TIP3   OH264191   2.749   3.001   2.752 -0.2335 -0.5792  0.0867
14259TIP3    H164192   2.717   2.997   2.662 -0.3892 -0.2684  0.1270
14259TIP3    H264193   2.836   3.039   2.745 -0.5330  0.1286  0.1338
14260TIP3   OH264194   3.622   3.260  14.235  0.1462 -0.2157 -0.5089
14260TIP3    H164195   3.664   3.189  14.284 -0.3345 -1.3389 -1.6975
14260TIP3    H264196   3.683   3.333  14.242  0.2341 -0.4585  1.4794
14261TIP3   OH264197   5.116   4.250   5.217  0.5307  0.6196  0.0268
14261TIP3    H164198   5.186   4.279   5.158  0.2183  0.3166 -0.4910
14261TIP3    H264199   5.053   4.206   5.160 -0.5683  1.7496  0.3479
14262TIP3   OH264200   4.428   4.080   2.161 -0.1037  0.0413 -0.7711
14262TIP3    H164201   4.389   4.033   2.235  0.6166  0.3771 -0.1798
14262TIP3    H264202   4.495   4.020   2.128 -1.1284 -0.5486 -1.8082
14263TIP3   OH264203   0.561   0.263   3.127 -0.1711  0.2947 -0.2203
14263TIP3    H164204   0.570   0.347   3.172 -3.2032  1.4455 -1.6094
14263TIP3    H264205   0.470   0.237   3.144  0.7023 -2.7215  0.1481
14264TIP3   OH264206   2.544   4.554  12.196 -0.3175 -0.4628 -0.3018
14264TIP3    H164207   2.467   4.510  12.232 -0.2972  1.0286  1.6354
14264TIP3    H264208   2.509   4.620  12.136 -0.5840  0.5010  0.8976
14265TIP3   OH264209   4.314   3.060   1.645  0.0690  0.0625 -0.9093
14265TIP3    H164210   4.328   2.987   1.585 -0.1136 -0.0008 -0.8752
14265TIP3    H264211   4.230   3.041   1.687 -0.0353  0.3497 -0.9840
14266TIP3   OH264212   1.228   4.112  11.807 -0.2120  0.0267  0.8417
14266TIP3    H164213   1.146   4.076  11.839 -0.3153  0.3874  0.9889
14266TIP3    H264214   1.204   4.159  11.727 -0.1639  0.2134  0.9367
14267TIP3   OH264215   3.790   2.082  12.056 -0.1403 -0.8484 -0.2247
14267TIP3    H164216   3.803   2.166  12.099  1.2840 -2.0669  1.7877
14267TIP3    H264217   3.715   2.043  12.101  0.7253 -1.6970  0.4912
14268TIP3   OH264218   2.942   2.260  16.103  0.5080  0.4429  0.1159
14268TIP3    H164219   3.019   2.227  16.056  0.6980  1.2106 -0.1295
14268TIP3    H264220   2.935   2.351  16.075 -1.1987  0.0494 -0.7903
14269TIP3   OH264221   2.928   6.345   3.704 -0.3282 -0.5786  0.1689
14269TIP3    H164222   2.860   6.307   3.648 -2.8259  1.1140  1.9460
14269TIP3    H264223   2.968   6.414   3.650 -0.7660 -0.8569 -0.5141
14270TIP3   OH264224   4.648   1.661   3.310 -0.5746  0.4218 -0.0936
14270TIP3    H164225   4.577   1.691   3.366 -0.5503  0.5602 -0.1352
14270TIP3    H264226   4.607   1.647   3.225 -0.2619  1.9706 -0.5184
14271TIP3   OH264227   1.512   2.506  16.648  0.7168  0.3059  0.5817
14271TIP3    H164228   1.569   2.449  16.699  0.2233 -0.9762 -0.2789
14271TIP3    H264229   1.423   2.481  16.675  0.3863 -1.6214 -2.1682
14272TIP3   OH264230   3.790   5.727  14.859 -0.4614 -0.2082  0.1495
14272TIP3    H164231   3.768   5.733  14.952 -1.2286 -0.8717  0.0161
14272TIP3    H264232   3.863   5.787  14.848 -0.5359  0.0734  1.1315
14273TIP3   OH264233   1.605   1.889  11.278  0.7213  0.2488  0.1406
14273TIP3    H164234   1.544   1.821  11.249  0.6117  0.0733  0.7705
14273TIP3    H264235   1.653   1.914  11.198  0.4971 -0.2964 -0.1688
14274TIP3   OH264236   5.522   4.631  11.055 -0.1426 -0.4499 -0.3777
14274TIP3    H164237   5.551   4.610  10.966 -0.7051 -0.4360 -0.5670
14274TIP3    H264238   5.491   4.722  11.049  0.5819 -0.1705  0.0223
14275TIP3   OH264239   4.960   6.104   3.762 -0.4177  0.2945  0.6275
14275TIP3    H164240   4.902   6.092   3.687 -0.8021  0.2221  0.9335
14275TIP3    H264241   5.030   6.040   3.748 -0.2101  0.6398  0.0650
14276TIP3   OH264242   1.607   6.099  16.993 -0.2923 -0.9408 -0.3601
14276TIP3    H164243   1.516   6.121  16.973 -0.5749  0.2516  1.9811
14276TIP3    H264244   1.639   6.053  16.916 -2.5813 -0.4781 -1.6165
14277TIP3   OH264245   5.832   1.460   2.585  0.1466  0.6875  0.0557
14277TIP3    H164246   5.908   1.514   2.606 -1.8571  2.8082  2.1053
14277TIP3    H264247   5.818   1.475   2.491  3.5114 -1.4654 -0.8841
14278TIP3   OH264248   2.250   3.790  10.900  0.5988  0.7009 -0.0866
14278TIP3    H164249   2.340   3.812  10.875  0.9690 -1.6493 -0.9347
14278TIP3    H264250   2.211   3.754  10.821 -1.0627  1.5660  0.3161
14279TIP3   OH264251   6.114   4.891   1.365 -0.8674  0.0224 -0.2444
14279TIP3    H164252   6.032   4.877   1.412 -1.4538 -1.0493 -1.5850
14279TIP3    H264253   6.111   4.982   1.337 -1.0468  0.3301  0.7557
14280TIP3   OH264254   0.882   0.798  13.068 -0.3867 -0.4888 -0.8220
14280TIP3    H164255   0.875   0.762  12.980 -0.5432 -2.1298 -0.1707
14280TIP3    H264256   0.973   0.828  13.074 -1.0988  2.0971 -2.4188
14281TIP3   OH264257   6.411   1.749  14.123 -0.5837  0.2241  0.0534
14281TIP3    H164258   6.468   1.776  14.051 -1.3645 -0.9455 -1.0240
14281TIP3    H264259   6.339   1.812  14.121 -1.4675 -0.7880 -1.2931
14282TIP3   OH264260   5.593   1.068  13.775 -0.1805 -0.1631 -0.6325
14282TIP3    H164261   5.647   1.075  13.696 -0.1445 -0.5782 -0.6471
14282TIP3    H264262   5.542   0.988  13.762 -1.2436  0.5437 -0.8908
14283TIP3   OH264263   5.373   1.674   2.227  0.1142  0.0071  0.0105
14283TIP3    H164264   5.296   1.686   2.171 -0.6285  0.5356  1.1044
14283TIP3    H264265   5.420   1.601   2.188 -0.5657  0.1416 -1.0974
14284TIP3   OH264266   2.527   4.347  13.102 -0.7233 -0.2824 -0.4497
14284TIP3    H164267   2.499   4.388  13.020  0.5933  0.3376 -0.6007
14284TIP3    H264268   2.548   4.257  13.078  2.1231  0.5737 -1.3360
14285TIP3   OH264269   0.199   2.631   1.997 -0.0150  0.0948 -0.3490
14285TIP3    H164270   0.281   2.664   1.962 -0.3023  0.8759 -0.2985
14285TIP3    H264271   0.183   2.684   2.075 -0.4570 -0.2003 -0.2330
14286TIP3   OH264272   6.681   4.163  12.947 -0.0892 -0.6247  0.1663
14286TIP3    H164273   6.591   4.174  12.919  0.1284  0.7383 -0.0537
14286TIP3    H264274   6.693   4.226  13.018  0.9576 -0.1102 -0.4500
14287TIP3   OH264275   2.823   6.505  14.686 -0.2632  0.3163  0.2889
14287TIP3    H164276   2.752   6.569  14.694 -0.2762  0.4761 -1.1172
14287TIP3    H264277   2.827   6.485  14.593  1.9349  0.7333  0.2754
14288TIP3   OH264278   5.656   1.722   3.440  0.3033 -0.1207 -0.0231
14288TIP3    H164279   5.612   1.718   3.355  3.4308  0.2178 -1.7391
14288TIP3    H264280   5.613   1.793   3.487 -1.4775 -0.3177 -1.3207
14289TIP3   OH264281   0.748   2.097   3.755  0.2967  0.4028 -0.4117
14289TIP3    H164282   0.746   2.004   3.777 -1.6294  1.0966  2.5721
14289TIP3    H264283   0.698   2.103   3.674 -1.2714 -0.9303  0.4304
14290TIP3   OH264284   4.011   5.102  14.049  0.0550 -0.1972 -0.1591
14290TIP3    H164285   4.084   5.139  14.000 -1.2425 -0.7178 -2.5741
14290TIP3    H264286   3.946   5.081  13.982 -1.3276 -1.9917  1.7034
14291TIP3   OH264287   0.108   3.571  15.127  0.2290  0.3340 -0.3912
14291TIP3    H164288   0.095   3.665  15.126  0.2409  0.3429  0.4615
14291TIP3    H264289   0.098   3.545  15.035  2.1560  1.4153 -0.9484
14292TIP3   OH264290   4.083   1.694   0.373  0.2064  0.0606  1.1078
14292TIP3    H164291   3.997   1.732   0.393  0.6307  1.0498  1.1153
14292TIP3    H264292   4.144   1.744   0.428  0.8991  0.0563  0.3527
14293TIP3   OH264293   4.183   5.375   5.728  0.0736 -0.1901 -0.7222
14293TIP3    H164294   4.095   5.341   5.742 -0.5786  1.8735  0.4228
14293TIP3    H264295   4.184   5.405   5.637 -0.5427  0.1579 -0.6148
14294TIP3   OH264296   1.228   1.309   5.939 -0.9943  0.3797  0.1156
14294TIP3    H164297   1.182   1.242   5.990 -1.6583  1.6911  1.2773
14294TIP3    H264298   1.311   1.321   5.985 -1.1635  0.8337  0.3058
14295TIP3   OH264299   2.359   2.894   1.835 -0.0238 -0.1718 -0.6027
14295TIP3    H164300   2.303   2.837   1.887  0.1029 -0.3497 -0.6618
14295TIP3    H264301   2.360   2.855   1.748 -0.8236  0.5364 -0.9291
14296TIP3   OH264302   1.914   0.159  16.423  0.8405 -0.4326 -0.2320
14296TIP3    H164303   1.941   0.216  16.351  0.2916  0.0231 -0.0791
14296TIP3    H264304   1.873   0.084  16.379 -1.0191  0.6281 -0.3776
14297TIP3   OH264305   4.144   1.679   3.039 -0.3128 -0.4201  0.5970
14297TIP3    H164306   4.154   1.698   2.945  0.5424  0.2383  0.8099
14297TIP3    H264307   4.206   1.608   3.056  0.2325  0.1130  0.8550
14298TIP3   OH264308   3.323   5.299  14.200 -0.0322  0.5624  0.1304
14298TIP3    H164309   3.233   5.318  14.172 -0.3501 -0.8577  0.1313
14298TIP3    H264310   3.369   5.382  14.189 -1.0373  0.9942 -1.0842
14299TIP3   OH264311   1.667   4.236   2.789 -0.0763 -0.8831  0.4844
14299TIP3    H164312   1.598   4.173   2.765 -2.4537  1.7498  0.0832
14299TIP3    H264313   1.692   4.277   2.706 -0.6249  0.6945  1.0811
14300TIP3   OH264314   4.653   2.812   2.500 -0.1664 -0.1329  0.0390
14300TIP3    H164315   4.700   2.729   2.509 -1.8584 -1.2682 -1.4580
14300TIP3    H264316   4.561   2.788   2.499 -0.6951  1.8098 -0.0170
14301TIP3   OH264317   5.473   4.039  15.592  0.2444 -0.1131 -0.2049
14301TIP3    H164318   5.488   4.061  15.500 -1.1770 -1.3128 -0.7341
14301TIP3    H264319   5.387   3.998  15.594 -0.4093  1.2841  1.9013
14302TIP3   OH264320   3.835   5.183   4.420 -0.1352 -0.0168  0.1458
14302TIP3    H164321   3.815   5.198   4.327 -1.8298 -1.0739  0.3111
14302TIP3    H264322   3.775   5.242   4.467 -0.2459 -0.4707  0.5827
14303TIP3   OH264323   6.064   5.697  13.821  0.6222 -0.1838  0.1247
14303TIP3    H164324   6.081   5.665  13.732 -1.3895 -2.1603  0.4051
14303TIP3    H264325   6.146   5.739  13.847  0.5212  2.5715 -3.5201
14304TIP3   OH264326   2.533   2.835   4.007  0.0143 -0.5966 -0.1250
14304TIP3    H164327   2.517   2.785   3.926  0.4821 -0.9287 -0.0166
14304TIP3    H264328   2.612   2.886   3.988 -1.7281  1.8245 -1.0259
14305TIP3   OH264329   2.745   5.232   2.356  0.1488  0.1514 -0.0011
14305TIP3    H164330   2.721   5.231   2.264  1.5880 -1.2700 -0.3913
14305TIP3    H264331   2.823   5.177   2.361  0.0895  0.2030  2.0670
14306TIP3   OH264332   3.035   0.009   0.951  0.4429  0.1815  0.5101
14306TIP3    H164333   3.102   0.051   1.005 -0.4595 -0.5211  2.2148
14306TIP3    H264334   3.017  -0.074   0.996  0.0489 -0.6534 -1.1596
14307TIP3   OH264335   0.612   4.216   3.637 -0.4664 -0.0574 -0.0465
14307TIP3    H164336   0.580   4.137   3.679 -2.3930  1.4642  1.4736
14307TIP3    H264337   0.563   4.223   3.555  0.0252 -0.6610 -0.3932
14308TIP3   OH264338   6.755   2.841   4.476 -0.3262 -0.3471 -0.1247
14308TIP3    H164339   6.845   2.853   4.447 -0.6395 -1.1379 -1.4673
14308TIP3    H264340   6.750   2.888   4.559  1.9372 -2.1640  1.0912
14309TIP3   OH264341   4.353   4.928   1.034 -0.1557 -0.3482 -0.5283
14309TIP3    H164342   4.275   4.912   1.087 -0.9567 -0.7597 -1.8175
14309TIP3    H264343   4.410   4.852   1.051 -0.7894 -0.9183 -0.9167
14310TIP3   OH264344   3.429   5.279   5.952 -0.8109  0.2073 -0.3746
14310TIP3    H164345   3.493   5.220   5.992  0.7679  0.6105 -2.2350
14310TIP3    H264346   3.425   5.354   6.011 -0.8028 -0.5330  0.5830
14311TIP3   OH264347   5.405   3.656   1.259  0.3777  0.7196  0.3767
14311TIP3    H164348   5.366   3.677   1.174  2.8547  0.4500 -0.8624
14311TIP3    H264349   5.360   3.576   1.287  0.1889  0.2847 -1.1370
14312TIP3   OH264350   1.707   4.611  14.599 -0.2358  0.1218  0.5940
14312TIP3    H164351   1.743   4.599  14.686 -0.3332  1.1789  0.7905
14312TIP3    H264352   1.643   4.682  14.609 -2.5148 -1.8074  0.2913
14313TIP3   OH264353   4.200   0.787  14.770  0.2086  0.3522 -0.5624
14313TIP3    H164354   4.251   0.774  14.690  0.1920  0.2067 -0.5510
14313TIP3    H264355   4.147   0.864  14.753  0.8831  0.8661 -0.3471
14314TIP3   OH264356   4.026   3.825  14.462  0.3031 -0.1551 -0.8030
14314TIP3    H164357   3.983   3.829  14.377 -0.0657  0.4345 -0.5934
14314TIP3    H264358   4.107   3.875  14.451 -1.4233  3.0138  0.1431
14315TIP3   OH264359   0.006   5.448  13.604  0.1778  0.1532  0.6969
14315TIP3    H164360  -0.021   5.444  13.512  1.9260  2.2029  0.0566
14315TIP3    H264361  -0.034   5.529  13.637  1.0101  0.3605  1.2208
14316TIP3   OH264362   6.177   1.798  16.010  0.4229 -0.0420 -0.0403
14316TIP3    H164363   6.123   1.815  15.933  2.8232 -0.7958 -1.9641
14316TIP3    H264364   6.130   1.730  16.058 -1.5445  1.0762 -0.3474
14317TIP3   OH264365   2.667   5.651  14.247  0.2592  0.1696  0.1683
14317TIP3    H164366   2.643   5.660  14.340  1.4617  2.8854  0.2494
14317TIP3    H264367   2.749   5.603  14.248 -0.3658 -0.9137  0.4176
14318TIP3   OH264368   2.608   3.928   2.614 -0.1715 -0.1205 -0.2430
14318TIP3    H164369   2.634   3.901   2.702  0.4044 -0.9963 -0.6767
14318TIP3    H264370   2.688   3.962   2.575 -0.6467  1.2001 -0.0901
14319TIP3   OH264371   2.118   4.948  12.455 -0.8943  0.1368 -0.0150
14319TIP3    H164372   2.098   4.906  12.539 -2.3703 -0.1535 -0.5042
14319TIP3    H264373   2.063   4.903  12.391  0.0723  0.4798 -1.1275
14320TIP3   OH264374   2.606   3.128   5.231 -0.1348  0.3532  0.5278
14320TIP3    H164375   2.664   3.123   5.156  0.4191 -1.6979  1.0821
14320TIP3    H264376   2.562   3.213   5.222 -0.5487 -0.1466 -2.4324
14321TIP3   OH264377   6.093   3.945  16.969 -0.1322 -0.5125 -0.2793
14321TIP3    H164378   6.042   3.866  16.988 -1.2026  0.2047 -0.1030
14321TIP3    H264379   6.048   3.986  16.896  0.1801  0.1508 -0.1050
14322TIP3   OH264380   3.349   1.864   0.257  0.2401 -0.0736  0.2137
14322TIP3    H164381   3.417   1.931   0.266  1.2648 -1.0218 -0.3022
14322TIP3    H264382   3.357   1.833   0.167  0.9701 -2.1124  0.9412
14323TIP3   OH264383   1.357   1.968   2.414 -0.8629 -0.3985  0.3093
14323TIP3    H164384   1.331   1.893   2.467  1.2949 -1.8806 -0.6746
14323TIP3    H264385   1.305   1.961   2.334 -1.2774 -0.3598  0.5741
14324TIP3   OH264386   1.759   3.689  13.732 -0.0089 -0.4178  0.1662
14324TIP3    H164387   1.701   3.765  13.743 -0.9558 -0.9409 -1.0998
14324TIP3    H264388   1.846   3.723  13.753 -0.4595  0.9633 -0.1067
14325TIP3   OH264389   0.246   0.274   3.141  0.0377  0.2156  0.4050
14325TIP3    H164390   0.240   0.242   3.051 -2.1505  0.4475  0.4410
14325TIP3    H264391   0.173   0.335   3.150  0.4312  0.4448  2.2444
14326TIP3   OH264392   0.571   5.767  12.435 -0.0334 -0.1749  0.1947
14326TIP3    H164393   0.518   5.832  12.481  1.3914  1.6053 -0.5956
14326TIP3    H264394   0.620   5.818  12.370 -0.1836 -2.2817 -1.6418
14327TIP3   OH264395   2.982   2.539   6.620 -0.3701 -0.0313  0.1842
14327TIP3    H164396   3.074   2.515   6.615 -0.4387 -0.8913  2.4368
14327TIP3    H264397   2.935   2.462   6.587 -0.3132  0.1040 -0.2141
14328TIP3   OH264398   1.891   0.054  11.958  0.1318 -0.4236 -0.7198
14328TIP3    H164399   1.974   0.100  11.946  0.9030 -1.7727 -0.6853
14328TIP3    H264400   1.914  -0.039  11.955 -1.3596 -0.8204 -0.5750
14329TIP3   OH264401   6.416   3.991  13.346 -0.1252  0.9760  0.3990
14329TIP3    H164402   6.505   3.992  13.311 -1.0776  0.5362 -2.1583
14329TIP3    H264403   6.383   3.903  13.328 -0.4044  0.4589  3.1968
14330TIP3   OH264404   5.219   1.798  17.221 -0.0333  0.0788  0.5387
14330TIP3    H164405   5.252   1.765  17.305  0.3000 -1.8997 -0.3414
14330TIP3    H264406   5.205   1.719  17.168 -0.0163  1.3129 -1.3517
14331TIP3   OH264407   4.955   0.767   3.995  0.0330  0.0592 -0.5927
14331TIP3    H164408   4.875   0.818   4.011 -0.8930 -1.8889  1.3582
14331TIP3    H264409   4.932   0.709   3.923  0.3776  0.9195 -1.3979
14332TIP3   OH264410   1.248   6.099   5.795  0.3199 -0.6792 -0.1582
14332TIP3    H164411   1.210   6.137   5.716  0.5998  0.6185  0.3266
14332TIP3    H264412   1.212   6.151   5.867  0.5219 -1.4824  0.5313
14333TIP3   OH264413   4.761   3.867   0.711  0.0022  0.0637  0.4709
14333TIP3    H164414   4.768   3.843   0.804 -0.5456 -1.6958  0.0856
14333TIP3    H264415   4.757   3.783   0.665  2.6610  0.8393 -1.3634
14334TIP3   OH264416   1.789   2.946   3.906  0.3706  0.8032 -0.0409
14334TIP3    H164417   1.786   2.874   3.843 -0.5816  0.8324 -0.0252
14334TIP3    H264418   1.831   2.908   3.983 -0.6661  0.0903  0.1805
14335TIP3   OH264419   6.751   2.101  14.899 -0.3619  0.2494  0.3352
14335TIP3    H164420   6.742   2.117  14.993  0.7385  0.6560  0.3844
14335TIP3    H264421   6.704   2.020  14.883  1.2308 -0.9498  1.6218
14336TIP3   OH264422   3.314   4.435  15.384 -0.1461 -0.1794  0.6903
14336TIP3    H164423   3.255   4.493  15.431  2.4201  3.1350 -0.0081
14336TIP3    H264424   3.320   4.357  15.440 -2.4911  0.8093  2.3835
14337TIP3   OH264425   4.408   3.786  16.476  0.0513  0.1075 -0.3569
14337TIP3    H164426   4.410   3.809  16.569  3.5251 -1.8632  0.1453
14337TIP3    H264427   4.341   3.719  16.468 -1.8153  1.8588  0.2929
14338TIP3   OH264428   1.502   4.242  15.395 -0.1913 -0.2119  0.0818
14338TIP3    H164429   1.415   4.275  15.415 -0.8022  0.2922 -3.0681
14338TIP3    H264430   1.487   4.168  15.336  1.4378 -1.6738  1.4637
14339TIP3   OH264431   1.774   1.612   4.426  0.4057 -0.0689  0.2519
14339TIP3    H164432   1.681   1.635   4.430  0.3645 -0.3787  1.2619
14339TIP3    H264433   1.816   1.670   4.490  1.3005  1.8103 -1.9573
14340TIP3   OH264434   2.848   0.302   3.445  0.3172 -0.3577  0.1996
14340TIP3    H164435   2.930   0.338   3.410 -0.4114  0.4312 -0.7276
14340TIP3    H264436   2.821   0.365   3.512 -1.0031  0.9112 -1.4834
14341TIP3   OH264437   5.454   5.982  12.618 -0.3850 -0.5431 -0.5272
14341TIP3    H164438   5.534   5.950  12.576 -0.0069  0.5682 -0.6598
14341TIP3    H264439   5.462   5.954  12.709  0.5148  0.2037 -0.3650
14342TIP3   OH264440   6.100   0.196   5.258  0.3206  0.1362 -0.5727
14342TIP3    H164441   6.119   0.285   5.230  1.2320 -0.0769 -0.6532
14342TIP3    H264442   6.170   0.143   5.219  1.3575 -0.2371  1.7296
14343TIP3   OH264443   3.014   0.400   4.100 -0.8269  0.7394 -0.1838
14343TIP3    H164444   3.009   0.356   4.015  2.7361 -0.5869  0.2085
14343TIP3    H264445   2.965   0.343   4.160 -0.2408 -0.2413 -0.6285
14344TIP3   OH264446   0.033   1.469  16.259 -0.1761 -0.1340  0.0067
14344TIP3    H164447  -0.046   1.515  16.231  0.2540  1.2320  0.9624
14344TIP3    H264448   0.100   1.538  16.263  0.8000 -1.0838  0.1946
14345TIP3   OH264449   6.712   2.823   3.480 -0.2129 -0.1014  0.0919
14345TIP3    H164450   6.718   2.906   3.526  2.4432  0.0842 -0.5275
14345TIP3    H264451   6.701   2.757   3.549  2.1374  0.3307  0.8916
14346TIP3   OH264452   5.711   5.976   4.121  0.5102  0.7184  0.1818
14346TIP3    H164453   5.655   6.014   4.053  0.7507 -1.1785 -1.1335
14346TIP3    H264454   5.756   5.904   4.077  1.1963 -0.1220  2.1926
14347TIP3   OH264455   5.519   5.754   0.873 -0.2827  0.0442  0.3968
14347TIP3    H164456   5.570   5.789   0.800 -0.7581 -0.8488 -0.3697
14347TIP3    H264457   5.577   5.765   0.949  0.3376  0.6903 -0.1574
14348TIP3   OH264458   3.661   0.082   2.968 -0.2697  0.3778 -0.4260
14348TIP3    H164459   3.686   0.165   2.927  0.4798 -0.2428 -1.2498
14348TIP3    H264460   3.717   0.017   2.926  1.5616 -0.0952  2.6346
14349TIP3   OH264461   2.870   5.747   0.823  0.8022 -0.7176  0.1684
14349TIP3    H164462   2.849   5.710   0.738 -1.4769  2.3862 -0.7171
14349TIP3    H264463   2.805   5.711   0.882 -0.0145  0.0648 -0.2341
14350TIP3   OH264464   4.241   6.216   4.569 -0.7443 -0.2082  0.0607
14350TIP3    H164465   4.186   6.254   4.500 -1.1051 -0.6999  0.0726
14350TIP3    H264466   4.257   6.288   4.630 -1.2427 -0.0229 -0.0278
14351TIP3   OH264467   0.632   2.728   2.016  0.4827  0.5687 -0.3090
14351TIP3    H164468   0.561   2.782   2.050  0.9841  0.8528  0.2950
14351TIP3    H264469   0.712   2.775   2.039  1.1291 -2.0203  3.2737
14352TIP3   OH264470   5.649   5.464   4.984  0.1430  0.2840 -0.5067
14352TIP3    H164471   5.643   5.503   4.897  2.3597 -1.2788 -1.3792
14352TIP3    H264472   5.743   5.452   4.999 -0.3415 -1.7144  1.0998
14353TIP3   OH264473   6.414   6.725   5.449  0.4851  0.1921  0.1274
14353TIP3    H164474   6.412   6.651   5.388 -1.9489  0.2248  0.1432
14353TIP3    H264475   6.486   6.704   5.508 -0.4909 -2.4568  0.4654
14354TIP3   OH264476   5.774   5.504  15.810  0.1539  0.4264 -0.5044
14354TIP3    H164477   5.741   5.454  15.735  0.3330  1.4674 -1.2944
14354TIP3    H264478   5.719   5.582  15.813 -0.3805  0.0098  0.9640
14355TIP3   OH264479   0.552   2.684   4.739 -0.5194  0.6912 -0.2298
14355TIP3    H164480   0.469   2.684   4.787 -0.6601  0.1728 -0.4742
14355TIP3    H264481   0.529   2.653   4.651 -0.1300  0.9146 -0.4140
14356TIP3   OH264482   5.192   0.708   2.980  0.1588 -0.0729  0.0563
14356TIP3    H164483   5.104   0.733   3.009 -0.7079 -2.0669 -0.7822
14356TIP3    H264484   5.211   0.768   2.908 -0.4696  0.4334  0.3096
14357TIP3   OH264485   5.601   5.411   2.184 -0.3212  0.3390  0.1752
14357TIP3    H164486   5.648   5.488   2.219  0.5863 -0.1458  0.0236
14357TIP3    H264487   5.544   5.384   2.257 -0.4282  0.9651  0.3367
14358TIP3   OH264488   0.039   2.946  13.138 -0.7680 -0.1563  0.4006
14358TIP3    H164489  -0.038   3.002  13.145 -1.0154 -0.4571  0.0177
14358TIP3    H264490   0.064   2.929  13.229  0.2944  1.9564  0.5483
14359TIP3   OH264491   4.038   0.982  11.274  0.3265 -0.1884 -0.6484
14359TIP3    H164492   4.002   1.071  11.279 -0.4284 -0.5585  0.5363
14359TIP3    H264493   4.102   0.987  11.203 -1.3970  0.7047 -2.1804
14360TIP3   OH264494   5.611   1.130   0.883  0.4552 -0.5233  0.0469
14360TIP3    H164495   5.693   1.081   0.873 -0.2124 -1.8667  1.0392
14360TIP3    H264496   5.545   1.063   0.902 -0.5391  0.7115  1.0579
14361TIP3   OH264497   6.742   6.023  14.214  0.0104  0.1976 -0.7559
14361TIP3    H164498   6.709   6.112  14.217 -1.7103 -0.4775  1.2693
14361TIP3    H264499   6.673   5.972  14.172 -0.0872 -0.6224  0.3766
14362TIP3   OH264500   6.399   1.223  11.375  0.4544 -0.1763 -0.3347
14362TIP3    H164501   6.466   1.269  11.324 -0.3304  0.3611 -0.8814
14362TIP3    H264502   6.448   1.179  11.445  1.3291  0.6059 -0.4528
14363TIP3   OH264503   5.188   4.443   5.918  0.0412 -0.1243  0.1532
14363TIP3    H164504   5.183   4.490   5.835  0.4690 -0.4200 -0.0432
14363TIP3    H264505   5.169   4.509   5.984 -2.4885 -0.3298 -0.2904
14364TIP3   OH264506   1.679   2.727   1.284  0.6713 -0.0545  0.3437
14364TIP3    H164507   1.775   2.734   1.281  0.5959  0.4162 -3.1434
14364TIP3    H264508   1.648   2.816   1.267 -0.3785 -0.4944 -0.1010
14365TIP3   OH264509   5.057   5.117   5.599  0.0054  0.6274 -0.5682
14365TIP3    H164510   5.051   5.202   5.642 -0.4769 -0.4605  1.6041
14365TIP3    H264511   5.108   5.063   5.661 -0.2118 -0.8251 -1.6303
14366TIP3   OH264512   5.908   4.718   2.962  0.4810 -0.0485  0.1752
14366TIP3    H164513   5.876   4.748   3.047  2.7949  0.9506  0.7188
14366TIP3    H264514   5.978   4.656   2.983  0.6665 -0.2524 -1.0163
14367TIP3   OH264515   1.722   6.002   2.578  0.1951 -0.3918  0.2953
14367TIP3    H164516   1.674   6.080   2.550 -0.5076 -1.3632 -1.2663
14367TIP3    H264517   1.674   5.929   2.539  2.0656 -1.4743 -0.0467
14368TIP3   OH264518   4.861   1.686   2.865  0.5569  0.1408 -0.6144
14368TIP3    H164519   4.822   1.731   2.790  0.5775 -1.5417 -1.6662
14368TIP3    H264520   4.930   1.631   2.826 -0.0399 -1.4403  0.5143
14369TIP3   OH264521   6.349   6.519  12.910  0.0087  0.5523 -0.4457
14369TIP3    H164522   6.263   6.557  12.931 -0.4288 -0.5701 -0.1505
14369TIP3    H264523   6.406   6.551  12.980 -0.1261  1.4107 -0.7132
14370TIP3   OH264524   1.855   5.732  15.376  0.3549  0.0431  0.2058
14370TIP3    H164525   1.919   5.712  15.308 -0.3798 -2.5361  0.2310
14370TIP3    H264526   1.824   5.647  15.406 -1.9947  1.2205  1.2448
14371TIP3   OH264527   2.856   4.411   1.464  0.2263  0.4047 -0.3002
14371TIP3    H164528   2.863   4.421   1.369  2.0606  0.5623 -0.1588
14371TIP3    H264529   2.802   4.333   1.475  1.5753 -0.7286 -1.4983
14372TIP3   OH264530   2.770   4.698   2.026  0.2284  0.3683 -0.3509
14372TIP3    H164531   2.683   4.660   2.013 -0.9500  1.7333  3.1998
14372TIP3    H264532   2.759   4.791   2.006  1.4072  0.1753 -1.9691
14373TIP3   OH264533   5.818   0.670   2.628  0.2238 -0.2107  0.2807
14373TIP3    H164534   5.741   0.615   2.613 -0.7748  1.3539 -0.5168
14373TIP3    H264535   5.841   0.655   2.720 -2.0644  0.5456  1.0219
14374TIP3   OH264536   2.012   0.520   2.873 -0.2800  0.3650  0.6057
14374TIP3    H164537   2.041   0.530   2.964  0.2204 -1.2867  0.6356
14374TIP3    H264538   1.917   0.515   2.880 -0.3033  1.1406  0.9470
14375TIP3   OH264539   4.708   4.264   5.985 -0.2808 -0.5885 -0.6313
14375TIP3    H164540   4.773   4.318   6.030 -0.4884 -1.3898  0.6297
14375TIP3    H264541   4.628   4.317   5.988 -0.4457 -0.8975  0.4704
14376TIP3   OH264542   6.331   0.826   1.369 -1.0746  0.4107  0.4971
14376TIP3    H164543   6.312   0.916   1.343  2.1707  0.3804 -2.2514
14376TIP3    H264544   6.395   0.834   1.440 -0.5379  0.2601  0.0297
14377TIP3   OH264545   2.254   3.216  16.897  0.4550  0.2403 -0.4567
14377TIP3    H164546   2.168   3.201  16.858  0.4559 -0.2754 -0.2651
14377TIP3    H264547   2.244   3.297  16.946 -0.0663 -0.0825 -0.0209
14378TIP3   OH264548   2.444   1.403  14.568  0.2753  0.3614  0.0820
14378TIP3    H164549   2.377   1.336  14.584  0.9206 -0.1458  0.7015
14378TIP3    H264550   2.525   1.364  14.601  0.7354  1.2766  0.0464
14379TIP3   OH264551   3.407   2.117   2.347  0.6766  0.0304 -0.2245
14379TIP3    H164552   3.397   2.034   2.394 -0.5381 -0.1093 -0.7022
14379TIP3    H264553   3.331   2.168   2.373  1.7263  1.2252  0.5104
14380TIP3   OH264554   4.853   3.428   2.512 -0.5968 -0.3781  0.0910
14380TIP3    H164555   4.813   3.479   2.583 -0.0867  1.2654 -0.7661
14380TIP3    H264556   4.792   3.436   2.439  0.2947  0.4362 -0.5808
14381TIP3   OH264557   1.843   1.367  15.994 -0.0404  0.4290 -0.1410
14381TIP3    H164558   1.918   1.393  15.941  0.7628  0.1112  0.8254
14381TIP3    H264559   1.782   1.329  15.931  0.4216  1.0680 -0.9964
14382TIP3   OH264560   5.804   5.052   1.195 -0.3024  0.0633  0.0504
14382TIP3    H164561   5.883   5.067   1.246 -0.6342  0.1155  0.5447
14382TIP3    H264562   5.739   5.021   1.258 -0.3686 -0.9969 -0.5263
14383TIP3   OH264563   6.214   2.745   3.998  0.5274  0.2573  0.5402
14383TIP3    H164564   6.289   2.752   4.058  1.9987 -0.2425 -1.1934
14383TIP3    H264565   6.195   2.651   3.995  0.6044  0.2567  0.0664
14384TIP3   OH264566   6.509   1.946   0.611  0.5073 -0.9969 -0.1953
14384TIP3    H164567   6.506   2.007   0.685 -1.1196 -0.5994 -0.5746
14384TIP3    H264568   6.441   1.976   0.552  0.5722 -2.4011 -1.0160
14385TIP3   OH264569   3.109   4.191   3.604  0.0427  0.3968 -0.5472
14385TIP3    H164570   3.100   4.232   3.518  1.1777  0.0590 -0.8360
14385TIP3    H264571   3.105   4.097   3.587  2.6470  0.2612 -0.5384
14386TIP3   OH264572   0.077   2.686  16.865  0.2350  0.3371 -0.2758
14386TIP3    H164573   0.078   2.648  16.777  0.1637 -1.7279  0.5933
14386TIP3    H264574   0.150   2.644  16.910 -1.2224 -0.4745  1.4019
14387TIP3   OH264575   6.652   4.849  16.309  0.2998 -0.2330 -0.0568
14387TIP3    H164576   6.646   4.766  16.262 -3.6496 -2.5425  4.0105
14387TIP3    H264577   6.585   4.904  16.269 -0.0344 -0.6104 -0.0239
14388TIP3   OH264578   1.571   4.478   4.123 -0.0799  0.8968 -0.5049
14388TIP3    H164579   1.665   4.492   4.119 -0.0319  0.7626  0.0432
14388TIP3    H264580   1.545   4.516   4.207 -0.3865  0.2280 -0.2929
14389TIP3   OH264581   3.386   1.820  16.635  0.6612 -0.0454 -0.0055
14389TIP3    H164582   3.410   1.858  16.720  1.8766  1.1783 -0.8585
14389TIP3    H264583   3.444   1.864  16.572 -1.0760  0.0061 -1.6380
14390TIP3   OH264584   3.829   5.069  16.757 -0.4184 -0.1182  0.0502
14390TIP3    H164585   3.913   5.116  16.760  0.1374 -1.1602  1.0766
14390TIP3    H264586   3.837   5.011  16.682  0.2369 -1.0247  0.7983
14391TIP3   OH264587   5.087   0.048   2.963 -0.0455 -0.2179 -0.3861
14391TIP3    H164588   5.097   0.134   2.922 -1.0693  0.0577 -0.0716
14391TIP3    H264589   5.157  -0.005   2.925  0.6350  0.7723 -0.5270
14392TIP3   OH264590   4.834   2.569  11.879 -0.6125  0.2591  0.1636
14392TIP3    H164591   4.797   2.609  11.801 -0.7240 -0.3720 -0.1147
14392TIP3    H264592   4.770   2.502  11.904  0.0469 -0.4373  0.0289
14393TIP3   OH264593   5.608   5.201  14.193 -0.2280 -0.5770  0.4587
14393TIP3    H164594   5.607   5.161  14.280 -1.6540 -0.2543  0.6041
14393TIP3    H264595   5.543   5.152  14.144 -2.8389  2.2284  0.9578
14394TIP3   OH264596   5.276   6.137  17.136  0.2280 -0.0448 -0.4367
14394TIP3    H164597   5.233   6.159  17.053 -1.1155 -1.2715 -0.0943
14394TIP3    H264598   5.206   6.143  17.201  1.3294  1.1981  0.6726
14395TIP3   OH264599   4.912   1.700  12.115 -0.4243 -0.0653 -0.0946
14395TIP3    H164600   4.899   1.699  12.210  0.9270  0.0376  0.1145
14395TIP3    H264601   4.891   1.790  12.088  0.8248  0.3934  0.3854
14396TIP3   OH264602   3.244   4.985   1.487  0.2114 -0.5121  0.2447
14396TIP3    H164603   3.269   4.905   1.533  0.0888  0.3703  1.8672
14396TIP3    H264604   3.284   5.055   1.538 -2.2719  0.6610  0.6036
14397TIP3   OH264605   3.791   0.696   2.736 -0.2068 -0.1645 -0.1023
14397TIP3    H164606   3.826   0.772   2.690 -1.1889 -0.9221 -2.1338
14397TIP3    H264607   3.844   0.623   2.706 -0.8044 -0.6611  0.0507
14398TIP3   OH264608   2.728   4.113   3.064  0.5185  0.3816  0.0754
14398TIP3    H164609   2.699   4.140   2.977  0.6741 -1.0564 -0.4396
14398TIP3    H264610   2.822   4.095   3.053  0.1686 -1.5567  0.0826
14399TIP3   OH264611   5.649   2.934  15.803 -0.4813  0.1979 -0.0985
14399TIP3    H164612   5.708   2.864  15.831 -0.2971  0.3163 -0.1915
14399TIP3    H264613   5.574   2.888  15.765  0.8192  0.0491 -2.6295
14400TIP3   OH264614   1.032   1.780   5.455 -0.2693  0.4337 -0.4797
14400TIP3    H164615   1.067   1.791   5.543  0.0259  1.7388 -0.7432
14400TIP3    H264616   0.971   1.854   5.444 -0.1993  0.3568 -1.4109
14401TIP3   OH264617   3.351   0.511  17.132  0.1611  0.2423 -0.0698
14401TIP3    H164618   3.299   0.521  17.211  0.8468  2.4486  0.1347
14401TIP3    H264619   3.364   0.416  17.123 -1.4675 -0.1327  1.4231
14402TIP3   OH264620   2.516   6.285  15.700  0.1088  0.1380  0.3077
14402TIP3    H164621   2.469   6.359  15.661 -0.7211 -0.8126 -0.5113
14402TIP3    H264622   2.568   6.325  15.771 -0.7552  1.4153  0.2459
14403TIP3   OH264623   5.569   0.634   0.683 -1.0012 -0.6946 -0.3029
14403TIP3    H164624   5.551   0.564   0.619 -0.2246 -1.3900  0.2258
14403TIP3    H264625   5.626   0.593   0.748  0.4294  0.7708 -0.6070
14404TIP3   OH264626   5.894   6.106  13.833  0.4145 -0.1780 -0.6932
14404TIP3    H164627   5.866   6.067  13.751 -1.3253 -1.5936  0.5311
14404TIP3    H264628   5.815   6.145  13.869  0.7570 -1.0879  1.1100
14405TIP3   OH264629   1.098   6.304  13.547 -0.1888 -0.6487 -0.0730
14405TIP3    H164630   1.034   6.237  13.524  1.0974 -2.3599  1.2043
14405TIP3    H264631   1.054   6.359  13.612 -0.5047 -1.5761  0.5005
14406TIP3   OH264632   5.904   6.211   2.512 -0.1137 -0.0261  0.5974
14406TIP3    H164633   5.837   6.264   2.556  1.5330  0.6152  2.3829
14406TIP3    H264634   5.938   6.154   2.581 -0.4134 -1.9610 -0.8285
14407TIP3   OH264635   4.482   5.943  14.151 -0.2945 -0.1384  0.2914
14407TIP3    H164636   4.544   5.870  14.144  0.4411  0.3215  1.7712
14407TIP3    H264637   4.521   6.013  14.099 -1.0255 -0.8071 -1.1739
14408TIP3   OH264638   3.040   5.027  14.136  0.5001  0.7516 -0.1025
14408TIP3    H164639   3.125   4.997  14.166  0.8643  1.9432  0.0763
14408TIP3    H264640   3.044   5.122  14.141 -0.2586  0.8934 -1.6889
14409TIP3   OH264641   1.738   5.219  13.129  0.3372 -0.6751  0.4017
14409TIP3    H164642   1.712   5.127  13.116 -0.6721 -0.4200  0.5279
14409TIP3    H264643   1.749   5.228  13.223 -2.3395  0.0178  0.7067
14410TIP3   OH264644   2.906   2.116  15.032 -0.0507 -0.0862  0.4038
14410TIP3    H164645   2.985   2.061  15.029  0.0269  0.0391  0.1151
14410TIP3    H264646   2.908   2.157  15.118 -0.5874 -1.2520  0.9791
14411TIP3   OH264647   5.055   0.976   6.146  0.2519  0.5875 -0.2707
14411TIP3    H164648   5.117   1.048   6.158 -0.5711  1.2685 -0.1081
14411TIP3    H264649   5.053   0.932   6.231  1.7012 -0.3962 -0.7254
14412TIP3   OH264650   5.841   0.472  13.422 -0.2015 -0.4154  0.2412
14412TIP3    H164651   5.878   0.558  13.437 -0.3041 -0.1482 -1.0052
14412TIP3    H264652   5.785   0.482  13.344  1.5264 -2.1000 -1.2833
14413TIP3   OH264653   0.677   3.494   4.335 -0.3098  0.1049  0.5244
14413TIP3    H164654   0.610   3.539   4.387  0.3594  1.3271  0.3208
14413TIP3    H264655   0.724   3.440   4.399  0.2807  1.3285  1.1244
14414TIP3   OH264656   0.190   3.147   3.782  0.1917 -0.4192  0.3011
14414TIP3    H164657   0.170   3.239   3.765 -1.5705 -0.5423  1.6008
14414TIP3    H264658   0.150   3.129   3.867  0.1489 -2.5108 -0.1411
14415TIP3   OH264659   1.341   5.199   2.416 -0.1755  0.2323 -0.2968
14415TIP3    H164660   1.384   5.118   2.387 -0.4400  0.0435 -0.1612
14415TIP3    H264661   1.253   5.193   2.380 -0.3126  0.2871  0.0275
14416TIP3   OH264662   2.196   5.309  11.036  0.1201 -0.4316 -0.1564
14416TIP3    H164663   2.284   5.334  11.010  0.4481 -0.1350  1.1733
14416TIP3    H264664   2.142   5.385  11.016  0.4204 -0.0947  0.2847
14417TIP3   OH264665   1.981   0.815  11.310  0.0494 -0.3661  0.2253
14417TIP3    H164666   1.905   0.772  11.350  0.6739 -0.2102  1.6083
14417TIP3    H264667   1.944   0.864  11.236 -1.6232  1.7497  2.3750
14418TIP3   OH264668   5.148   3.956   3.464 -0.9806  0.0092 -0.1403
14418TIP3    H164669   5.185   3.885   3.412 -2.3224  0.4827 -1.7539
14418TIP3    H264670   5.086   4.000   3.406 -0.6938  2.0779  1.0546
14419TIP3   OH264671   0.957   3.377  14.467  0.0185 -0.0980  0.3090
14419TIP3    H164672   0.921   3.377  14.556  1.2647  2.9843  0.8683
14419TIP3    H264673   1.027   3.311  14.469 -1.2110 -1.4182  1.0344
14420TIP3   OH264674   2.776   2.435  14.993  0.1923  0.1096  0.1950
14420TIP3    H164675   2.806   2.520  14.960 -0.4040  0.2652  0.0496
14420TIP3    H264676   2.757   2.384  14.915 -0.5247  0.2290  0.2843
14421TIP3   OH264677   0.354   6.476   2.504 -0.6477 -0.2472  0.5108
14421TIP3    H164678   0.341   6.493   2.598 -1.5791  0.5449  0.2411
14421TIP3    H264679   0.423   6.536   2.478 -1.7088  0.8962  0.2768
14422TIP3   OH264680   3.899   3.142   5.377 -0.1824 -1.1402 -0.0490
14422TIP3    H164681   3.856   3.224   5.353  0.4971 -1.3034 -1.9894
14422TIP3    H264682   3.970   3.169   5.435 -1.3991 -0.6194  1.2257
14423TIP3   OH264683   4.825   5.615  14.350  0.4807  0.4250 -0.5287
14423TIP3    H164684   4.833   5.589  14.258  0.9652  1.1915 -0.7114
14423TIP3    H264685   4.859   5.541  14.399 -1.5616 -0.7832 -0.8758
14424TIP3   OH264686   4.268   0.874  17.036 -0.3267  0.1245 -0.1194
14424TIP3    H164687   4.293   0.940  17.101 -0.0483  0.5340 -0.6464
14424TIP3    H264688   4.232   0.924  16.963  2.0561 -0.1398 -1.5168
14425TIP3   OH264689   5.920   5.552  13.376  0.1268 -0.1361 -0.5282
14425TIP3    H164690   5.941   5.516  13.290 -0.1535  0.9430 -1.0456
14425TIP3    H264691   5.830   5.524  13.393 -0.3090  0.8323 -1.2034
14426TIP3   OH264692   6.520   2.498   0.423  0.1305 -0.1157 -0.1828
14426TIP3    H164693   6.478   2.412   0.413 -1.0648  0.4348 -0.0228
14426TIP3    H264694   6.507   2.541   0.339  1.3568 -0.3540 -0.5004
14427TIP3   OH264695   6.092   5.053  12.703  0.0433 -0.4538 -0.1567
14427TIP3    H164696   6.067   5.011  12.785 -0.1676  2.2135  1.1826
14427TIP3    H264697   6.173   5.009  12.678  0.5725 -0.7202  1.9426
14428TIP3   OH264698   4.529   5.836  15.146  0.4342  0.1023 -0.2314
14428TIP3    H164699   4.450   5.887  15.161  0.1115 -0.8773  1.5500
14428TIP3    H264700   4.503   5.769  15.082  0.5029  1.2774 -1.5218
14429TIP3   OH264701   0.021   3.243  16.820 -0.1642  0.1300 -0.3557
14429TIP3    H164702  -0.043   3.242  16.750  0.0646  0.4852 -0.5694
14429TIP3    H264703   0.044   3.335  16.831 -1.0115  0.2049  0.9336
14430TIP3   OH264704   3.711   5.427  10.701  0.5215  0.0603 -0.4426
14430TIP3    H164705   3.684   5.475  10.779  2.9658 -0.2595  0.6074
14430TIP3    H264706   3.637   5.369  10.682 -0.7132  1.2147  0.7251
14431TIP3   OH264707   3.872   2.222   4.892  0.2913  0.1022 -0.2248
14431TIP3    H164708   3.797   2.176   4.856  1.0437  0.0055 -1.7155
14431TIP3    H264709   3.948   2.177   4.855  1.0738  0.8141  0.4825
14432TIP3   OH264710   1.608   2.281  16.890 -0.4252  0.0454 -0.2662
14432TIP3    H164711   1.690   2.302  16.845  0.2573  0.2479  1.0567
14432TIP3    H264712   1.568   2.213  16.835  1.2021 -0.9169 -0.3023
14433TIP3   OH264713   6.318   0.569  16.854 -0.0390  0.8535 -0.4036
14433TIP3    H164714   6.337   0.475  16.853 -0.3955  0.7597 -3.1305
14433TIP3    H264715   6.224   0.575  16.838 -0.1474  1.6558  0.5195
14434TIP3   OH264716   0.443   5.541  10.578 -0.2075  0.3378  0.0493
14434TIP3    H164717   0.454   5.455  10.619  0.5227  1.4920  2.3808
14434TIP3    H264718   0.356   5.570  10.605 -0.4095  0.3812 -0.6375
14435TIP3   OH264719   2.361   4.829   4.142 -0.1131  0.4731  0.5375
14435TIP3    H164720   2.366   4.765   4.213  0.3586 -1.5234 -1.2489
14435TIP3    H264721   2.436   4.887   4.156 -0.5972  0.7036  2.2252
14436TIP3   OH264722   1.032   2.162   3.396  0.2123  0.4908 -0.3915
14436TIP3    H164723   0.939   2.184   3.399  0.5775  1.7424  3.1765
14436TIP3    H264724   1.077   2.245   3.412  1.9217 -0.4815 -0.0885
14437TIP3   OH264725   4.215   4.083  16.282  0.6066  0.5039 -0.3277
14437TIP3    H164726   4.307   4.055  16.280  1.0831  1.9325  0.6109
14437TIP3    H264727   4.203   4.132  16.201  0.3535 -0.5978 -0.9711
14438TIP3   OH264728   0.710   6.046  14.462  0.1487  0.4896  0.1941
14438TIP3    H164729   0.715   6.055  14.367  0.7654  1.8472  0.3419
14438TIP3    H264730   0.618   6.062  14.483 -0.2103 -0.9109 -0.2720
14439TIP3   OH264731   1.813   0.405   0.264  0.0061 -0.2723  0.2568
14439TIP3    H164732   1.752   0.390   0.192 -0.9887  0.1143  1.0109
14439TIP3    H264733   1.819   0.320   0.309  0.6546 -0.5231 -0.2880
14440TIP3   OH264734   3.319   5.466   2.764  0.4405 -0.2426 -0.1397
14440TIP3    H164735   3.283   5.377   2.755 -0.2655 -0.0582  0.7412
14440TIP3    H264736   3.296   5.491   2.854  1.4062  0.4988 -0.0989
14441TIP3   OH264737   0.964   4.949  15.585  0.3588 -0.0314 -0.8308
14441TIP3    H164738   0.879   4.970  15.623 -1.0261 -3.5644 -1.7444
14441TIP3    H264739   0.975   5.011  15.514 -1.5533  0.3939 -0.7907
14442TIP3   OH264740   5.202   3.855   3.695  0.5069 -0.2747  0.3000
14442TIP3    H164741   5.121   3.818   3.731 -0.3225  0.7382 -0.4923
14442TIP3    H264742   5.176   3.893   3.612  1.5005  1.3450  0.7016
14443TIP3   OH264743   1.795   6.617  15.619 -0.0529 -0.4601  0.2806
14443TIP3    H164744   1.802   6.534  15.572  0.5217 -1.0483  1.3807
14443TIP3    H264745   1.713   6.610  15.667 -0.1680 -0.2595  0.1106
14444TIP3   OH264746   1.236   3.792   1.225  0.0419 -0.1485  0.2305
14444TIP3    H164747   1.242   3.763   1.134  0.2615 -1.3601  0.6170
14444TIP3    H264748   1.297   3.865   1.231  0.4099 -0.3899 -0.4746
14445TIP3   OH264749   2.151   3.757  13.761 -0.6322  0.0579  0.0065
14445TIP3    H164750   2.117   3.815  13.692 -0.2341  1.4734  0.9724
14445TIP3    H264751   2.184   3.680  13.714  1.6570  1.9566 -1.6331
14446TIP3   OH264752   0.913   5.215   5.801  0.2666  1.0122  0.8318
14446TIP3    H164753   0.883   5.181   5.717 -0.3332  2.3488  0.5087
14446TIP3    H264754   0.901   5.309   5.795 -2.0788  0.9369  3.3180
14447TIP3   OH264755   5.379   5.706  12.563 -0.0163  0.6833 -0.0850
14447TIP3    H164756   5.289   5.683  12.586 -0.5094  0.4652 -2.0605
14447TIP3    H264757   5.430   5.687  12.641 -1.7761  1.3788  1.2688
14448TIP3   OH264758   3.488   0.154  16.580 -0.0029  1.2981 -1.0541
14448TIP3    H164759   3.452   0.070  16.550  1.1534 -0.8326  3.0449
14448TIP3    H264760   3.441   0.172  16.662  2.7821  2.4016  0.3818
14449TIP3   OH264761   1.755   0.452   4.420 -0.1746  0.1538  0.0825
14449TIP3    H164762   1.685   0.388   4.429  1.4987 -1.7694 -0.2907
14449TIP3    H264763   1.755   0.475   4.327 -0.1126 -0.0677  0.0284
14450TIP3   OH264764   0.549   3.695  11.025  0.0703 -0.5771  0.2075
14450TIP3    H164765   0.569   3.787  11.014 -0.0693 -0.5112  0.4995
14450TIP3    H264766   0.486   3.675  10.955 -1.0924 -0.0736  1.0958
14451TIP3   OH264767   5.389   4.656   3.222 -0.2498 -0.5831  0.0836
14451TIP3    H164768   5.302   4.681   3.191 -0.4313 -0.7537  0.4533
14451TIP3    H264769   5.449   4.704   3.166 -0.5902  0.8688  0.9246
14452TIP3   OH264770   3.666   0.412   5.868 -0.2118  0.2487  0.0672
14452TIP3    H164771   3.719   0.370   5.936  0.1823  0.6889  0.0406
14452TIP3    H264772   3.578   0.377   5.880  0.3980 -1.6623 -0.8743
14453TIP3   OH264773   6.124   5.082   0.657 -0.4724 -0.0952 -0.1890
14453TIP3    H164774   6.133   5.048   0.746 -1.3182 -0.0390 -0.0780
14453TIP3    H264775   6.200   5.048   0.611 -1.7268 -2.8339 -0.3083
14454TIP3   OH264776   4.755   6.310   3.295  0.5953  0.8357  0.1553
14454TIP3    H164777   4.729   6.384   3.240 -1.4949  0.3180  0.4103
14454TIP3    H264778   4.778   6.350   3.379 -1.3366  1.1344  0.5544
14455TIP3   OH264779   1.596   4.319   5.503 -0.0477  0.5909  0.3189
14455TIP3    H164780   1.500   4.310   5.506 -0.1236  1.1518 -0.2329
14455TIP3    H264781   1.626   4.234   5.471 -0.3282  0.2656  0.8987
14456TIP3   OH264782   6.049   4.658   1.214 -0.1419 -0.0794  0.2560
14456TIP3    H164783   6.033   4.747   1.246  0.8947 -0.1387  0.9591
14456TIP3    H264784   6.142   4.656   1.191 -0.8818 -0.0204 -2.8975
14457TIP3   OH264785   6.630   1.986  13.279 -0.4493  0.0987 -0.2334
14457TIP3    H164786   6.690   1.925  13.236 -1.3732 -0.2716 -1.0255
14457TIP3    H264787   6.611   1.945  13.364 -0.8616 -0.5912 -0.6536
14458TIP3   OH264788   6.098   5.522   3.471  0.1687  0.3106  0.0220
14458TIP3    H164789   6.182   5.567   3.482 -0.4179  1.2132  0.8140
14458TIP3    H264790   6.074   5.537   3.380  1.5498 -1.1567 -0.6248
14459TIP3   OH264791   3.824   5.096  15.804 -0.2364 -0.5603  0.4393
14459TIP3    H164792   3.798   5.041  15.878 -1.7402 -1.9467 -1.0650
14459TIP3    H264793   3.888   5.043  15.756  0.9078  0.4240  0.8716
14460TIP3   OH264794   2.184   2.095   4.887 -0.4151 -0.0930  0.1759
14460TIP3    H164795   2.262   2.064   4.842 -0.7731  0.5923 -0.9198
14460TIP3    H264796   2.117   2.030   4.865 -0.7170  0.5117 -0.6833
14461TIP3   OH264797   2.557   1.287  11.156 -0.3453 -0.0289 -0.2340
14461TIP3    H164798   2.576   1.275  11.249 -0.2760  1.3120 -0.0638
14461TIP3    H264799   2.626   1.346  11.125 -2.2803  2.2338 -0.3602
14462TIP3   OH264800   1.780   1.072  11.795  0.2724  0.3937  0.0978
14462TIP3    H164801   1.852   1.093  11.854 -0.7166 -0.1283  1.5109
14462TIP3    H264802   1.795   0.981  11.768  1.5477  1.0965 -1.6845
14463TIP3   OH264803   4.919   4.229   4.830 -0.0548  0.2554  0.2206
14463TIP3    H164804   5.007   4.205   4.801  0.3915  0.1208  1.6446
14463TIP3    H264805   4.933   4.295   4.898 -1.0906  0.7093  0.0125
14464TIP3   OH264806   2.469   5.612   5.432  0.1362 -0.3133 -0.2201
14464TIP3    H164807   2.469   5.521   5.462  1.3397 -0.3253 -0.2268
14464TIP3    H264808   2.430   5.609   5.345 -1.6357 -0.5431  0.5678
14465TIP3   OH264809   5.621   6.488   6.081  0.0818 -0.2956 -0.9612
14465TIP3    H164810   5.557   6.451   6.020 -0.7964 -0.6191  0.1365
14465TIP3    H264811   5.573   6.557   6.127  0.7059 -0.1182 -0.5689
14466TIP3   OH264812   4.150   5.961   0.768  0.1137 -0.2251 -0.0323
14466TIP3    H164813   4.058   5.976   0.787  0.0663 -1.4539  0.6931
14466TIP3    H264814   4.156   5.868   0.749  1.2863 -0.2364  0.3655
14467TIP3   OH264815   2.697   2.461  16.573  0.3448  0.0054 -0.4341
14467TIP3    H164816   2.745   2.543  16.586 -1.1190  0.7420  0.5119
14467TIP3    H264817   2.757   2.406  16.523  1.3422  1.6686 -1.1339
14468TIP3   OH264818   0.043   1.387  15.797  0.1642 -0.5056  0.1622
14468TIP3    H164819   0.110   1.350  15.854  2.1719 -0.0989 -1.8622
14468TIP3    H264820   0.042   1.481  15.818 -0.0162 -0.5565  0.3944
14469TIP3   OH264821   1.624   1.089  15.923 -0.2915  0.4297  0.5125
14469TIP3    H164822   1.564   1.156  15.956  1.5804  0.9675  3.0318
14469TIP3    H264823   1.675   1.134  15.856  1.7448  1.9576  2.9885
14470TIP3   OH264824   5.561   1.221   0.591 -0.2853  0.1586 -0.1809
14470TIP3    H164825   5.609   1.167   0.653 -1.5406 -1.4038 -0.5244
14470TIP3    H264826   5.618   1.225   0.514  1.4162  2.3761  1.1510
14471TIP3   OH264827   3.031   0.401  16.851 -0.2357 -0.1960 -0.1960
14471TIP3    H164828   3.041   0.319  16.803  0.0761 -0.1594 -0.1961
14471TIP3    H264829   3.088   0.463  16.805 -0.7247  0.1056 -0.3937
14472TIP3   OH264830   6.291   4.569  12.339  0.0871 -0.5623  0.2788
14472TIP3    H164831   6.334   4.563  12.424  1.1909 -0.5738 -0.2789
14472TIP3    H264832   6.206   4.528  12.352  0.7810 -1.7691  1.0235
14473TIP3   OH264833   0.659   1.833   4.876  0.3503  0.3532  0.1837
14473TIP3    H164834   0.683   1.829   4.968  0.5240  0.1792  0.1322
14473TIP3    H264835   0.621   1.920   4.864  1.4457  0.8246  0.1476
14474TIP3   OH264836   6.348   1.221  14.794  0.1789  0.4572  0.1830
14474TIP3    H164837   6.257   1.226  14.823  0.6879  2.0225  1.6190
14474TIP3    H264838   6.395   1.186  14.869  0.9908  1.1494 -0.0025
14475TIP3   OH264839   1.548   5.969  15.704 -0.0453  0.0429  0.8437
14475TIP3    H164840   1.531   5.947  15.613  0.5985  1.9456  0.2439
14475TIP3    H264841   1.566   5.885  15.746  1.2058 -0.7085 -1.1230
14476TIP3   OH264842   3.698   2.890   4.540 -0.2616  0.3546  0.3275
14476TIP3    H164843   3.621   2.870   4.594 -0.0664  0.8588  0.8045
14476TIP3    H264844   3.740   2.805   4.526 -0.9826  0.0615 -0.0518
14477TIP3   OH264845   1.412   3.923  13.356  0.4223  0.4502  0.0797
14477TIP3    H164846   1.447   3.979  13.286  0.4934 -1.4119 -1.4194
14477TIP3    H264847   1.381   3.845  13.311  0.1360 -0.6450  2.1080
14478TIP3   OH264848   5.543   0.430  16.041 -0.1451  0.0612 -0.4323
14478TIP3    H164849   5.538   0.488  16.116 -1.0493  2.1131 -2.0298
14478TIP3    H264850   5.483   0.467  15.977 -0.3776 -2.3743 -1.7042
14479TIP3   OH264851   0.056   4.146   2.744  0.1381  0.4612  0.2533
14479TIP3    H164852   0.083   4.106   2.662 -1.4723 -1.9577  0.8526
14479TIP3    H264853  -0.026   4.103   2.767  0.1610  1.6196  2.7587
14480TIP3   OH264854   0.850   4.579   1.816 -0.0724 -0.0935  0.3313
14480TIP3    H164855   0.840   4.522   1.740 -2.0126  0.0398  0.4511
14480TIP3    H264856   0.898   4.655   1.783 -1.2376  0.1352 -0.8592
14481TIP3   OH264857   2.579   2.939  13.044 -0.4538  0.2135 -0.3841
14481TIP3    H164858   2.583   2.848  13.016 -1.0343 -0.2561  1.0367
14481TIP3    H264859   2.588   2.990  12.963 -1.7729 -1.1052 -1.3799
14482TIP3   OH264860   4.691   0.774   0.383 -0.6490 -0.2402 -0.0533
14482TIP3    H164861   4.691   0.854   0.436 -0.6117  0.0117 -0.4301
14482TIP3    H264862   4.783   0.746   0.384 -0.4088  0.4752 -1.0386
14483TIP3   OH264863   5.145   5.386   6.173  0.5690  0.1220 -0.2744
14483TIP3    H164864   5.151   5.315   6.109  0.0727 -0.0764 -0.1032
14483TIP3    H264865   5.206   5.453   6.141  1.5084 -0.6488 -0.0877
14484TIP3   OH264866   3.763   4.666  13.373 -0.0505  0.5949 -0.2815
14484TIP3    H164867   3.810   4.635  13.295  1.1218  0.4222  0.4862
14484TIP3    H264868   3.677   4.691  13.340 -0.3213 -1.5262 -1.2656
14485TIP3   OH264869   2.842   1.286  10.931 -0.5582 -0.1982  0.2931
14485TIP3    H164870   2.766   1.267  10.876  1.2001 -2.9541 -1.2956
14485TIP3    H264871   2.876   1.368  10.895 -2.0456  0.4135  0.2269
14486TIP3   OH264872   5.162   4.988   4.600 -0.4893 -0.1306  0.0154
14486TIP3    H164873   5.179   4.950   4.514 -2.0768  1.4224 -1.0026
14486TIP3    H264874   5.247   4.985   4.644  0.8893  1.1779 -2.4505
14487TIP3   OH264875   1.199   4.264  12.269  0.3177  0.3441 -0.2600
14487TIP3    H164876   1.205   4.197  12.202  0.5019  1.4233 -1.3472
14487TIP3    H264877   1.137   4.328  12.234  0.4538  0.9488  0.5704
14488TIP3   OH264878   2.787   4.942   6.727  0.7004 -0.0738  0.4520
14488TIP3    H164879   2.846   5.006   6.767  0.0307  1.1125 -0.4474
14488TIP3    H264880   2.786   4.869   6.789  0.5680  1.2502  2.0292
14489TIP3   OH264881   0.810   3.621   3.188  0.1530  0.1988 -0.1748
14489TIP3    H164882   0.861   3.557   3.138 -0.5031 -0.8191  0.4495
14489TIP3    H264883   0.849   3.619   3.276 -1.6673 -1.4590  0.6472
14490TIP3   OH264884   0.873   5.224   5.530  1.1711  0.1498  0.0713
14490TIP3    H164885   0.937   5.160   5.496  0.9211  0.1891 -0.4750
14490TIP3    H264886   0.830   5.258   5.452 -0.0955 -0.4626  0.4823
14491TIP3   OH264887   2.598   1.194  16.131 -0.2700 -0.9075  0.1311
14491TIP3    H164888   2.656   1.161  16.062 -1.4254 -0.6678 -0.9841
14491TIP3    H264889   2.516   1.212  16.086 -0.1929  1.9322  1.0565
14492TIP3   OH264890   6.473   0.743   1.100 -0.3169  0.1374 -0.7947
14492TIP3    H164891   6.523   0.747   1.182 -0.2487  0.8292 -0.8697
14492TIP3    H264892   6.433   0.656   1.101  1.8306 -0.8865 -1.2982
14493TIP3   OH264893   6.357   3.257   1.997  0.0902 -0.8029 -0.0495
14493TIP3    H164894   6.291   3.189   2.001 -0.4277 -0.2604  0.6883
14493TIP3    H264895   6.421   3.233   2.064 -0.5008 -0.1461  0.7592
14494TIP3   OH264896   5.437   4.102  12.245 -0.7301 -0.4229  0.2491
14494TIP3    H164897   5.364   4.047  12.275 -1.8656  1.3321  0.8084
14494TIP3    H264898   5.475   4.053  12.172 -1.9535 -1.7688  0.4775
14495TIP3   OH264899   6.534   5.558  10.916 -0.4293 -0.4157  0.1712
14495TIP3    H164900   6.568   5.471  10.899 -1.8977 -0.8203 -0.8003
14495TIP3    H264901   6.581   5.615  10.854  1.2891 -0.3248  1.5291
14496TIP3   OH264902   0.873   4.634   1.214  0.2441  0.6355 -0.2250
14496TIP3    H164903   0.947   4.666   1.161  0.9870  1.3731  1.2117
14496TIP3    H264904   0.854   4.707   1.274  0.0827 -0.5342  1.1783
14497TIP3   OH264905   3.690   6.057   2.885 -0.3449  0.3694  0.4363
14497TIP3    H164906   3.716   6.134   2.936  1.2774  0.2208 -0.1204
14497TIP3    H264907   3.769   6.034   2.835 -0.8326 -1.5937  0.5167
14498TIP3   OH264908   2.906   3.072  15.701  0.4662  0.7544  0.4332
14498TIP3    H164909   2.990   3.028  15.686  0.2747  0.4977  0.1068
14498TIP3    H264910   2.900   3.081  15.796  0.8782  0.8032  0.4563
14499TIP3   OH264911   1.216   3.674   1.899  0.2158 -0.5050 -0.3505
14499TIP3    H164912   1.145   3.672   1.962  1.6075 -0.2077  1.2651
14499TIP3    H264913   1.175   3.650   1.816 -2.0056  0.9031  0.2937
14500TIP3   OH264914   5.290   5.848  14.556 -0.6034  0.2701 -0.3400
14500TIP3    H164915   5.267   5.807  14.473 -0.7814  0.3510 -0.3316
14500TIP3    H264916   5.248   5.793  14.623 -1.3792  0.8195 -0.3614
14501TIP3   OH264917   2.172   2.645   4.399 -0.4658 -0.0317  0.1468
14501TIP3    H164918   2.186   2.739   4.390 -1.1865 -0.0621 -1.3102
14501TIP3    H264919   2.077   2.634   4.396 -0.3202 -0.9861 -1.5696
14502TIP3   OH264920   0.284   1.247  15.531  0.2393 -0.0426 -0.2751
14502TIP3    H164921   0.338   1.293  15.595 -2.4199  1.0622  1.2707
14502TIP3    H264922   0.266   1.162  15.571 -2.8246  1.2788  1.3053
14503TIP3   OH264923   2.966   5.209   1.187  0.0726  0.2415 -0.4344
14503TIP3    H164924   2.871   5.215   1.173  0.0447  2.7972  0.6458
14503TIP3    H264925   2.979   5.123   1.226 -1.6240 -0.7537 -1.9977
14504TIP3   OH264926   3.851   1.785  11.819  0.2452  0.0518 -0.3267
14504TIP3    H164927   3.766   1.816  11.787  0.6710 -0.8300 -2.4179
14504TIP3    H264928   3.834   1.759  11.910 -1.0820  2.3266  0.1135
14505TIP3   OH264929   1.480   0.078   3.545  0.3737 -0.3671  0.2158
14505TIP3    H164930   1.400   0.095   3.495 -1.0807 -2.1913  1.8185
14505TIP3    H264931   1.475   0.138   3.620  0.9701  0.1574 -0.1609
14506TIP3   OH264932   1.755   5.498  12.567  0.0144  0.3824  0.5645
14506TIP3    H164933   1.705   5.565  12.521  1.2612  1.4465  0.7367
14506TIP3    H264934   1.746   5.521  12.659 -1.4223 -1.0086  0.7947
14507TIP3   OH264935   6.412   5.564  13.650  0.2258 -0.1656  0.0421
14507TIP3    H164936   6.433   5.617  13.574 -1.0186  0.1820 -0.0635
14507TIP3    H264937   6.390   5.627  13.718  1.1802 -0.4771  0.6512
14508TIP3   OH264938   6.468   1.054  12.341  0.8573 -0.1822 -0.4649
14508TIP3    H164939   6.549   1.060  12.291  0.4111 -0.5068 -1.2224
14508TIP3    H264940   6.488   0.992  12.412  1.2692 -0.2483 -0.6391
14509TIP3   OH264941   4.705   0.718  11.770 -0.3498  0.0774 -0.4515
14509TIP3    H164942   4.711   0.623  11.766 -1.5411  0.0548 -3.1499
14509TIP3    H264943   4.686   0.738  11.861 -1.9808 -2.3900 -0.2117
14510TIP3   OH264944   5.478   5.752  12.330  0.0011 -0.2391 -0.1401
14510TIP3    H164945   5.436   5.739  12.414 -0.4180 -0.7070 -0.4177
14510TIP3    H264946   5.503   5.844  12.329 -1.0822  0.0577 -0.0039
14511TIP3   OH264947   5.504   6.609   0.643 -0.0009 -0.2024 -0.4808
14511TIP3    H164948   5.599   6.617   0.629  0.1684 -0.3410  0.5217
14511TIP3    H264949   5.476   6.697   0.668  0.0945 -0.4452  0.5027
14512TIP3   OH264950   2.415   0.770   5.270 -0.5020  0.5004 -0.7882
14512TIP3    H164951   2.499   0.741   5.307 -0.4685  1.1444 -0.3458
14512TIP3    H264952   2.432   0.860   5.241 -1.5565  1.2941  1.0255
14513TIP3   OH264953   2.947   5.363  11.947 -0.3416  0.0120 -0.1065
14513TIP3    H164954   2.890   5.438  11.930  0.9758  1.2587  0.7455
14513TIP3    H264955   2.942   5.350  12.042  3.0494  2.1162  0.4773
14514TIP3   OH264956   0.852   0.172   3.625 -0.1758 -0.7848 -0.6500
14514TIP3    H164957   0.863   0.082   3.657 -0.3746 -0.1255  1.3023
14514TIP3    H264958   0.799   0.163   3.546 -0.1964 -2.3739 -0.4740
14515TIP3   OH264959   3.326   0.799  15.711  0.0552 -0.0541 -0.1455
14515TIP3    H164960   3.331   0.736  15.782  1.7657 -0.4701 -0.6129
14515TIP3    H264961   3.331   0.746  15.631  0.2360  0.5613 -0.5526
14516TIP3   OH264962   4.468   1.453  13.718  0.2564 -0.6789  0.4127
14516TIP3    H164963   4.550   1.437  13.765  1.4869 -2.2070 -2.1565
14516TIP3    H264964   4.433   1.366  13.701 -1.4650 -0.0571  0.6766
14517TIP3   OH264965   0.400   0.408  15.057  0.2423 -0.1338  0.2591
14517TIP3    H164966   0.336   0.426  14.988  0.6341 -1.4984 -0.4886
14517TIP3    H264967   0.347   0.403  15.137 -0.1026  2.2606  0.2163
14518TIP3   OH264968   4.152   4.474  12.572  0.4343  0.6079 -0.0289
14518TIP3    H164969   4.206   4.505  12.645 -0.1744  0.4143  0.5090
14518TIP3    H264970   4.063   4.477  12.606  0.0844  1.1121 -0.9730
14519TIP3   OH264971   3.447   0.995  11.257  0.1292  0.3435  0.5336
14519TIP3    H164972   3.372   0.980  11.316  1.3742 -0.6886  1.9096
14519TIP3    H264973   3.438   0.928  11.190  0.5405 -0.6537  1.4556
14520TIP3   OH264974   6.133   0.194   1.538 -0.1669  0.0460 -0.0159
14520TIP3    H164975   6.217   0.201   1.584 -0.3262 -1.1559  0.4923
14520TIP3    H264976   6.134   0.106   1.500 -1.5090 -0.2864  0.6624
14521TIP3   OH264977   6.235   3.107  15.833  0.0645 -0.9021 -1.0751
14521TIP3    H164978   6.144   3.090  15.808 -0.9988  1.7514  0.7270
14521TIP3    H264979   6.250   3.199  15.811  0.7829  0.0065  2.7690
14522TIP3   OH264980   6.676   1.179   3.021  0.1006 -0.3945  0.3223
14522TIP3    H164981   6.610   1.247   3.029 -0.6392 -1.1606  0.8490
14522TIP3    H264982   6.760   1.226   3.021 -0.4199  0.5371  0.1637
14523TIP3   OH264983   2.506   6.732  16.959 -0.0960  0.4906  0.3244
14523TIP3    H164984   2.588   6.781  16.950  0.1000  0.0007 -0.6072
14523TIP3    H264985   2.449   6.790  17.010 -0.2696  2.2216 -1.7434
14524TIP3   OH264986   1.931   1.353  16.678 -0.2319 -0.4627 -0.0609
14524TIP3    H164987   1.986   1.281  16.708  1.5226 -0.1161 -2.3461
14524TIP3    H264988   1.878   1.316  16.608 -2.4369 -0.5927  1.6007
14525TIP3   OH264989   3.257   0.074  12.558  0.5507 -0.2226 -0.0858
14525TIP3    H164990   3.291   0.130  12.627 -0.8157 -0.2571  0.6413
14525TIP3    H264991   3.204   0.008  12.604  1.5461 -1.6761 -0.9824
14526TIP3   OH264992   1.683   4.501   3.379 -0.0367  0.2734 -0.2079
14526TIP3    H164993   1.705   4.550   3.300 -2.1137  1.9252  0.1958
14526TIP3    H264994   1.723   4.551   3.450 -0.4789  0.3051  0.0232
14527TIP3   OH264995   3.059   0.541  14.621 -0.1348 -0.1408  0.0459
14527TIP3    H164996   3.005   0.613  14.655  2.7487  2.5742 -0.9503
14527TIP3    H264997   3.075   0.565  14.530  2.6457 -0.9394  0.3082
14528TIP3   OH264998   4.832   1.192   3.581  0.2571 -0.1514 -0.0078
14528TIP3    H164999   4.747   1.148   3.576  0.6522 -0.9200  0.0069
14528TIP3    H265000   4.890   1.128   3.623  0.8659  0.3363 -0.0978
14529TIP3   OH265001   3.483   6.180  16.999 -0.2967  0.1749 -0.1423
14529TIP3    H165002   3.513   6.250  17.057 -2.7485  0.5398  0.7139
14529TIP3    H265003   3.531   6.102  17.029  0.4049  0.9011  0.6443
14530TIP3   OH265004   2.746   2.992   3.888  0.2903 -0.3907  0.6842
14530TIP3    H165005   2.840   2.975   3.889  0.4254  0.4126  1.2179
14530TIP3    H265006   2.727   3.013   3.796  0.6125 -0.6105  0.5641
14531TIP3   OH265007   1.500   2.175  11.367 -0.7841  0.2078  0.5834
14531TIP3    H165008   1.514   2.101  11.309  1.8468  0.7982  0.4147
14531TIP3    H265009   1.433   2.228  11.322  0.9740  0.5020 -1.7807
14532TIP3   OH265010   3.681   1.624   0.205 -0.5084 -0.3982 -0.0245
14532TIP3    H165011   3.681   1.631   0.110  0.4597  0.5038  0.0354
14532TIP3    H265012   3.645   1.537   0.222 -0.9900 -0.4444 -1.1970
14533TIP3   OH265013   1.386   4.869  15.883 -0.5482  0.4520 -0.3410
14533TIP3    H165014   1.300   4.829  15.870 -0.6446  0.5898 -0.1176
14533TIP3    H265015   1.388   4.893  15.975  0.0673 -0.3308 -0.1530
14534TIP3   OH265016   3.588   1.686  17.139  0.3414 -0.5109 -0.0120
14534TIP3    H165017   3.585   1.591  17.155 -0.8198 -0.5674 -0.5629
14534TIP3    H265018   3.519   1.702  17.076 -0.5067  0.9493  1.2652
14535TIP3   OH265019   2.689   1.509  16.057  0.1074  0.1400  0.0340
14535TIP3    H165020   2.737   1.553  16.128 -0.6478  0.1364  0.5546
14535TIP3    H265021   2.757   1.464  16.007  0.5601 -0.6107  1.2905
14536TIP3   OH265022   4.960   2.145   1.409 -0.2288  0.0387 -0.0705
14536TIP3    H165023   4.912   2.063   1.423 -0.1896 -0.1906 -1.2170
14536TIP3    H265024   4.893   2.213   1.415 -0.8559 -0.3331 -2.3862
14537TIP3   OH265025   1.805   3.059  15.658  0.0700 -0.2615 -0.5229
14537TIP3    H165026   1.854   3.026  15.733 -0.0932  0.7919  0.0663
14537TIP3    H265027   1.864   3.051  15.584  1.2753  1.3117  0.2381
14538TIP3   OH265028   3.411   0.598  11.544  0.1208  0.5246  0.0138
14538TIP3    H165029   3.457   0.657  11.484  0.4300 -0.1477 -0.4281
14538TIP3    H265030   3.391   0.521  11.490  0.8866 -0.3090  0.9127
14539TIP3   OH265031   6.446   0.697  13.863  0.1938 -1.2950 -0.0321
14539TIP3    H165032   6.462   0.648  13.783  0.0910  0.4047 -1.1158
14539TIP3    H265033   6.385   0.766  13.838  1.8556  0.6061  0.9813
14540TIP3   OH265034   6.679   1.813   1.518  0.5999 -0.2960  0.2541
14540TIP3    H165035   6.707   1.903   1.500 -0.4405  0.0039  0.1104
14540TIP3    H265036   6.761   1.764   1.526  1.1661  0.5378 -0.3057
14541TIP3   OH265037   1.252   0.423  16.953  0.3815  0.5209 -0.1128
14541TIP3    H165038   1.235   0.485  17.024 -2.0422  0.6236 -0.7440
14541TIP3    H265039   1.261   0.478  16.875 -0.5882  0.1521 -0.4805
14542TIP3   OH265040   3.995   3.051   2.026 -0.1230  0.1609 -0.4949
14542TIP3    H165041   3.975   3.036   1.934 -0.4293  1.2179 -0.6046
14542TIP3    H265042   3.910   3.072   2.066  0.2008  0.9760 -0.2295
14543TIP3   OH265043   1.271   1.440   5.317 -0.1274 -0.3214 -0.2992
14543TIP3    H165044   1.322   1.359   5.328  1.0640  0.1929 -1.8415
14543TIP3    H265045   1.184   1.418   5.351  1.3399 -0.9361  3.2454
14544TIP3   OH265046   3.080   6.115   5.840 -0.5337 -0.0256  0.0835
14544TIP3    H165047   2.988   6.097   5.859 -0.2709 -1.6581 -0.1062
14544TIP3    H265048   3.127   6.091   5.921 -0.2232  0.3027  0.0022
14545TIP3   OH265049   1.760   6.046  17.186  0.1273  0.2793  0.0515
14545TIP3    H165050   1.698   6.084  17.123  0.9934  0.2141 -0.8572
14545TIP3    H265051   1.831   6.110  17.191  1.9177 -1.4524 -1.9832
14546TIP3   OH265052   1.586   3.880  12.766 -0.5488 -0.5598 -0.0449
14546TIP3    H165053   1.641   3.958  12.765 -1.1930 -0.0792 -2.6684
14546TIP3    H265054   1.610   3.834  12.846  1.7167  0.9930  0.2054
14547TIP3   OH265055   6.702   6.249   5.052 -0.6969 -0.4439  0.2456
14547TIP3    H165056   6.740   6.304   5.120 -0.8904  0.4610 -0.3708
14547TIP3    H265057   6.621   6.216   5.090 -1.3674  0.9559  0.0601
14548TIP3   OH265058   0.376   3.872  13.407  0.1198 -0.1594 -0.8339
14548TIP3    H165059   0.311   3.896  13.473  1.4710 -0.4962  0.6531
14548TIP3    H265060   0.340   3.792  13.367  0.3322 -1.2504  1.0708
14549TIP3   OH265061   4.766   3.509  12.454  0.1678  0.4843  0.1248
14549TIP3    H165062   4.745   3.442  12.518 -1.1969  0.8463  0.0731
14549TIP3    H265063   4.843   3.554  12.490  0.1607 -0.1195  0.8917
14550TIP3   OH265064   5.469   0.457   3.544 -0.1564 -0.3918  0.0126
14550TIP3    H165065   5.530   0.383   3.538  0.2014  0.0013 -1.5765
14550TIP3    H265066   5.392   0.429   3.494  0.9984  1.2328 -2.8389
14551TIP3   OH265067   5.531   6.020   4.349  0.0068  0.0347  0.4452
14551TIP3    H165068   5.497   6.107   4.327 -0.5514 -0.3665 -0.3046
14551TIP3    H265069   5.624   6.025   4.327 -0.2641  0.0738 -0.7319
14552TIP3   OH265070   4.824   2.525   4.487  0.7348 -0.4320 -0.3012
14552TIP3    H165071   4.903   2.566   4.522 -0.6300 -0.5158  3.0408
14552TIP3    H265072   4.789   2.589   4.425  2.4850  0.3286 -0.5294
14553TIP3   OH265073   2.287   0.013  15.035 -0.1296  0.6191  0.3530
14553TIP3    H165074   2.293  -0.070  15.082  2.6451  0.8221  0.3936
14553TIP3    H265075   2.264  -0.012  14.945  0.6274 -0.1993  0.3826
14554TIP3   OH265076   4.766   5.855   3.941  0.1535 -0.3098 -0.5060
14554TIP3    H165077   4.805   5.821   3.861  0.2600 -0.1279 -0.5307
14554TIP3    H265078   4.783   5.787   4.007  2.3138  0.6701 -0.0224
14555TIP3   OH265079   5.280   5.982   6.368 -0.3483  0.1793 -0.0879
14555TIP3    H165080   5.193   6.016   6.388  0.1947  0.2412  2.3264
14555TIP3    H265081   5.277   5.890   6.396  0.1889  0.0174 -0.5451
14556TIP3   OH265082   0.394   6.402  12.409 -0.2121  0.3000 -0.2160
14556TIP3    H165083   0.363   6.377  12.323 -1.1415  0.7575 -0.0171
14556TIP3    H265084   0.333   6.360  12.470  0.1026  0.4454  0.2026
14557TIP3   OH265085   1.931   0.054   6.435 -0.2818  0.1690 -0.1501
14557TIP3    H165086   1.980   0.097   6.364 -0.9110 -0.8286 -1.2038
14557TIP3    H265087   1.961  -0.037   6.433 -0.4569  0.0914  0.7309
14558TIP3   OH265088   3.855   2.623   4.525 -0.3213  0.0494  0.6171
14558TIP3    H165089   3.921   2.592   4.464  0.9314  1.6553  1.1130
14558TIP3    H265090   3.889   2.600   4.612 -1.2919 -0.7495  0.7873
14559TIP3   OH265091   4.020   6.476   1.263 -0.0420 -0.0482 -0.2650
14559TIP3    H165092   3.973   6.469   1.180 -1.7908  3.6007  0.3065
14559TIP3    H265093   4.104   6.517   1.240 -0.1381  0.0980 -0.3544
14560TIP3   OH265094   6.385   6.681   3.956  0.4470  0.4381  0.3490
14560TIP3    H165095   6.400   6.727   3.873  0.2156  0.2118  0.1823
14560TIP3    H265096   6.472   6.673   3.995  0.5316  0.7186  0.2208
14561TIP3   OH265097   4.478   4.725  11.331 -0.0708 -0.5044  0.0203
14561TIP3    H165098   4.458   4.770  11.249  1.1423 -1.1649 -0.6467
14561TIP3    H265099   4.402   4.743  11.387 -1.5425 -1.1585 -1.7011
14562TIP3   OH265100   2.288   6.089   1.615 -0.0140 -0.2437 -0.3545
14562TIP3    H165101   2.371   6.125   1.647 -0.6415  1.4046 -0.5575
14562TIP3    H265102   2.313   6.007   1.572  1.5148  0.2426 -0.4188
14563TIP3   OH265103   2.275   3.585  13.551  0.1525 -0.2455  0.6223
14563TIP3    H165104   2.273   3.578  13.456 -0.1866  2.2393  0.4228
14563TIP3    H265105   2.345   3.649  13.569  0.0596 -0.5225  2.0249
14564TIP3   OH265106   6.013   0.949   2.123  0.5487  0.2838  0.4095
14564TIP3    H165107   6.065   0.969   2.045 -1.4845  0.3131 -0.9656
14564TIP3    H265108   5.943   1.014   2.123 -0.5128 -0.8354  1.2748
14565TIP3   OH265109   3.967   0.442   4.418  0.2615 -0.3416  0.4387
14565TIP3    H165110   3.902   0.435   4.488  0.8426  0.4615  1.0690
14565TIP3    H265111   3.939   0.517   4.366 -0.0324 -0.7876 -0.0500
14566TIP3   OH265112   4.445   2.169   2.020  0.5577  0.4587  0.0167
14566TIP3    H165113   4.375   2.110   2.051  1.7208 -0.9224  0.0856
14566TIP3    H265114   4.523   2.139   2.067  0.7769  3.4181  1.6440
14567TIP3   OH265115   0.663   0.222   4.015 -0.8441 -0.2771 -0.1144
14567TIP3    H165116   0.673   0.127   4.000 -2.2278 -0.5609  0.7606
14567TIP3    H265117   0.753   0.255   4.012  0.1185 -2.2509  3.7624
14568TIP3   OH265118   4.945   0.425   1.097 -0.0737  0.1946 -0.2103
14568TIP3    H165119   4.883   0.498   1.098  0.3159  0.5461 -1.1188
14568TIP3    H265120   4.890   0.347   1.087 -0.4781  0.3786  0.5627
14569TIP3   OH265121   0.139   4.039   0.592 -0.5262  0.7499  0.0096
14569TIP3    H165122   0.152   3.972   0.524 -0.9626 -0.8668  1.4977
14569TIP3    H265123   0.190   4.114   0.561 -1.9924  0.6255 -2.8957
14570TIP3   OH265124   6.531   2.876   3.786 -0.0512  0.3771  0.0056
14570TIP3    H165125   6.519   2.790   3.745  1.5638  1.0774 -1.9909
14570TIP3    H265126   6.568   2.931   3.717  1.5794  1.9380  2.0728
14571TIP3   OH265127   5.663   2.555  12.540  0.0832 -0.5146 -0.6380
14571TIP3    H165128   5.642   2.596  12.456  0.1959 -0.7758 -0.7957
14571TIP3    H265129   5.588   2.574  12.596  0.8677  1.3142 -0.1927
14572TIP3   OH265130   0.073   4.539  16.835 -0.5619 -0.3330 -0.0199
14572TIP3    H165131   0.132   4.468  16.811  0.4819  1.0959 -1.8717
14572TIP3    H265132   0.006   4.538  16.767 -0.5824  0.4092 -0.0123
14573TIP3   OH265133   4.085   3.461   1.225  0.2537 -0.2093 -0.5714
14573TIP3    H165134   3.990   3.468   1.218  0.2705  0.1685 -0.4517
14573TIP3    H265135   4.116   3.471   1.134  0.0796 -2.1545 -0.8562
14574TIP3   OH265136   5.714   5.208   6.329 -0.0843 -0.4715  1.0399
14574TIP3    H165137   5.637   5.204   6.386 -0.7188  1.1961  0.3398
14574TIP3    H265138   5.733   5.302   6.322  0.5781 -0.7185 -0.6881
14575TIP3   OH265139   2.601   6.421   5.376  0.1428  0.3531  0.1712
14575TIP3    H165140   2.530   6.375   5.420 -0.5314  0.3114 -0.9291
14575TIP3    H265141   2.677   6.365   5.386 -1.0806 -1.9722 -2.7675
14576TIP3   OH265142   0.581   2.596  14.287 -0.2555 -0.2040  0.2216
14576TIP3    H165143   0.516   2.649  14.334  0.4509  1.3062 -0.4850
14576TIP3    H265144   0.534   2.565  14.209 -0.6895 -0.6848  0.6697
14577TIP3   OH265145   1.432   2.300   5.153  0.5395 -0.7198  0.4053
14577TIP3    H165146   1.463   2.270   5.068  1.5989  0.0381  0.5185
14577TIP3    H265147   1.380   2.378   5.133  3.7993  1.6255  0.7442
14578TIP3   OH265148   1.851   1.917  17.127  0.1690 -0.1305  0.1610
14578TIP3    H165149   1.878   1.874  17.046  0.3003  0.8930 -0.3474
14578TIP3    H265150   1.932   1.956  17.161 -0.2681  1.2163 -0.3088
14579TIP3   OH265151   1.868   0.503  17.024  1.0343  0.0358 -0.0126
14579TIP3    H165152   1.960   0.486  17.001  1.0617 -0.5603  0.5278
14579TIP3    H265153   1.819   0.436  16.977  0.8705  0.3455 -0.2899
14580TIP3   OH265154   1.371   6.266  14.702  0.0844 -0.2661 -0.6984
14580TIP3    H165155   1.440   6.216  14.659 -0.4537 -1.0239 -0.6919
14580TIP3    H265156   1.292   6.247  14.651  0.0318  1.2814 -1.2359
14581TIP3   OH265157   6.503   6.562  15.734 -0.1159  0.6253 -1.5680
14581TIP3    H165158   6.452   6.632  15.694 -1.8108  0.7805  0.7843
14581TIP3    H265159   6.468   6.481  15.696 -1.7665  0.7669 -0.3683
14582TIP3   OH265160   5.720   2.733   3.342 -0.3480  0.2630 -0.1440
14582TIP3    H165161   5.739   2.753   3.433  1.9926 -1.4852 -0.2253
14582TIP3    H265162   5.772   2.795   3.292  0.4407 -0.5232 -0.3080
14583TIP3   OH265163   2.779   6.567   2.714  0.1980 -0.2133 -0.0233
14583TIP3    H165164   2.865   6.554   2.754 -0.8525 -2.5345  1.6443
14583TIP3    H265165   2.775   6.502   2.644 -1.9247 -3.5002  2.9694
14584TIP3   OH265166   2.380   6.204   3.277 -1.0155 -0.1619 -0.5161
14584TIP3    H165167   2.453   6.142   3.272 -0.4345  0.5205 -0.6667
14584TIP3    H265168   2.326   6.183   3.201 -1.4080 -1.2006  0.0421
14585TIP3   OH265169   3.608   1.931  14.279 -0.4234  0.3196 -0.1686
14585TIP3    H165170   3.531   1.873  14.276  1.3229 -2.2243  1.3569
14585TIP3    H265171   3.619   1.950  14.372  0.9403  0.4164 -0.3446
14586TIP3   OH265172   4.072   5.078  14.966 -0.3482 -0.3319  0.2291
14586TIP3    H165173   4.168   5.078  14.973 -0.4065 -1.6339  1.4212
14586TIP3    H265174   4.049   4.985  14.963 -1.6773 -0.0713  1.6824
14587TIP3   OH265175   4.129   5.130   2.756 -0.0673 -0.3357  0.2982
14587TIP3    H165176   4.100   5.041   2.736  2.0671 -0.4489 -2.5953
14587TIP3    H265177   4.222   5.121   2.777  0.6613  1.4060 -1.9732
14588TIP3   OH265178   5.910   0.353   2.016  0.3701  0.7842  0.2002
14588TIP3    H165179   6.006   0.346   2.016  0.3694  0.2838 -2.5479
14588TIP3    H265180   5.892   0.437   1.975 -0.4052 -0.1670 -1.4320
14589TIP3   OH265181   3.668   5.637   2.652  0.0939 -0.4290  0.6717
14589TIP3    H165182   3.602   5.619   2.584 -0.0745 -1.0732  1.0036
14589TIP3    H265183   3.726   5.701   2.612 -0.3834 -0.3147  0.1496
14590TIP3   OH265184   3.484   6.060  15.705 -0.5465  1.0149  0.2078
14590TIP3    H165185   3.437   6.118  15.645  0.2905 -0.0167 -1.4712
14590TIP3    H265186   3.569   6.046  15.664 -0.8201 -1.6209  0.4078
14591TIP3   OH265187   2.251   1.505   2.260 -0.4545  0.1306  0.4450
14591TIP3    H165188   2.260   1.410   2.267 -1.7026 -0.0440 -0.0661
14591TIP3    H265189   2.217   1.533   2.345  0.3030  0.1785  0.7353
14592TIP3   OH265190   5.986   5.808   5.805  0.8233  0.0456  0.4942
14592TIP3    H165191   5.916   5.783   5.745  1.4616 -1.9685  0.5637
14592TIP3    H265192   5.948   5.797   5.892  0.6534  0.6977  0.5049
14593TIP3   OH265193   1.301   3.952   0.626  0.2310 -0.4797 -0.8986
14593TIP3    H165194   1.296   4.035   0.672 -0.5063 -0.6898 -0.5803
14593TIP3    H265195   1.357   3.897   0.681  0.0030 -0.4709 -0.6540
14594TIP3   OH265196   1.988   6.163  12.963 -0.2457  0.3291  0.0885
14594TIP3    H165197   1.964   6.137  13.052 -1.0578 -0.2718 -0.2970
14594TIP3    H265198   1.943   6.246  12.949  1.0271  1.1442  0.7350
14595TIP3   OH265199   5.160   5.646  12.146  0.3709 -0.3963  0.3822
14595TIP3    H165200   5.090   5.674  12.087  0.1913 -0.9282  0.3398
14595TIP3    H265201   5.171   5.720  12.207 -1.6170 -1.1145  1.6507
14596TIP3   OH265202   1.303   0.814   3.372  0.0868 -0.1181 -0.4046
14596TIP3    H165203   1.360   0.749   3.413  0.3082  0.7150  0.6088
14596TIP3    H265204   1.327   0.811   3.279  1.3847 -0.1788 -0.0782
14597TIP3   OH265205   2.871   5.631  11.928 -0.3572  0.0131 -0.2524
14597TIP3    H165206   2.801   5.663  11.986  0.2450  0.1948  0.3800
14597TIP3    H265207   2.950   5.673  11.961  0.4254 -1.9737  0.4628
14598TIP3   OH265208   4.563   2.667   2.155 -0.1587  1.1557 -0.0861
14598TIP3    H165209   4.596   2.597   2.099 -1.8987 -0.3404  0.7235
14598TIP3    H265210   4.618   2.663   2.233 -0.8410  0.0490  0.3579
14599TIP3   OH265211   6.677   3.971  15.030 -0.3726 -0.2844  0.4080
14599TIP3    H165212   6.599   3.968  15.085 -0.2730  0.4257  0.5921
14599TIP3    H265213   6.671   4.055  14.985  0.4249 -0.1020  0.6323
14600TIP3   OH265214   0.901   1.762   4.742  0.0385  0.0588 -0.2559
14600TIP3    H165215   0.942   1.696   4.798  0.1055  0.3076 -0.0134
14600TIP3    H265216   0.832   1.801   4.796  1.6843  1.9937  0.4943
14601TIP3   OH265217   0.203   2.953  14.051  0.3875 -0.6909 -0.4811
14601TIP3    H165218   0.297   2.960  14.034  0.3642 -0.7120 -0.6250
14601TIP3    H265219   0.197   2.906  14.134  0.4800 -2.2540 -1.3437
14602TIP3   OH265220   5.878   6.785  16.825  0.1397 -0.4846  0.4291
14602TIP3    H165221   5.866   6.750  16.737 -0.6880  2.3663 -0.6509
14602TIP3    H265222   5.819   6.734  16.880 -0.3780 -1.3604 -0.9287
14603TIP3   OH265223   6.257   5.086  14.778  0.3213  0.5741  0.0766
14603TIP3    H165224   6.166   5.116  14.780  0.0950 -0.1166  0.6956
14603TIP3    H265225   6.307   5.162  14.750 -0.2636  1.4534  1.3912
14604TIP3   OH265226   5.337   4.321   5.065 -0.2415  0.1890 -0.0512
14604TIP3    H165227   5.399   4.371   5.118  0.8066 -1.5837  0.4471
14604TIP3    H265228   5.378   4.315   4.979 -0.1539 -0.1532  0.0103
14605TIP3   OH265229   6.058   2.198   3.734  0.3155  0.2562  0.0405
14605TIP3    H165230   6.000   2.224   3.805 -0.9747  0.2326 -0.9841
14605TIP3    H265231   6.058   2.103   3.737 -0.0973  0.2459 -0.2720
14606TIP3   OH265232   4.668   1.877  14.886 -0.6172 -0.2023 -0.3352
14606TIP3    H165233   4.737   1.881  14.952 -1.5261 -0.5859  0.6568
14606TIP3    H265234   4.649   1.784  14.877 -2.1822  0.0007  0.6605
14607TIP3   OH265235   0.233   6.473  12.664 -0.2233 -0.3035 -0.5037
14607TIP3    H165236   0.249   6.553  12.714 -1.4184  0.1217 -0.7677
14607TIP3    H265237   0.138   6.472  12.651  0.0639 -0.2557 -2.9769
14608TIP3   OH265238   4.887   5.625  15.847  0.0518 -0.1860  0.2708
14608TIP3    H165239   4.940   5.652  15.922  1.2079  0.1644 -0.6487
14608TIP3    H265240   4.835   5.701  15.825  1.5299  0.5516 -0.8041
14609TIP3   OH265241   6.612   1.471  13.850  0.0127 -0.1766  0.1829
14609TIP3    H165242   6.610   1.527  13.773 -2.5923 -1.0125 -0.4048
14609TIP3    H265243   6.631   1.530  13.922 -0.2529  1.0665 -0.7488
14610TIP3   OH265244   4.867   1.666  16.389  0.1709 -0.0677 -0.0275
14610TIP3    H165245   4.884   1.611  16.466  2.9251 -0.0822 -0.5951
14610TIP3    H265246   4.832   1.748  16.426 -0.0565 -0.6676  1.1216
14611TIP3   OH265247   1.511   2.634  16.140 -0.4511  0.1865 -0.1125
14611TIP3    H165248   1.453   2.678  16.202  0.1335  0.2708  0.3855
14611TIP3    H265249   1.492   2.541  16.152 -0.9521  0.2487 -0.4242
14612TIP3   OH265250   0.791   6.638   4.646  0.0735 -0.1789 -0.1469
14612TIP3    H165251   0.747   6.584   4.581 -1.1614 -0.8941  1.2684
14612TIP3    H265252   0.863   6.584   4.678  0.6886  0.1773 -0.9015
14613TIP3   OH265253   2.044   6.490  10.966 -0.1430  0.7426 -0.3987
14613TIP3    H165254   2.032   6.497  11.061  1.4030 -1.2440 -0.0125
14613TIP3    H265255   2.068   6.579  10.939 -0.7627  1.3731  1.0419
14614TIP3   OH265256   4.524   6.558   2.719  0.4085  0.0369  0.6689
14614TIP3    H165257   4.545   6.601   2.636  1.4819 -0.1500  0.8409
14614TIP3    H265258   4.453   6.498   2.698  1.5940 -1.0113 -0.4037
14615TIP3   OH265259   6.080   4.589   2.448 -0.5390 -0.3460 -0.0236
14615TIP3    H165260   6.023   4.589   2.525 -0.3764 -0.8319  0.1009
14615TIP3    H265261   6.069   4.501   2.411 -2.0084  0.4584 -1.5946
14616TIP3   OH265262   5.149   2.816   3.077 -0.2313 -0.4381  0.4848
14616TIP3    H165263   5.174   2.863   2.997  2.3124 -0.3546  1.3012
14616TIP3    H265264   5.165   2.878   3.148 -0.0704 -1.3707  1.2767
14617TIP3   OH265265   1.854   5.523   1.693 -0.8154  0.4174  0.4255
14617TIP3    H165266   1.878   5.522   1.786 -1.1545  0.3932  0.5139
14617TIP3    H265267   1.769   5.479   1.690 -0.1541 -0.8168 -0.0849
14618TIP3   OH265268   0.164   0.932   1.493 -0.1043  0.0855  0.3005
14618TIP3    H165269   0.172   1.022   1.459 -1.5174  0.1850  0.2099
14618TIP3    H265270   0.170   0.877   1.415 -1.8227  0.2363  0.0568
14619TIP3   OH265271   5.502   1.888  12.074 -0.4301 -0.1860  0.0207
14619TIP3    H165272   5.426   1.876  12.017 -0.6107  0.6408  0.0841
14619TIP3    H265273   5.531   1.799  12.094 -0.4728 -0.4890 -1.2170
14620TIP3   OH265274   2.401   2.479   5.455  0.7788 -0.2341  0.4344
14620TIP3    H165275   2.333   2.526   5.504  0.3362 -0.7350  0.2972
14620TIP3    H265276   2.468   2.546   5.439 -1.7758  1.5560 -3.6002
14621TIP3   OH265277   6.714   4.336  16.460 -0.2205 -0.3146  0.3186
14621TIP3    H165278   6.730   4.410  16.518 -0.8486 -0.8744  1.2183
14621TIP3    H265279   6.649   4.282  16.506 -0.1263 -1.1811 -0.5308
14622TIP3   OH265280   3.173   3.862  14.030 -0.4046 -0.2494  0.3514
14622TIP3    H165281   3.152   3.892  13.941 -0.4669  0.4479  0.5987
14622TIP3    H265282   3.159   3.939  14.085  1.5347 -0.1505  0.7091
14623TIP3   OH265283   1.754   1.423  12.490 -0.3370  0.3031  0.1738
14623TIP3    H165284   1.691   1.495  12.496  1.8177  2.1826  1.2660
14623TIP3    H265285   1.734   1.366  12.564  1.3213  2.6879  2.5532
14624TIP3   OH265286   4.870   1.315  14.424  0.3798  0.0070  0.5300
14624TIP3    H165287   4.828   1.392  14.386  0.8442  0.3157  0.6411
14624TIP3    H265288   4.963   1.338  14.429  0.5504 -0.6346  0.3784
14625TIP3   OH265289   4.654   0.848  10.689  0.4350  0.0063 -0.3899
14625TIP3    H165290   4.601   0.775  10.721 -0.0487  1.1348  1.4514
14625TIP3    H265291   4.599   0.891  10.624 -0.1866  0.0566  0.1578
14626TIP3   OH265292   0.545   3.371  13.958 -0.0232 -0.9264 -0.1036
14626TIP3    H165293   0.636   3.392  13.979 -0.2806 -0.2523  0.3717
14626TIP3    H265294   0.532   3.283  13.991 -0.1486 -0.2356  1.7377
14627TIP3   OH265295   3.928   2.872  11.498  0.5063  0.5322  0.1120
14627TIP3    H165296   3.881   2.953  11.516 -0.6655 -0.1776  0.3168
14627TIP3    H265297   3.859   2.806  11.487  1.3851 -0.1699 -1.4088
14628TIP3   OH265298   5.267   2.420   4.747  0.6891 -0.0233  0.7001
14628TIP3    H165299   5.307   2.504   4.727 -1.2728  1.2683  2.0978
14628TIP3    H265300   5.194   2.440   4.806 -1.1554 -2.4559 -0.6238
14629TIP3   OH265301   4.698   5.185  17.132 -0.6737  0.2045 -0.6309
14629TIP3    H165302   4.664   5.153  17.216  1.6437  0.1911  0.3414
14629TIP3    H265303   4.684   5.280  17.135 -2.5419 -0.0244 -1.1809
14630TIP3   OH265304   0.939   4.197   5.092  0.0260  0.0134 -0.0092
14630TIP3    H165305   0.885   4.156   5.160  1.2227 -0.3060  0.7535
14630TIP3    H265306   0.946   4.288   5.119 -1.2907  0.3758 -0.8548
14631TIP3   OH265307   2.869   3.207  16.765  0.1417 -0.5578  0.2524
14631TIP3    H165308   2.892   3.140  16.701  1.3533  0.3476 -0.2599
14631TIP3    H265309   2.808   3.265  16.719  1.9011  0.7448 -0.4514
14632TIP3   OH265310   1.704   2.841  12.096  0.3031  0.5488  0.0055
14632TIP3    H165311   1.781   2.882  12.057  0.3557  0.4364 -0.0075
14632TIP3    H265312   1.632   2.898  12.071  0.6103  1.6513  1.5024
14633TIP3   OH265313   2.584   2.318   5.119 -0.1197 -0.1343 -0.2381
14633TIP3    H165314   2.676   2.332   5.139  0.0504 -1.8776  0.2255
14633TIP3    H265315   2.546   2.288   5.202 -0.9881  0.0209 -0.5779
14634TIP3   OH265316   3.497   1.409  15.392 -0.3982 -0.5246 -0.8631
14634TIP3    H165317   3.432   1.478  15.401 -0.6384 -0.8065 -0.4702
14634TIP3    H265318   3.567   1.434  15.452 -1.6908 -2.0405  1.3149
14635TIP3   OH265319   2.023   3.051   3.171 -0.6795 -0.1490 -0.2485
14635TIP3    H165320   1.999   3.121   3.110  2.2257  1.6299  0.5603
14635TIP3    H265321   1.967   3.065   3.247 -1.4826  0.0793 -0.8726
14636TIP3   OH265322   0.802   2.061  11.163  0.1527 -0.1171 -0.6669
14636TIP3    H165323   0.749   2.006  11.106 -1.0011 -0.5390  0.7967
14636TIP3    H265324   0.740   2.122  11.204  0.8863 -0.1318  0.5081
14637TIP3   OH265325   2.073   1.408   2.982  0.1267  0.2581 -0.6312
14637TIP3    H165326   2.097   1.316   2.972  0.8427  0.3513  0.1277
14637TIP3    H265327   2.068   1.442   2.893  1.0740 -0.2152 -0.8702
14638TIP3   OH265328   1.564   4.671   3.745  0.4872  0.3651  0.3193
14638TIP3    H165329   1.590   4.690   3.654 -0.9284 -0.2711 -0.2395
14638TIP3    H265330   1.608   4.589   3.766 -0.7462 -0.5397 -0.5119
14639TIP3   OH265331   6.039   4.318   2.385  0.0149  0.8412 -0.1391
14639TIP3    H165332   6.099   4.279   2.448  0.1833 -0.4203 -1.0555
14639TIP3    H265333   6.042   4.259   2.310 -0.4127  2.1551 -1.2111
14640TIP3   OH265334   4.271   6.425   2.654  0.1409  0.0233  0.3276
14640TIP3    H165335   4.262   6.335   2.625  1.8038  0.4594 -1.6593
14640TIP3    H265336   4.221   6.477   2.591  1.3877  0.7093 -0.1276
14641TIP3   OH265337   5.760   4.825  13.278 -0.3030  0.0233  0.3571
14641TIP3    H165338   5.685   4.885  13.269 -0.6547 -0.0131  2.8388
14641TIP3    H265339   5.757   4.796  13.369  0.5439 -2.8953 -0.4855
14642TIP3   OH265340   1.561   0.914  11.644  0.1106 -0.1042  0.7572
14642TIP3    H165341   1.636   0.870  11.684  0.6971 -0.3992 -0.6585
14642TIP3    H265342   1.581   1.007  11.654  0.2115 -0.1742  1.2323
14643TIP3   OH265343   6.370   4.804   1.217  0.3034  0.4791  0.4149
14643TIP3    H165344   6.457   4.763   1.207 -0.6178 -1.4467 -0.0866
14643TIP3    H265345   6.361   4.860   1.140  0.6106 -0.2681 -0.1732
14644TIP3   OH265346   5.511   6.324  15.164  0.4384 -0.5939 -0.0402
14644TIP3    H165347   5.471   6.390  15.109 -1.5157 -2.7291 -1.2911
14644TIP3    H265348   5.564   6.271  15.104  1.2326 -0.7272  0.7670
14645TIP3   OH265349   3.812   5.145  17.060  0.3693  0.7140  0.3720
14645TIP3    H165350   3.873   5.142  17.134 -0.1503 -0.5210  0.7662
14645TIP3    H265351   3.866   5.165  16.985  1.2103  0.0600  0.7920
14646TIP3   OH265352   4.901   2.566  14.250 -0.1001  0.2752 -0.1198
14646TIP3    H165353   4.849   2.569  14.171 -0.7263  1.1620  0.3181
14646TIP3    H265354   4.841   2.533  14.317  0.4119 -0.4277 -0.0015
14647TIP3   OH265355   0.127   6.108  11.189 -0.0062  0.1498 -0.7071
14647TIP3    H165356   0.142   6.201  11.208 -1.9891  0.6146 -1.2510
14647TIP3    H265357   0.038   6.092  11.221  0.2427 -1.5064 -0.8292
14648TIP3   OH265358   4.872   3.079   5.571 -0.4526  0.3044 -0.2971
14648TIP3    H165359   4.967   3.067   5.560  0.0992  2.1919  1.9258
14648TIP3    H265360   4.848   3.144   5.505  0.4354  2.2178  1.2246
14649TIP3   OH265361   3.398   2.833  10.881  0.0159  0.2186 -0.4832
14649TIP3    H165362   3.408   2.915  10.929 -0.9931  0.3704 -0.5179
14649TIP3    H265363   3.331   2.785  10.929  0.1585 -0.3260 -0.8159
14650TIP3   OH265364   3.189   0.609   0.118 -0.6055 -0.8825 -0.8040
14650TIP3    H165365   3.189   0.680   0.182 -1.5258 -0.3447 -1.3856
14650TIP3    H265366   3.223   0.533   0.165 -0.0110 -0.1591 -0.0615
14651TIP3   OH265367   5.087   5.979   5.337 -0.3309 -0.1195 -0.2650
14651TIP3    H165368   5.137   5.900   5.356 -0.1213 -0.3572 -1.7025
14651TIP3    H265369   5.074   6.021   5.422  0.4009 -1.1974  0.3877
14652TIP3   OH265370   4.784   4.600  11.579 -0.6664  0.2185 -0.1990
14652TIP3    H165371   4.742   4.573  11.497 -2.2479  0.1397  0.6292
14652TIP3    H265372   4.874   4.568  11.571 -0.8065  0.1838 -1.8934
14653TIP3   OH265373   5.422   4.064   6.525 -0.3344 -0.2216 -0.7767
14653TIP3    H165374   5.332   4.089   6.505  0.2396  1.5334 -1.2371
14653TIP3    H265375   5.475   4.106   6.457  1.1089  1.2421  1.1829
14654TIP3   OH265376   1.684   5.223   5.166  0.1296  0.0710  0.5273
14654TIP3    H165377   1.738   5.266   5.232 -0.2199  1.6270 -0.1842
14654TIP3    H265378   1.715   5.259   5.083  0.8842 -2.1931 -0.2263
14655TIP3   OH265379   5.366   4.234   0.193  0.4063 -0.2679 -0.0501
14655TIP3    H165380   5.373   4.323   0.227 -1.1164  0.7629 -2.2599
14655TIP3    H265381   5.431   4.230   0.123  0.4155 -0.8693 -0.0089
14656TIP3   OH265382   6.640   4.260   0.064  0.4049 -0.2294 -0.0332
14656TIP3    H165383   6.622   4.282  -0.028 -1.1316  3.7746  1.1231
14656TIP3    H265384   6.602   4.174   0.076  0.0334 -0.5263 -2.9750
14657TIP3   OH265385   5.433   0.811   1.548  0.0498  0.0490  0.0003
14657TIP3    H165386   5.444   0.846   1.637  0.3688  2.0287 -0.7896
14657TIP3    H265387   5.517   0.826   1.505  0.4838 -2.5407 -0.1100
14658TIP3   OH265388   5.112   2.027   4.797 -0.2221  0.0657  0.5572
14658TIP3    H165389   5.192   2.065   4.831 -0.7218  1.3069  0.3756
14658TIP3    H265390   5.122   1.932   4.811  1.7032  0.0994 -0.3917
14659TIP3   OH265391   4.671   3.528  15.352  0.6188  0.2672 -0.1132
14659TIP3    H165392   4.707   3.613  15.377  0.9602 -0.1773  0.9475
14659TIP3    H265393   4.627   3.496  15.431  0.7664 -0.6772 -0.3990
14660TIP3   OH265394   2.076   2.408   3.810 -0.6602 -0.3198 -0.1140
14660TIP3    H165395   2.050   2.316   3.804 -0.0687 -0.6021  1.4132
14660TIP3    H265396   2.165   2.406   3.846 -0.2839  0.8159 -0.9591
14661TIP3   OH265397   3.732   2.923  15.359 -0.4643 -0.1648 -0.0345
14661TIP3    H165398   3.782   2.952  15.435 -1.9482 -0.1937  0.9817
14661TIP3    H265399   3.708   3.003  15.313 -1.5519  0.0302  0.8364
14662TIP3   OH265400   1.291   1.583   3.220  0.0447  0.4162 -0.1293
14662TIP3    H165401   1.282   1.582   3.315  0.1395  0.7521 -0.1172
14662TIP3    H265402   1.315   1.673   3.199 -0.8179  0.5512 -0.5519
14663TIP3   OH265403   4.351   0.164   5.049  0.4919 -0.4903 -0.3038
14663TIP3    H165404   4.425   0.213   5.013  0.0961 -0.2583 -0.8199
14663TIP3    H265405   4.355   0.181   5.143  0.7840 -0.0444 -0.3918
14664TIP3   OH265406   5.708   1.186  12.873 -0.5769 -0.7393  0.2486
14664TIP3    H165407   5.727   1.119  12.938  2.7731  1.5829  1.8038
14664TIP3    H265408   5.761   1.163  12.797  3.1287  1.7668  1.9461
14665TIP3   OH265409   4.916   2.834   0.550  0.4845  0.3113 -0.2453
14665TIP3    H165410   4.971   2.886   0.491  1.3535 -3.0384 -2.5529
14665TIP3    H265411   4.975   2.768   0.586 -0.7397  0.4201  2.0655
14666TIP3   OH265412   0.243   3.576  14.003  0.5636  0.3970  0.7849
14666TIP3    H165413   0.219   3.598  14.093 -0.4156 -0.5647  0.7637
14666TIP3    H265414   0.214   3.486  13.992  1.9482  0.0368 -0.0501
14667TIP3   OH265415   6.663   0.555   0.708  0.1706 -0.5522  0.0268
14667TIP3    H165416   6.601   0.482   0.707  0.7250 -1.0177 -0.6108
14667TIP3    H265417   6.683   0.571   0.616 -1.3364  1.5997  0.0264
14668TIP3   OH265418   6.112   5.724   1.502 -0.9161 -0.0427  0.2396
14668TIP3    H165419   6.041   5.675   1.462 -1.3259  2.0480 -1.7442
14668TIP3    H265420   6.191   5.675   1.479 -1.3559 -0.0676 -1.2477
14669TIP3   OH265421   3.007   2.324  16.812  0.5321 -0.4210 -0.1918
14669TIP3    H165422   3.003   2.388  16.740  1.8343 -0.7846 -0.5926
14669TIP3    H265423   3.065   2.365  16.876  0.3540 -0.6442  0.1084
14670TIP3   OH265424   5.247   4.689   0.634 -0.5891  0.2481  0.3425
14670TIP3    H165425   5.253   4.784   0.628 -1.3146  0.3578  1.2010
14670TIP3    H265426   5.155   4.670   0.617 -0.4607 -0.2963  0.2438
14671TIP3   OH265427   5.018   1.034   4.657  0.0583 -0.0005 -0.5475
14671TIP3    H165428   5.061   0.973   4.716  2.2469  0.8931 -1.1595
14671TIP3    H265429   4.974   1.097   4.714  3.0348  1.4715  0.2081
14672TIP3   OH265430   5.826   0.473   6.065  0.1143 -0.0139 -0.3416
14672TIP3    H165431   5.788   0.477   6.153 -2.3359 -0.9044 -1.3244
14672TIP3    H265432   5.886   0.399   6.068  0.2846  0.1560  0.6637
14673TIP3   OH265433   5.929   6.331   0.588 -0.0743  0.3581 -0.3326
14673TIP3    H165434   5.849   6.300   0.545 -0.7776  0.1785  1.0704
14673TIP3    H265435   5.900   6.405   0.642  1.0863  1.6399 -1.4362
14674TIP3   OH265436   5.978   1.106  15.468  0.1409 -0.7919  0.0718
14674TIP3    H165437   5.981   1.010  15.472 -0.9189 -0.8425 -0.0007
14674TIP3    H265438   6.047   1.130  15.407 -0.4961 -1.6011 -1.0037
14675TIP3   OH265439   3.676   5.786  14.227  0.0776 -0.8386  0.3909
14675TIP3    H165440   3.765   5.776  14.194 -0.4808  0.4804 -1.6156
14675TIP3    H265441   3.675   5.737  14.309  2.5839 -1.0479  0.3333
14676TIP3   OH265442   3.028   0.359  12.086 -0.2950 -0.3767 -0.4992
14676TIP3    H165443   3.091   0.427  12.060  1.7247 -1.3163  1.7855
14676TIP3    H265444   2.948   0.408  12.106  0.8814  1.2562  0.3442
14677TIP3   OH265445   2.486   2.010  13.802 -0.2314 -0.4527  0.1824
14677TIP3    H165446   2.579   1.997  13.787  0.5786  0.8613  3.5729
14677TIP3    H265447   2.466   2.095  13.763 -0.1279 -0.8983 -0.8620
14678TIP3   OH265448   5.651   4.935   5.392  0.5688  0.1248  0.5777
14678TIP3    H165449   5.596   4.899   5.461  1.7850 -1.9516  0.4970
14678TIP3    H265450   5.628   4.884   5.314 -0.0176  1.7231 -0.3197
14679TIP3   OH265451   1.740   3.851   2.180 -0.1216 -0.0415  0.1814
14679TIP3    H165452   1.652   3.827   2.207 -1.5272  2.2041 -2.2282
14679TIP3    H265453   1.791   3.850   2.261 -2.2495 -1.6796  1.5514
14680TIP3   OH265454   3.344   0.800  15.193  0.2899  0.0634 -0.7193
14680TIP3    H165455   3.350   0.831  15.283 -1.2523  1.8546 -1.1958
14680TIP3    H265456   3.414   0.736  15.185  1.0985  0.6270  1.4535
14681TIP3   OH265457   4.335   3.752  13.741  0.1665 -0.3879 -0.4046
14681TIP3    H165458   4.279   3.749  13.818 -0.0358  0.8372 -0.4903
14681TIP3    H265459   4.400   3.683  13.755  0.9594  0.7330  1.5096
14682TIP3   OH265460   6.604   2.972  12.641 -0.2285 -0.3566 -0.0839
14682TIP3    H165461   6.632   2.908  12.576 -2.5875  0.5389 -2.0332
14682TIP3    H265462   6.521   2.937  12.675 -0.9647  1.0796 -0.3629
14683TIP3   OH265463   4.191   1.255  13.431  0.1732 -0.1121  0.1705
14683TIP3    H165464   4.241   1.325  13.388 -0.7649  0.1382 -0.5386
14683TIP3    H265465   4.240   1.176  13.413  0.8920  0.2840  0.3947
14684TIP3   OH265466   6.341   4.176   2.125  0.2091  0.1030 -0.3470
14684TIP3    H165467   6.433   4.186   2.151  0.9526 -2.2336 -1.9645
14684TIP3    H265468   6.344   4.170   2.030 -1.5369 -0.8742 -0.3518
14685TIP3   OH265469   3.412   5.422  14.669  0.2167  0.4657  0.4371
14685TIP3    H165470   3.505   5.441  14.659  0.3449 -0.4543 -0.1259
14685TIP3    H265471   3.380   5.408  14.580 -0.5491  1.1815  0.5929
14686TIP3   OH265472   5.615   4.696   1.430  0.0491  0.6809 -0.5521
14686TIP3    H165473   5.523   4.672   1.441  0.0608  0.6860 -0.4407
14686TIP3    H265474   5.615   4.756   1.355 -0.1746  1.5324  0.1252
14687TIP3   OH265475   0.399   6.156  16.914  0.2381  0.1875 -0.1275
14687TIP3    H165476   0.337   6.227  16.930 -2.0640 -1.8254  0.1066
14687TIP3    H265477   0.402   6.148  16.819 -1.1895 -0.8278 -0.0991
14688TIP3   OH265478   2.746   1.294  15.023 -0.5642  0.1344 -1.0264
14688TIP3    H165479   2.742   1.217  15.080  1.1053  1.9796  1.7074
14688TIP3    H265480   2.839   1.318  15.023 -1.2228  2.8675 -0.7765
14689TIP3   OH265481   5.031   3.007  11.090  0.1117 -0.1877 -0.1235
14689TIP3    H165482   5.014   3.067  11.162  2.1283 -0.4196  0.5961
14689TIP3    H265483   4.969   2.935  11.103 -0.2578  0.2911  0.7642
14690TIP3   OH265484   1.313   0.585   1.807  0.0800 -0.2527  0.6265
14690TIP3    H165485   1.255   0.660   1.791 -0.0324 -0.3025  0.8083
14690TIP3    H265486   1.380   0.619   1.866  0.7044  0.0332 -0.2243
14691TIP3   OH265487   0.820   5.542  13.316 -0.0401  0.6931 -0.2735
14691TIP3    H165488   0.796   5.581  13.232 -0.2959 -0.3120 -0.6723
14691TIP3    H265489   0.911   5.515  13.306  0.5169  2.2541  0.4082
14692TIP3   OH265490   1.638   2.989  12.684  0.2464 -0.3371  0.7681
14692TIP3    H165491   1.633   3.080  12.712  1.1526 -0.2625  0.6983
14692TIP3    H265492   1.723   2.982  12.640 -0.0375 -1.0896  0.3333
14693TIP3   OH265493   4.216   1.134  11.515  0.8063 -0.5115  0.9004
14693TIP3    H165494   4.302   1.105  11.486  0.6303  0.2648 -0.4180
14693TIP3    H265495   4.163   1.055  11.519  1.4881 -0.9445  1.4075
14694TIP3   OH265496   2.164   3.298   2.753 -0.3025  0.0620  0.1675
14694TIP3    H165497   2.133   3.300   2.843 -1.0875 -0.1971 -0.0894
14694TIP3    H265498   2.166   3.204   2.731 -0.7495  0.1539 -0.2887
14695TIP3   OH265499   0.573   3.063  17.149  0.1964  1.0373  0.5087
14695TIP3    H165500   0.626   2.986  17.129 -2.9218 -0.6527 -1.6594
14695TIP3    H265501   0.534   3.044  17.234 -0.4244  0.2750  0.0631
14696TIP3   OH265502   4.403   3.262  13.311  0.3050 -0.0354 -0.3711
14696TIP3    H165503   4.366   3.199  13.373 -0.3255  0.7495  0.0551
14696TIP3    H265504   4.493   3.276  13.341  0.0158  0.3112  0.3473
14697TIP3   OH265505   0.550   6.689   3.279  0.2781 -0.3988 -0.8566
14697TIP3    H165506   0.605   6.611   3.273 -0.5693 -1.1005  0.1960
14697TIP3    H265507   0.469   6.658   3.321 -0.4616  0.8417 -1.3352
14698TIP3   OH265508   3.556   2.982  16.548  0.4449 -0.1208  0.2382
14698TIP3    H165509   3.502   3.046  16.502  0.0150 -0.7382 -0.1264
14698TIP3    H265510   3.633   3.031  16.575  0.3486  0.4354 -0.4689
14699TIP3   OH265511   4.069   5.627  12.225 -0.4363  0.5792  0.5468
14699TIP3    H165512   4.151   5.657  12.186 -0.0624 -0.0198  0.8691
14699TIP3    H265513   4.005   5.636  12.154  0.4975 -1.7199 -0.6626
14700TIP3   OH265514   2.932   6.698   4.653  0.1034  0.2462  0.3902
14700TIP3    H165515   2.913   6.613   4.615  0.1172  0.2806  0.3070
14700TIP3    H265516   2.848   6.728   4.688  0.0980  0.2003  0.4170
14701TIP3   OH265517   6.748   3.635  14.083  0.1031  0.6006  0.3583
14701TIP3    H165518   6.744   3.559  14.024 -0.7183  0.8888  0.0325
14701TIP3    H265519   6.762   3.710  14.025 -1.7296  1.0100  0.4082
14702TIP3   OH265520   6.618   2.506   2.820 -0.0443 -0.0387  0.0800
14702TIP3    H165521   6.694   2.537   2.771 -0.0636 -0.7296 -0.3838
14702TIP3    H265522   6.639   2.416   2.845 -0.9238 -0.4124 -0.4928
14703TIP3   OH265523   0.506   4.465   0.636  0.2083  0.2755 -0.4079
14703TIP3    H165524   0.523   4.535   0.572 -0.1496  0.8382  0.1119
14703TIP3    H265525   0.569   4.397   0.613 -0.8285 -0.0886 -2.2107
14704TIP3   OH265526   2.259   3.181   0.635  0.1240  0.3660 -0.3629
14704TIP3    H165527   2.271   3.138   0.551 -0.6095  1.3840 -1.0050
14704TIP3    H265528   2.322   3.253   0.635 -0.4321  0.8567 -0.3839
14705TIP3   OH265529   6.602   1.411  15.488 -0.2685 -0.0703 -0.1753
14705TIP3    H165530   6.560   1.336  15.446 -0.8674 -0.2006  0.6480
14705TIP3    H265531   6.595   1.482  15.424 -0.8113 -0.3786 -0.4603
14706TIP3   OH265532   5.347   2.300   2.830  0.1786  0.4866 -0.7573
14706TIP3    H165533   5.440   2.314   2.847 -0.2512  1.8012  0.5883
14706TIP3    H265534   5.341   2.293   2.735  1.5041  1.5603 -0.9361
14707TIP3   OH265535   2.324   6.000  14.867  0.0012 -0.3608 -0.6174
14707TIP3    H165536   2.315   5.958  14.953 -1.7605  0.1423 -0.5272
14707TIP3    H265537   2.418   6.001  14.851  0.2121 -2.6018  0.2297
14708TIP3   OH265538   4.892   4.425   2.230  0.1888 -0.1488  0.8091
14708TIP3    H165539   4.895   4.507   2.181  0.8554 -0.8282 -0.3167
14708TIP3    H265540   4.835   4.444   2.305 -0.9092  0.8923 -0.2583
14709TIP3   OH265541   1.532   2.279   3.046  0.1484 -0.3542 -0.1544
14709TIP3    H165542   1.455   2.254   2.996 -0.6023  0.8357  0.4004
14709TIP3    H265543   1.606   2.253   2.990 -0.6510 -1.0178 -0.9148
14710TIP3   OH265544   0.449   6.143  15.568 -0.2699  0.1013 -0.0204
14710TIP3    H165545   0.382   6.204  15.538 -1.0510 -0.4909  0.4875
14710TIP3    H265546   0.462   6.165  15.660  1.8356  1.6541 -0.6508
14711TIP3   OH265547   4.551   6.131  13.305  0.0374  0.0883  0.4571
14711TIP3    H165548   4.497   6.052  13.304 -0.5811  0.5073  0.3656
14711TIP3    H265549   4.546   6.162  13.395 -2.1805  1.6856 -0.1906
14712TIP3   OH265550   2.867   0.527   6.038 -0.9442 -0.6243 -0.1132
14712TIP3    H165551   2.826   0.569   6.114 -0.0487 -0.2905  0.1966
14712TIP3    H265552   2.823   0.443   6.031  0.2261 -1.4757  1.9609
14713TIP3   OH265553   4.530   0.125  12.480  0.4283  0.7317 -0.5182
14713TIP3    H165554   4.548   0.055  12.417  0.4347 -0.2788  0.5746
14713TIP3    H265555   4.599   0.116  12.547 -0.5448  0.7086  0.5049
14714TIP3   OH265556   6.085   0.840   4.874 -0.4328  0.2339  0.4053
14714TIP3    H165557   6.063   0.915   4.929 -0.2934 -0.1625  1.0135
14714TIP3    H265558   6.085   0.874   4.784  2.8363  1.7078  0.8900
14715TIP3   OH265559   4.962   0.307  16.044 -0.4029  0.5791  0.0220
14715TIP3    H165560   4.986   0.317  15.952  1.1111 -2.6928  0.0123
14715TIP3    H265561   5.036   0.342  16.093 -0.0919 -0.0345 -0.0078
14716TIP3   OH265562   5.591   3.229  10.635  0.0033 -0.3036 -0.4284
14716TIP3    H165563   5.552   3.182  10.562  0.7134  0.1432 -1.0937
14716TIP3    H265564   5.673   3.265  10.601  0.9073 -1.0308  0.8746
14717TIP3   OH265565   6.352   4.998   5.285 -0.1485  0.6542  0.5780
14717TIP3    H165566   6.279   5.030   5.339 -0.5160  0.0368  0.4549
14717TIP3    H265567   6.415   4.963   5.347  0.0716  1.2414  0.6900
14718TIP3   OH265568   3.874   4.680  12.205 -0.3142 -0.0506  0.1309
14718TIP3    H165569   3.951   4.714  12.159  0.3316  0.0526  1.2691
14718TIP3    H265570   3.829   4.758  12.236 -1.1377 -0.0927 -0.9272
14719TIP3   OH265571   1.563   1.434  11.231  0.5263 -0.4532 -0.0043
14719TIP3    H165572   1.586   1.380  11.306  3.0618  1.3762  0.6286
14719TIP3    H265573   1.488   1.486  11.261 -0.3775 -1.8611  0.2007
14720TIP3   OH265574   3.478   3.157   1.658 -0.2239 -0.3725 -0.7177
14720TIP3    H165575   3.547   3.224   1.661 -0.5079 -0.1187  0.3959
14720TIP3    H265576   3.480   3.117   1.745 -3.3569  1.5620  0.3141
14721TIP3   OH265577   1.228   3.284  11.957  0.1772  0.5893  0.5312
14721TIP3    H165578   1.284   3.238  12.020 -1.1392  1.9161  2.7361
14721TIP3    H265579   1.177   3.214  11.915 -0.0861 -0.1923  2.1007
14722TIP3   OH265580   0.479   2.689   2.861 -0.0700 -0.2868 -0.0226
14722TIP3    H165581   0.544   2.759   2.872 -2.0971  1.5037  0.7243
14722TIP3    H265582   0.487   2.637   2.942  1.5620 -1.0830 -0.6588
14723TIP3   OH265583   3.275   0.027   5.620 -0.2957  0.2833  0.2970
14723TIP3    H165584   3.369   0.013   5.624 -0.1905  1.3188  1.6023
14723TIP3    H265585   3.240  -0.023   5.694 -0.8914 -0.8749 -0.7331
14724TIP3   OH265586   0.647   2.739  11.909  0.0996 -0.1881  0.4226
14724TIP3    H165587   0.610   2.655  11.884 -1.1472  0.2038  0.9189
14724TIP3    H265588   0.571   2.793  11.932  0.4687  2.3711 -3.7020
14725TIP3   OH265589   0.489   1.413  17.008  0.4117 -0.1392 -0.3037
14725TIP3    H165590   0.499   1.445  17.097  1.2167  0.0081 -0.4441
14725TIP3    H265591   0.464   1.321  17.018 -2.2310  0.5771  0.1052
14726TIP3   OH265592   3.603   6.539   3.917 -0.2787 -0.3367  0.4307
14726TIP3    H165593   3.630   6.592   3.992  1.1026  1.6628 -1.4182
14726TIP3    H265594   3.667   6.560   3.849 -1.6436 -1.9307 -1.3815
14727TIP3   OH265595   4.108   6.123  10.841  0.0076  0.0986 -0.0153
14727TIP3    H165596   4.087   6.064  10.913 -1.7495  0.6087 -0.1069
14727TIP3    H265597   4.024   6.144  10.801  0.4380  3.9261  0.9712
14728TIP3   OH265598   1.005   1.511   0.794 -0.5280 -0.0375  0.0895
14728TIP3    H165599   1.100   1.519   0.804 -0.3887 -0.4278 -0.9089
14728TIP3    H265600   0.977   1.594   0.757 -0.4487 -0.2637 -0.4863
14729TIP3   OH265601   2.807   6.363  10.632 -0.2166 -0.1792  0.2072
14729TIP3    H165602   2.885   6.308  10.623  1.0257  1.4897  0.6192
14729TIP3    H265603   2.771   6.338  10.717  0.0654 -0.7131  0.1733
14730TIP3   OH265604   2.268   2.033   0.632 -0.1808  0.2825  0.2092
14730TIP3    H165605   2.181   2.021   0.596  0.9717 -0.0913 -2.6009
14730TIP3    H265606   2.260   2.011   0.724 -3.0765  0.4634  0.0220
14731TIP3   OH265607   1.932   3.637   4.071 -0.0796 -0.7215 -0.4576
14731TIP3    H165608   1.902   3.718   4.030 -1.5945 -0.5320  0.9837
14731TIP3    H265609   1.853   3.583   4.077  0.1511 -0.8482  1.9152
14732TIP3   OH265610   4.768   0.320  15.801 -0.4983 -0.2100 -0.4773
14732TIP3    H165611   4.827   0.385  15.841  1.3635 -2.3873  0.4382
14732TIP3    H265612   4.798   0.314  15.710  1.1654 -1.7362  0.1285
14733TIP3   OH265613   4.065   6.528  12.464 -0.1564  0.0154 -0.0862
14733TIP3    H165614   3.997   6.501  12.527  0.3639 -1.3990 -0.1292
14733TIP3    H265615   4.062   6.624  12.467 -1.5304 -0.0281  0.5934
14734TIP3   OH265616   5.833   5.490   4.441  0.2693  0.2258  0.2845
14734TIP3    H165617   5.921   5.514   4.471  0.4754  1.2648 -1.0801
14734TIP3    H265618   5.820   5.542   4.361 -0.9036 -1.1921 -0.4797
14735TIP3   OH265619   1.608   1.533   5.866  0.1211  0.3791  0.0882
14735TIP3    H165620   1.584   1.566   5.953  0.1401  1.4857 -0.3084
14735TIP3    H265621   1.691   1.489   5.879 -0.1915 -0.0157  0.7516
14736TIP3   OH265622   2.621   2.823  11.314  0.1224 -0.7041 -0.3683
14736TIP3    H165623   2.559   2.867  11.372 -2.5623 -3.4201 -1.0729
14736TIP3    H265624   2.591   2.844  11.226  1.0929 -0.8321 -0.7312
14737TIP3   OH265625   3.870   5.918   5.513  0.1032 -0.1288 -0.3643
14737TIP3    H165626   3.936   5.869   5.562  0.8871 -0.4379 -1.7249
14737TIP3    H265627   3.874   5.882   5.425  0.3736  2.0735 -1.2668
14738TIP3   OH265628   4.023   0.147   6.176 -0.2484 -0.2779  0.2787
14738TIP3    H165629   3.973   0.076   6.215 -0.3699 -0.9371 -1.0481
14738TIP3    H265630   4.057   0.196   6.250 -1.9136 -0.4868  1.2043
14739TIP3   OH265631   5.871   4.632   5.588  0.7135  0.2719  0.5280
14739TIP3    H165632   5.953   4.603   5.547 -0.0549 -1.9343  0.5059
14739TIP3    H265633   5.803   4.580   5.545 -0.4202  0.0672  2.5217
14740TIP3   OH265634   0.855   0.105  15.187  0.5098  0.0134 -0.0223
14740TIP3    H165635   0.775   0.072  15.147  0.0538 -0.6703  1.4143
14740TIP3    H265636   0.920   0.102  15.117  0.0428 -2.3157 -0.3903
14741TIP3   OH265637   6.488   0.122  13.245  0.0064  0.1105 -0.0075
14741TIP3    H165638   6.477   0.216  13.254  1.4629  0.2328  0.6926
14741TIP3    H265639   6.487   0.088  13.335  0.0593 -0.4645 -0.2169
14742TIP3   OH265640   3.628   6.324   0.794  0.3571  0.3230  0.5081
14742TIP3    H165641   3.551   6.278   0.828  0.1629  0.2650 -0.0120
14742TIP3    H265642   3.645   6.392   0.859  0.7376 -0.5648  1.3472
14743TIP3   OH265643   0.535   5.332  15.495 -0.3443  0.4374 -0.0527
14743TIP3    H165644   0.582   5.383  15.429  1.6849  1.8759  2.4171
14743TIP3    H265645   0.481   5.397  15.541 -2.5579 -0.7267 -0.9510
14744TIP3   OH265646   1.594   1.437  13.376  0.0516  0.1595 -0.2379
14744TIP3    H165647   1.649   1.359  13.366  0.0380  0.2128 -0.7595
14744TIP3    H265648   1.653   1.510  13.356  0.3517  0.3607  1.3172
14745TIP3   OH265649   0.295   6.172  13.649 -0.2301 -0.1738  0.1586
14745TIP3    H165650   0.223   6.121  13.613  0.4710 -2.4787  1.8938
14745TIP3    H265651   0.340   6.112  13.708  2.0242  1.7766  0.5124
14746TIP3   OH265652   1.919   0.635   1.326  0.5696  0.0780  0.0255
14746TIP3    H165653   2.011   0.639   1.299  0.6328 -1.6113 -0.0442
14746TIP3    H265654   1.916   0.685   1.407  1.6664 -0.3193  0.3167
14747TIP3   OH265655   1.382   2.319  13.905  0.3077 -0.4008 -0.4417
14747TIP3    H165656   1.434   2.367  13.841  0.6127 -0.0320  0.0757
14747TIP3    H265657   1.385   2.228  13.875  0.9005 -0.3169 -0.6556
14748TIP3   OH265658   4.458   3.163  13.781  0.6237 -0.4489  0.6139
14748TIP3    H165659   4.431   3.166  13.689  0.7703  0.1067  0.5882
14748TIP3    H265660   4.509   3.083  13.788  0.7477 -0.4095  0.1700
14749TIP3   OH265661   0.265   5.721  15.734  0.1910 -0.1920 -0.0304
14749TIP3    H165662   0.284   5.793  15.674  0.8132 -0.8095 -0.5904
14749TIP3    H265663   0.173   5.700  15.719  0.3672 -0.3963 -0.8341
14750TIP3   OH265664   2.446   2.514  12.107 -0.4151 -0.5063 -0.3855
14750TIP3    H165665   2.469   2.589  12.052  0.0466 -0.1031  0.3457
14750TIP3    H265666   2.530   2.475  12.130 -0.7485 -2.7813 -2.8274
14751TIP3   OH265667   1.531   0.973   1.752  0.2432 -0.0009  0.2013
14751TIP3    H165668   1.480   0.978   1.671  1.3299 -1.8083 -0.6354
14751TIP3    H265669   1.529   0.880   1.776  0.5430  0.4015  1.8559
14752TIP3   OH265670   1.588   5.241   2.551  0.1087 -0.1928  0.7897
14752TIP3    H165671   1.500   5.242   2.514 -0.2154  1.1210  1.5489
14752TIP3    H265672   1.584   5.174   2.619  0.1719 -1.2763 -0.2509
14753TIP3   OH265673   4.946   1.534  16.674 -0.6072  0.4717 -0.4161
14753TIP3    H165674   4.883   1.601  16.699 -1.1747 -0.2610  0.1196
14753TIP3    H265675   5.029   1.564  16.712 -0.7898  1.0284 -0.4460
14754TIP3   OH265676   6.615   4.746   1.998  0.2080 -0.3020  0.0040
14754TIP3    H165677   6.593   4.791   1.917  0.5923  0.5948  0.3837
14754TIP3    H265678   6.559   4.668   1.999 -1.0481  0.5821 -0.2830
14755TIP3   OH265679   4.342   5.711  14.309  0.0561  0.2382 -0.1416
14755TIP3    H165680   4.389   5.637  14.347 -0.0917  0.2461  0.0574
14755TIP3    H265681   4.394   5.737  14.234  0.8248  0.8022  0.5796
14756TIP3   OH265682   1.128   4.258  16.006 -0.2393 -0.9255 -0.0819
14756TIP3    H165683   1.061   4.220  16.063 -0.0531  0.5184  1.1413
14756TIP3    H265684   1.210   4.223  16.039  0.0151  1.1401  1.6227
14757TIP3   OH265685   0.936   6.763   6.108  0.1296 -0.6006 -0.0852
14757TIP3    H165686   0.885   6.683   6.121 -0.2011 -0.3100  0.3853
14757TIP3    H265687   1.022   6.731   6.078 -0.5482 -1.0505 -1.5846
14758TIP3   OH265688   4.353   3.696   2.209 -0.5069  0.2059  0.1605
14758TIP3    H165689   4.368   3.751   2.285 -0.5123  1.4772 -0.7530
14758TIP3    H265690   4.293   3.745   2.154 -2.2650 -1.6608  0.3333
14759TIP3   OH265691   4.223   0.091  16.401  0.3525 -0.2226  0.1083
14759TIP3    H165692   4.225   0.027  16.330  1.0338 -0.5054  0.3797
14759TIP3    H265693   4.146   0.145  16.382 -0.7159 -1.6330  0.3156
14760TIP3   OH265694   4.948   4.897   1.321  0.0828 -0.4966  0.1087
14760TIP3    H165695   4.928   4.979   1.276  0.5088 -0.9366 -0.9174
14760TIP3    H265696   4.919   4.829   1.260 -1.0235 -1.1071  1.3009
14761TIP3   OH265697   0.612   3.423   2.518  0.0680 -0.1925  0.3432
14761TIP3    H165698   0.699   3.410   2.556  0.6077  0.5098 -0.6651
14761TIP3    H265699   0.626   3.429   2.424 -1.0301  0.2932  0.1955
14762TIP3   OH265700   6.081   1.402  16.970  0.2822 -0.1852 -0.6171
14762TIP3    H165701   6.061   1.311  16.947 -1.3020  0.0871 -0.4165
14762TIP3    H265702   6.155   1.396  17.030 -1.5655 -1.5974  1.6679
14763TIP3   OH265703   5.837   6.175  16.996 -0.5400  0.0616  0.3307
14763TIP3    H165704   5.902   6.242  16.974  2.0569 -1.8138  1.9886
14763TIP3    H265705   5.874   6.094  16.962 -2.5932 -0.8875  0.3231
14764TIP3   OH265706   6.462   4.994  17.036 -0.7923 -0.0488  0.4352
14764TIP3    H165707   6.518   5.041  16.974 -0.8184 -0.2694  0.2420
14764TIP3    H265708   6.374   5.026  17.018 -0.8474 -0.3974  0.1018
14765TIP3   OH265709   5.538   6.262   3.426 -0.4109  0.2485  0.5061
14765TIP3    H165710   5.454   6.306   3.432 -1.0566 -0.7028 -1.2630
14765TIP3    H265711   5.598   6.329   3.393 -0.4560  0.9184  1.7441
14766TIP3   OH265712   0.102   3.173  14.337  0.3985 -0.1294 -0.2140
14766TIP3    H165713   0.021   3.140  14.298 -0.6739  0.8630  1.1058
14766TIP3    H265714   0.162   3.099  14.333  0.4127 -0.0055 -3.8425
14767TIP3   OH265715   0.869   3.400   2.636  0.3640 -0.6839 -0.4909
14767TIP3    H165716   0.836   3.312   2.619  0.3915 -0.4315 -1.8563
14767TIP3    H265717   0.946   3.409   2.580  0.7928 -0.0533  0.1834
14768TIP3   OH265718   0.962   0.988  17.116  0.0859  0.0158  0.0809
14768TIP3    H165719   0.887   1.039  17.086  0.7050  1.4008  0.8302
14768TIP3    H265720   0.930   0.937  17.190 -0.9896 -2.0431 -1.7762
14769TIP3   OH265721   6.466   0.672  10.397  0.1660 -0.2671 -0.4369
14769TIP3    H165722   6.429   0.742  10.344  1.9670  0.8263 -0.3261
14769TIP3    H265723   6.392   0.635  10.444 -0.9587  0.9604 -1.2178
14770TIP3   OH265724   0.551   6.302  15.177 -0.1946  0.0524 -0.7682
14770TIP3    H165725   0.628   6.263  15.137 -1.2556 -0.5487 -2.2741
14770TIP3    H265726   0.524   6.371  15.116 -1.1775 -0.1379 -0.5718
14771TIP3   OH265727   5.077   0.827   1.079 -0.3147  0.2430  0.0296
14771TIP3    H165728   4.994   0.790   1.109  0.9358 -1.0590  2.0184
14771TIP3    H265729   5.144   0.778   1.128  1.5692  2.0823 -0.6385
14772TIP3   OH265730   0.764   2.869  16.993  0.1531  0.2742  0.2450
14772TIP3    H165731   0.851   2.834  16.972 -0.6412 -1.1023 -0.7997
14772TIP3    H265732   0.728   2.808  17.056 -0.7464 -0.1128 -0.6406
14773TIP3   OH265733   3.607   6.170   6.956 -0.5601 -0.7200  0.1594
14773TIP3    H165734   3.560   6.205   6.880 -1.3394  0.7691  1.2853
14773TIP3    H265735   3.698   6.195   6.942 -0.5306 -1.3403 -0.7785
14774TIP3   OH265736   2.386   3.272  12.988  0.2998  0.1100  0.3384
14774TIP3    H165737   2.414   3.286  13.078  0.1452 -2.1925  0.7965
14774TIP3    H265738   2.468   3.261  12.939  0.3397 -1.5645  0.7532
14775TIP3   OH265739   6.322   2.765  14.213 -0.4190 -0.0810 -0.1899
14775TIP3    H165740   6.274   2.834  14.260  0.3144  0.6415 -0.4869
14775TIP3    H265741   6.396   2.746  14.270 -0.5460 -0.5277 -0.1764
14776TIP3   OH265742   4.876   2.455   5.098  0.0807 -0.9121  0.3505
14776TIP3    H165743   4.835   2.423   5.018  2.9185 -2.2768 -0.6163
14776TIP3    H265744   4.876   2.379   5.157  0.3328 -0.6469  0.6971
14777TIP3   OH265745   0.730   3.968  12.159 -0.0977 -0.6331 -0.3174
14777TIP3    H165746   0.658   3.979  12.221 -0.1290  0.6978 -0.5931
14777TIP3    H265747   0.784   3.899  12.198 -0.0382  0.2764  1.2521
14778TIP3   OH265748   1.772   1.509  14.670  0.3033 -0.7160  0.0761
14778TIP3    H165749   1.753   1.493  14.578 -2.6601 -1.0625  0.6979
14778TIP3    H265750   1.868   1.503  14.676  0.4630 -1.8934 -2.7242
14779TIP3   OH265751   3.385   0.808  11.906 -0.0570 -0.5091  0.7147
14779TIP3    H165752   3.300   0.773  11.879 -0.1032  1.5792 -2.0699
14779TIP3    H265753   3.364   0.878  11.968 -0.3095 -0.8059  0.9609
14780TIP3   OH265754   5.764   2.676  15.795 -0.5670 -0.3115  0.1176
14780TIP3    H165755   5.809   2.674  15.880 -0.8730  0.4354  0.3035
14780TIP3    H265756   5.707   2.599  15.797  1.2558 -1.7058 -0.4382
14781TIP3   OH265757   5.999   1.492  14.183  0.5969 -0.5647  0.2661
14781TIP3    H165758   6.000   1.567  14.124  2.2348  0.0111  1.0021
14781TIP3    H265759   6.078   1.443  14.161  0.4473 -1.1312  0.9675
14782TIP3   OH265760   2.135   6.546  16.090 -0.3441  0.0341  0.0132
14782TIP3    H165761   2.140   6.639  16.113 -1.4557  0.5138 -1.5999
14782TIP3    H265762   2.173   6.501  16.165 -1.3520  1.6892  1.5651
14783TIP3   OH265763   4.488   6.016  12.509  0.0442  0.1836  0.4752
14783TIP3    H165764   4.470   5.941  12.565  1.2075  1.1335  2.1803
14783TIP3    H265765   4.583   6.027  12.513  0.0257  0.9441 -0.8057
14784TIP3   OH265766   1.135   5.282   6.297 -0.0899  0.0369 -0.3816
14784TIP3    H165767   1.079   5.254   6.224  0.2414 -0.5921 -0.4004
14784TIP3    H265768   1.212   5.226   6.290  0.5906  0.9836 -0.4248
14785TIP3   OH265769   3.540   0.900  10.617  0.2021 -0.2315  0.3032
14785TIP3    H165770   3.514   0.808  10.608 -0.2382 -0.3271  2.3200
14785TIP3    H265771   3.624   0.906  10.572 -1.6283 -0.6912 -3.4170
14786TIP3   OH265772   3.538   1.574  15.830  0.1441 -0.3096  0.6290
14786TIP3    H165773   3.459   1.520  15.843 -1.1525  1.1967 -0.7620
14786TIP3    H265774   3.506   1.664  15.837  1.4671  0.3423 -1.3945
14787TIP3   OH265775   2.936   1.071   4.324 -0.0474  0.5143  0.1637
14787TIP3    H165776   2.981   1.129   4.386  1.2336  1.5104 -1.6321
14787TIP3    H265777   2.890   1.132   4.265  0.5587 -0.3329 -1.1909
14788TIP3   OH265778   0.438   5.825  14.560 -0.0422 -0.3070 -0.0641
14788TIP3    H165779   0.433   5.920  14.559 -0.3181 -0.3093  0.8139
14788TIP3    H265780   0.503   5.805  14.627  0.1497 -0.7369 -0.3727
14789TIP3   OH265781   5.415   3.505   0.175  0.3296 -0.3371  1.1485
14789TIP3    H165782   5.460   3.493   0.091  1.1418 -2.0936  1.8109
14789TIP3    H265783   5.370   3.589   0.166  1.1165 -0.0847 -0.7222
14790TIP3   OH265784   5.411   5.419   5.525  0.1486 -0.0529 -0.2842
14790TIP3    H165785   5.376   5.419   5.614 -3.4235 -0.6683 -1.6142
14790TIP3    H265786   5.374   5.341   5.484  3.1835 -0.7754 -1.8277
14791TIP3   OH265787   0.310   0.471  12.746 -0.3076  0.3090  0.4635
14791TIP3    H165788   0.246   0.502  12.682  0.4451 -0.5860 -0.7395
14791TIP3    H265789   0.336   0.549  12.794 -0.5806  1.0586 -0.5968
14792TIP3   OH265790   5.155   3.021  12.960  0.0619 -0.2186 -0.1433
14792TIP3    H165791   5.207   3.012  13.039 -0.1485 -1.0764 -0.0934
14792TIP3    H265792   5.107   2.938  12.953 -0.2086 -0.0023 -0.9549
14793TIP3   OH265793   2.636   3.104   3.379 -0.1651  0.2125  0.3574
14793TIP3    H165794   2.731   3.107   3.365 -0.1474 -0.1437  0.3988
14793TIP3    H265795   2.600   3.154   3.306  0.0604  0.4528  0.4088
14794TIP3   OH265796   2.775   5.897   2.570 -0.1860  0.3500  0.4362
14794TIP3    H165797   2.757   5.943   2.488 -0.1424 -0.3292  0.0348
14794TIP3    H265798   2.711   5.825   2.570  0.5568 -0.3155  0.4541
14795TIP3   OH265799   4.842   3.181  16.616 -0.2293 -0.3994  0.4510
14795TIP3    H165800   4.850   3.239  16.541 -0.4986 -0.5018  0.3408
14795TIP3    H265801   4.882   3.098  16.588  0.6231 -0.1026  0.7852
14796TIP3   OH265802   5.822   2.667  16.071 -0.1440 -0.4185  0.1085
14796TIP3    H165803   5.749   2.607  16.059  1.5483 -2.5080 -0.0899
14796TIP3    H265804   5.863   2.639  16.153 -0.7703  2.0421  1.2853
14797TIP3   OH265805   0.226   0.248   2.861 -0.2515  0.8550  0.3029
14797TIP3    H165806   0.256   0.198   2.785 -1.6412  0.2048  0.1704
14797TIP3    H265807   0.138   0.277   2.837 -1.1743 -0.3842  2.1401
14798TIP3   OH265808   4.923   1.704   4.378 -0.1936 -0.3003 -0.2389
14798TIP3    H165809   4.882   1.632   4.330  0.7973 -1.1044  0.0924
14798TIP3    H265810   4.916   1.780   4.320  3.9112 -1.9610 -3.1590
14799TIP3   OH265811   5.210   4.559  14.223 -0.0254  0.0696 -0.5860
14799TIP3    H165812   5.209   4.529  14.314  1.9811  0.9533 -0.2386
14799TIP3    H265813   5.259   4.492  14.176  0.5847  0.5427 -0.6401
14800TIP3   OH265814   3.822   5.305   1.911 -0.0816 -0.0532 -0.4613
14800TIP3    H165815   3.830   5.377   1.849  0.0283 -1.0873 -1.6724
14800TIP3    H265816   3.735   5.268   1.893 -0.7895  0.7447  1.2289
14801TIP3   OH265817   1.829   3.282   5.004 -0.1626  0.3473 -0.1444
14801TIP3    H165818   1.840   3.343   4.932  1.4095 -0.2782 -0.4617
14801TIP3    H265819   1.887   3.315   5.073  0.0545 -0.3082 -0.0087
14802TIP3   OH265820   5.132   5.377   5.303  0.0808 -0.3458 -0.0217
14802TIP3    H165821   5.108   5.284   5.305  2.0081 -0.9018 -1.6156
14802TIP3    H265822   5.050   5.421   5.280 -1.0003 -1.5695  1.3214
14803TIP3   OH265823   2.348   3.002   5.149  0.0762  0.0997 -0.0759
14803TIP3    H165824   2.408   3.064   5.192  0.4652  0.0336 -0.5074
14803TIP3    H265825   2.321   2.942   5.218 -1.1292  1.3770  0.5876
14804TIP3   OH265826   3.567   4.350   5.811  0.3431  0.2236 -0.9609
14804TIP3    H165827   3.553   4.436   5.851  0.0153 -0.2838  0.0583
14804TIP3    H265828   3.486   4.301   5.831 -0.3938  0.3838 -3.4340
14805TIP3   OH265829   0.744   1.902   0.071 -0.3177 -0.3506  0.2588
14805TIP3    H165830   0.690   1.897  -0.007  0.1635 -0.5451 -0.0634
14805TIP3    H265831   0.802   1.825   0.065 -0.0572 -0.1841  0.6327
14806TIP3   OH265832   2.164   4.058   1.239 -0.0109 -0.5804 -0.4471
14806TIP3    H165833   2.255   4.036   1.256  0.6892  0.5694 -2.4349
14806TIP3    H265834   2.142   4.123   1.306  0.1962 -1.8202  0.8500
14807TIP3   OH265835   5.910   1.130   2.748 -0.0447 -0.5327  0.0705
14807TIP3    H165836   5.817   1.112   2.755 -0.7748  2.2629 -1.8245
14807TIP3    H265837   5.925   1.204   2.807  0.9847 -0.9787  0.3892
14808TIP3   OH265838   5.968   1.177  16.606  0.5248 -0.5454  0.3735
14808TIP3    H165839   5.975   1.157  16.512 -0.8592 -1.5086  0.4518
14808TIP3    H265840   6.053   1.214  16.629  0.9916 -0.5824 -1.1973
14809TIP3   OH265841   3.640   6.780  10.894 -0.1183  0.9267  0.0889
14809TIP3    H165842   3.734   6.781  10.877 -0.2894 -0.0122 -0.9909
14809TIP3    H265843   3.622   6.863  10.937  1.1860  1.1580  0.2045
14810TIP3   OH265844   4.847   1.497   3.573 -0.4334 -0.5371 -0.1775
14810TIP3    H165845   4.777   1.540   3.621  0.7123 -0.0935  1.1480
14810TIP3    H265846   4.847   1.407   3.606  0.7396 -0.0788  1.1439
14811TIP3   OH265847   1.026   4.020   0.943  0.0457  0.2942  0.1809
14811TIP3    H165848   1.018   4.057   0.854  1.8984  0.1881 -0.0540
14811TIP3    H265849   1.120   4.004   0.953  0.0317  1.7058  2.7418
14812TIP3   OH265850   2.744   1.974   4.735  0.8465  0.0859 -0.0134
14812TIP3    H165851   2.803   1.900   4.744  0.4925 -0.2551 -0.4948
14812TIP3    H265852   2.788   2.032   4.672  1.1679  0.3348  0.4352
14813TIP3   OH265853   2.038   0.066   0.471 -0.2698 -0.7339 -0.4268
14813TIP3    H165854   1.948   0.068   0.505 -0.3356 -1.3693 -0.5588
14813TIP3    H265855   2.027   0.074   0.376 -0.1234  0.3278 -0.3649
14814TIP3   OH265856   5.242   4.142   3.017 -0.9328  0.2834  0.4402
14814TIP3    H165857   5.240   4.234   2.990 -2.0624 -0.0795 -0.7067
14814TIP3    H265858   5.214   4.143   3.109 -1.1380  1.0478  0.3679
14815TIP3   OH265859   4.934   5.176   5.015 -0.0727 -0.1932 -0.5004
14815TIP3    H165860   4.953   5.259   4.971  0.8825 -0.8277 -1.2862
14815TIP3    H265861   5.019   5.133   5.023 -0.5308 -0.9880  0.1421
14816TIP3   OH265862   3.476   0.764  17.064  1.0410 -0.3242 -0.1029
14816TIP3    H165863   3.448   0.673  17.057  0.3501  0.0305 -2.4984
14816TIP3    H265864   3.405   0.807  17.113 -0.3725 -0.4095 -1.9912
14817TIP3   OH265865   3.816   5.564   0.477 -0.3118  0.2648  0.0135
14817TIP3    H165866   3.771   5.594   0.556  1.8690 -0.3843  1.5438
14817TIP3    H265867   3.861   5.484   0.504  3.6048  2.0740 -0.8085
14818TIP3   OH265868   0.728   0.357   0.988 -0.3852 -0.2031  0.5045
14818TIP3    H165869   0.723   0.276   1.040 -0.4423 -0.7654 -0.3607
14818TIP3    H265870   0.758   0.328   0.902  0.9338  0.8835  0.5789
14819TIP3   OH265871   3.969   6.759   0.339 -0.5519  0.5501 -0.4821
14819TIP3    H165872   3.971   6.791   0.249  1.1087  0.6792 -0.4091
14819TIP3    H265873   3.945   6.835   0.391 -0.8758  0.6341 -0.7557
14820TIP3   OH265874   6.410   3.748  11.616 -0.3448 -0.4658  0.5263
14820TIP3    H165875   6.365   3.665  11.635  0.9779 -1.4631 -0.5494
14820TIP3    H265876   6.354   3.815  11.654 -1.0386 -1.9122  2.1422
14821TIP3   OH265877   4.212   5.900  11.423  0.6554 -0.0155 -0.9557
14821TIP3    H165878   4.150   5.833  11.394 -1.0153  0.5668  1.1288
14821TIP3    H265879   4.163   5.982  11.420  1.2963  0.4627  0.6537
14822TIP3   OH265880   1.031   1.632  13.665 -0.2620  0.3238 -0.1085
14822TIP3    H165881   1.017   1.559  13.604 -1.0039 -1.3637  2.0178
14822TIP3    H265882   0.947   1.644  13.708  1.1206 -0.9410  3.1486
14823TIP3   OH265883   4.319   3.689  15.880 -0.2729  0.1714 -0.3351
14823TIP3    H165884   4.277   3.605  15.901 -0.0459  0.1857  0.1784
14823TIP3    H265885   4.404   3.685  15.924 -0.2493  0.6614 -0.3324
14824TIP3   OH265886   3.132   4.995   5.363 -0.0104 -0.0434  0.1083
14824TIP3    H165887   3.167   4.917   5.319  0.3780  0.7539 -1.0097
14824TIP3    H265888   3.042   5.001   5.331 -0.5273 -0.8912  1.3677
14825TIP3   OH265889   3.324   6.514  14.642 -0.5499  0.1131 -0.1513
14825TIP3    H165890   3.405   6.555  14.613 -0.4528  0.4613  0.5955
14825TIP3    H265891   3.330   6.424  14.610 -1.2756  0.9479 -2.7817
14826TIP3   OH265892   5.963   1.944  10.953  0.2482  0.0514  0.2596
14826TIP3    H165893   5.987   1.990  10.873 -0.4441  0.0091  0.0245
14826TIP3    H265894   5.889   1.995  10.989  1.4646  0.9072  1.6249
14827TIP3   OH265895   2.461   3.687   3.347  0.3619 -0.2017 -0.5879
14827TIP3    H165896   2.427   3.683   3.436 -0.0742 -0.2647 -0.7571
14827TIP3    H265897   2.440   3.776   3.317  0.8170 -0.0631 -0.5085
14828TIP3   OH265898   0.308   2.095  14.762 -0.1061  0.2444  0.5234
14828TIP3    H165899   0.357   2.097  14.844  2.8634  1.8432 -1.1884
14828TIP3    H265900   0.372   2.067  14.697 -2.0870  0.1446 -1.4361
14829TIP3   OH265901   0.806   4.188   2.719 -0.4387  0.4136  0.3266
14829TIP3    H165902   0.723   4.226   2.690 -0.9844 -2.1308 -1.5676
14829TIP3    H265903   0.871   4.257   2.701 -1.4448  0.6547 -2.6783
14830TIP3   OH265904   1.518   5.532   0.372 -0.2586 -0.3840  0.4501
14830TIP3    H165905   1.477   5.504   0.454  1.6026 -2.3572  0.7226
14830TIP3    H265906   1.519   5.454   0.317  0.4959  0.3898 -0.6585
14831TIP3   OH265907   1.639   0.980   2.558 -0.0029 -0.3378  0.0638
14831TIP3    H165908   1.721   0.939   2.528 -0.0540 -0.2823 -0.1502
14831TIP3    H265909   1.662   1.019   2.643 -0.3682 -2.2141  1.0624
14832TIP3   OH265910   3.091   4.622   1.231  0.1565  0.7954 -0.2419
14832TIP3    H165911   3.148   4.694   1.202  1.9970  0.1165  1.5378
14832TIP3    H265912   3.112   4.550   1.172 -0.9704  1.3966 -1.4017
14833TIP3   OH265913   2.431   3.700   2.749 -0.8674  0.0163  0.0037
14833TIP3    H165914   2.487   3.777   2.739  1.4932 -1.6244  0.1343
14833TIP3    H265915   2.365   3.709   2.680 -0.0457  1.6431 -0.6089
14834TIP3   OH265916   4.749   0.797  15.221  0.0908  0.2685 -0.4174
14834TIP3    H165917   4.677   0.765  15.276  0.4430 -1.2030 -0.7869
14834TIP3    H265918   4.735   0.755  15.137  1.4458 -0.1194 -0.4601
14835TIP3   OH265919   0.363   6.755   0.487  0.0368 -0.0881  0.8157
14835TIP3    H165920   0.295   6.807   0.531 -0.8768 -0.6850  0.1284
14835TIP3    H265921   0.320   6.672   0.467  1.6425 -1.3761  2.4526
14836TIP3   OH265922   3.333   4.722   4.103  0.1505 -0.4221 -0.9282
14836TIP3    H165923   3.307   4.781   4.032 -0.3815 -0.5697 -0.8568
14836TIP3    H265924   3.370   4.646   4.058  2.5738  0.7560 -0.9873
14837TIP3   OH265925   4.674   3.098   5.048 -0.5212  0.0873 -0.3154
14837TIP3    H165926   4.726   3.056   4.980 -0.3968  0.5104 -0.4784
14837TIP3    H265927   4.585   3.063   5.035 -0.3227 -0.5036 -0.1376
14838TIP3   OH265928   5.189   2.824  11.823 -0.2738  0.0944  0.3209
14838TIP3    H165929   5.194   2.801  11.730 -1.6611 -0.4472  0.3670
14838TIP3    H265930   5.183   2.740  11.868 -0.6065  0.3881  0.8249
14839TIP3   OH265931   5.456   2.544  16.453  0.0549 -0.4540 -0.7594
14839TIP3    H165932   5.469   2.621  16.399  2.3729  0.6257  1.2265
14839TIP3    H265933   5.538   2.495  16.446  0.0194 -0.7940  0.9439
14840TIP3   OH265934   5.261   5.241  13.105  0.1179 -0.0318  0.2498
14840TIP3    H165935   5.279   5.308  13.171  0.0322  0.3302 -0.0904
14840TIP3    H265936   5.314   5.266  13.030  0.4241 -0.5968  0.2737
14841TIP3   OH265937   0.443   4.367  14.808  0.2475 -1.0876  0.2504
14841TIP3    H165938   0.398   4.379  14.724  2.0512 -0.8669 -0.7083
14841TIP3    H265939   0.379   4.321  14.863 -1.4270 -0.0583 -0.8075
14842TIP3   OH265940   0.703   3.423  11.623  0.5712 -0.6693 -0.0727
14842TIP3    H165941   0.780   3.368  11.636  0.5029 -0.2551  2.3389
14842TIP3    H265942   0.646   3.403  11.696 -0.5174  0.8565 -0.4698
14843TIP3   OH265943   1.220   2.019  17.020 -0.1105 -0.2168 -0.1755
14843TIP3    H165944   1.274   1.953  16.975  1.8011  1.4408 -0.3929
14843TIP3    H265945   1.281   2.062  17.080 -0.9180  2.4407 -1.2132
14844TIP3   OH265946   1.829   3.171  13.781 -0.0343  0.4586 -0.5038
14844TIP3    H165947   1.816   3.265  13.774  0.3756  0.4303 -1.9186
14844TIP3    H265948   1.924   3.160  13.791  0.1568  0.1284 -2.3992
14845TIP3   OH265949   4.376   1.849  16.737 -0.3886  0.3696 -0.1781
14845TIP3    H165950   4.418   1.931  16.763  2.9236 -1.1084 -0.5566
14845TIP3    H265951   4.322   1.824  16.813  2.0271  0.7174  1.7122
14846TIP3   OH265952   4.105   3.929   2.044  0.3322  0.1446 -0.3570
14846TIP3    H165953   4.016   3.957   2.026  1.1416  1.4659 -2.5402
14846TIP3    H265954   4.111   3.841   2.006 -0.2045 -0.2050  0.3568
14847TIP3   OH265955   5.588   1.470  14.114 -0.8201  0.0111 -0.0713
14847TIP3    H165956   5.663   1.474  14.173 -1.4506  1.5873  0.6359
14847TIP3    H265957   5.579   1.559  14.081 -2.5465 -0.1066  0.0583
14848TIP3   OH265958   1.890   5.094  17.059 -0.0967  0.3015 -0.1079
14848TIP3    H165959   1.940   5.029  17.109  0.3704  1.0551  0.4217
14848TIP3    H265960   1.957   5.146  17.014 -0.5298 -0.5417 -1.7368
14849TIP3   OH265961   0.584   5.570  14.511  0.2633  0.8193  0.3381
14849TIP3    H165962   0.546   5.621  14.584  0.4657 -0.4901  1.3746
14849TIP3    H265963   0.518   5.504  14.491  0.8325  0.2520  0.3166
14850TIP3   OH265964   2.633   0.882  12.946  0.5139  0.4091  0.1880
14850TIP3    H165965   2.718   0.858  12.908  0.5702  0.1279  0.4917
14850TIP3    H265966   2.576   0.807  12.927  0.8347 -0.2162  1.6123
14851TIP3   OH265967   2.981   1.784   5.921  0.0972 -0.0686  0.1305
14851TIP3    H165968   2.993   1.870   5.962  1.6310 -0.5323  0.6980
14851TIP3    H265969   3.044   1.783   5.849  0.3860 -0.8950  0.3995
14852TIP3   OH265970   1.087   2.527   0.903  0.4856 -1.3059  0.0226
14852TIP3    H165971   1.098   2.439   0.940  1.0540 -0.4128  2.0322
14852TIP3    H265972   1.028   2.571   0.963 -0.0786 -0.3979 -1.1704
14853TIP3   OH265973   4.101   0.947   1.034 -0.3073 -0.0284 -0.2317
14853TIP3    H165974   4.028   0.961   0.974 -0.1181 -0.0429 -0.4670
14853TIP3    H265975   4.076   0.870   1.085 -0.7645  0.3808  0.1634
14854TIP3   OH265976   2.817   2.187  15.821 -0.5514 -0.4357 -0.2561
14854TIP3    H165977   2.873   2.185  15.899 -0.6030  2.1106 -0.0964
14854TIP3    H265978   2.878   2.174  15.748  0.2601  1.9643 -0.0641
14855TIP3   OH265979   0.871   6.110   3.318  0.6325  0.1338  0.2425
14855TIP3    H165980   0.926   6.182   3.288  0.3297  0.0595 -0.5039
14855TIP3    H265981   0.807   6.151   3.376 -0.4037  0.6922 -1.2658
14856TIP3   OH265982   3.130   6.429  11.465 -0.6031  0.7084 -0.3225
14856TIP3    H165983   3.171   6.424  11.551 -1.5213  1.7449  0.1841
14856TIP3    H265984   3.173   6.361  11.413  0.9049  0.9949  0.5544
14857TIP3   OH265985   1.800   0.342   5.371  0.3174 -0.3876 -0.2148
14857TIP3    H165986   1.790   0.437   5.370  0.6868 -0.3360  0.4234
14857TIP3    H265987   1.894   0.328   5.382  0.2055 -0.8200  0.2153
14858TIP3   OH265988   4.076   6.691   2.586 -0.1550  0.3789  0.0027
14858TIP3    H165989   3.997   6.745   2.590 -0.8288 -0.5183 -0.9676
14858TIP3    H265990   4.079   6.660   2.495  0.4804 -0.8320  0.4322
14859TIP3   OH265991   3.180   2.519  16.958  0.0818 -0.8470  0.0546
14859TIP3    H165992   3.259   2.465  16.952  0.6365 -0.0022 -0.3192
14859TIP3    H265993   3.204   2.602  16.917 -0.3655  0.1352  1.6994
14860TIP3   OH265994   1.293   4.088  13.877 -0.0418 -0.7358  0.1661
14860TIP3    H165995   1.323   4.153  13.941  0.2784 -0.7130 -0.0017
14860TIP3    H265996   1.289   4.007  13.926 -0.0586 -0.6648  0.2830
14861TIP3   OH265997   4.601   1.983   3.768 -0.2753  0.2338  0.9698
14861TIP3    H165998   4.518   1.936   3.772 -0.5207  0.5627 -0.1309
14861TIP3    H265999   4.581   2.070   3.802 -0.9039  1.0114 -1.2951
14862TIP3   OH266000   4.467   3.152   6.476  0.3177  0.2142  0.1082
14862TIP3    H166001   4.479   3.058   6.491  0.5083  0.2278  0.0390
14862TIP3    H266002   4.526   3.194   6.538  1.7057  0.2598 -1.2287
14863TIP3   OH266003   2.706   1.439   4.584  0.3253 -0.3334 -0.2113
14863TIP3    H166004   2.742   1.356   4.614  1.7551  0.3918  0.1290
14863TIP3    H266005   2.656   1.472   4.658 -0.9709 -1.2922 -0.6444
14864TIP3   OH266006   0.400   1.321   0.961 -0.1905  0.2204  0.4166
14864TIP3    H166007   0.383   1.415   0.958 -0.2791  0.2231  0.9901
14864TIP3    H266008   0.420   1.303   1.053  1.0414 -0.1069  0.1031
14865TIP3   OH266009   0.335   1.915  16.591  0.4593 -0.3923  0.2392
14865TIP3    H166010   0.336   1.998  16.639  2.5562 -1.5665  2.3225
14865TIP3    H266011   0.250   1.877  16.610  0.1470  0.5010  0.6522
14866TIP3   OH266012   4.006   5.791   6.277  0.1050 -0.3463 -0.6087
14866TIP3    H166013   3.913   5.771   6.271  0.4035 -1.6118 -1.3416
14866TIP3    H266014   4.011   5.874   6.324 -1.3596 -0.5501 -0.0986
14867TIP3   OH266015   4.716   6.214  11.394  0.1083  0.3697 -0.0917
14867TIP3    H166016   4.741   6.181  11.481 -0.2269  2.7079  0.9344
14867TIP3    H266017   4.641   6.161  11.369  1.2390 -1.4521  0.2908
14868TIP3   OH266018   6.515   4.990  13.282 -0.3322  0.7157 -0.6098
14868TIP3    H166019   6.597   5.033  13.257 -0.7629  0.7523 -1.9893
14868TIP3    H266020   6.446   5.045  13.245 -0.9027 -0.9363 -2.0993
14869TIP3   OH266021   3.424   5.398   2.448 -0.2464 -0.2562  0.0270
14869TIP3    H166022   3.447   5.374   2.538  1.5379 -1.0735 -0.6330
14869TIP3    H266023   3.465   5.483   2.434 -0.3598 -0.2181 -0.0822
14870TIP3   OH266024   4.368   3.826   3.667 -0.2342 -0.0861 -0.0934
14870TIP3    H166025   4.381   3.918   3.692 -1.2528 -0.2074  0.9482
14870TIP3    H266026   4.280   3.805   3.700  0.3854 -1.7138  0.5513
14871TIP3   OH266027   4.570   0.740   3.968 -0.1476 -0.2202  0.1917
14871TIP3    H166028   4.597   0.799   4.038 -0.1759  1.5017 -1.2094
14871TIP3    H266029   4.482   0.769   3.944  0.1760 -0.2408 -1.0875
14872TIP3   OH266030   3.702   0.623  15.535 -0.1489 -0.0654  0.0710
14872TIP3    H166031   3.659   0.595  15.615 -0.6851 -1.1483 -0.5919
14872TIP3    H266032   3.786   0.659  15.564 -0.8933  0.7318  1.2238
14873TIP3   OH266033   1.724   4.270   5.779 -0.7608  0.8245 -0.2705
14873TIP3    H166034   1.747   4.355   5.817  1.6129  0.6962 -1.3358
14873TIP3    H266035   1.659   4.291   5.712 -0.7353  1.7270 -0.0211
14874TIP3   OH266036   4.723   2.350   2.693 -0.0936  0.0993 -0.0546
14874TIP3    H166037   4.668   2.411   2.644 -0.4226  1.0361  1.4615
14874TIP3    H266038   4.696   2.263   2.661 -2.0732  0.5655  0.2817
14875TIP3   OH266039   2.959   6.244  16.910  0.0343  0.4780  0.2099
14875TIP3    H166040   2.868   6.248  16.941 -1.1612  0.7845 -3.2090
14875TIP3    H266041   2.977   6.150  16.904  0.2334  0.4105  1.5806
14876TIP3   OH266042   0.089   1.792  16.567 -0.3952 -0.1468  0.0237
14876TIP3    H166043   0.081   1.701  16.596 -0.0101 -1.2046 -2.9550
14876TIP3    H266044   0.008   1.808  16.518 -0.3272  1.0144  0.2860
14877TIP3   OH266045   1.768   1.469   2.024 -0.0289 -0.6228 -0.3250
14877TIP3    H166046   1.844   1.518   1.993  0.4435 -0.4569  1.0727
14877TIP3    H266047   1.696   1.497   1.967 -0.3791  3.6574  2.0266
14878TIP3   OH266048   2.088   3.737  14.853 -0.2612 -0.0616  0.2690
14878TIP3    H166049   2.129   3.800  14.794 -1.3955  1.9199  1.5398
14878TIP3    H266050   2.072   3.660  14.799  1.4434  0.6036 -1.2379
14879TIP3   OH266051   5.565   3.791  15.581  0.1552 -0.1705  0.5669
14879TIP3    H166052   5.655   3.772  15.555  0.6460 -0.6750  2.5658
14879TIP3    H266053   5.556   3.885  15.566  1.0513 -0.0950  0.4515
14880TIP3   OH266054   6.615   3.158   4.473  0.2781  0.0717  0.1209
14880TIP3    H166055   6.598   3.072   4.512 -2.4457  0.5260  0.0637
14880TIP3    H266056   6.710   3.164   4.467  0.5426 -2.3904  1.3515
14881TIP3   OH266057   1.628   5.144  10.467 -0.8230  0.2108  0.0589
14881TIP3    H166058   1.584   5.135  10.551  0.4988  0.4930  0.7966
14881TIP3    H266059   1.691   5.215  10.480  0.1632 -0.4811 -0.8323
14882TIP3   OH266060   2.936   3.742   5.749 -0.1871 -0.4333  0.4455
14882TIP3    H166061   2.978   3.820   5.782 -1.7774 -0.1314  1.8094
14882TIP3    H266062   2.953   3.675   5.815  0.4713 -1.0353 -0.3212
14883TIP3   OH266063   6.186   1.840   4.505  0.3124 -0.2999 -0.4274
14883TIP3    H166064   6.141   1.755   4.506 -0.5455  0.1402  0.6335
14883TIP3    H266065   6.204   1.857   4.413 -1.5016 -0.6143 -0.8648
14884TIP3   OH266066   6.701   6.760  13.466  0.2723  0.3842  0.5100
14884TIP3    H166067   6.777   6.773  13.523 -0.2959 -0.7663  1.5665
14884TIP3    H266068   6.674   6.669  13.482  0.6475 -0.2614 -2.3193
14885TIP3   OH266069   0.307   2.735  15.333  0.4213 -0.6065 -0.0039
14885TIP3    H166070   0.243   2.797  15.297  0.5948 -0.6946 -0.4581
14885TIP3    H266071   0.269   2.649  15.316 -0.6946 -0.6125  2.2158
14886TIP3   OH266072   1.605   2.645  11.216 -0.2592  0.5320  0.2614
14886TIP3    H166073   1.639   2.665  11.129 -2.5696  0.8371 -0.6115
14886TIP3    H266074   1.604   2.549  11.220  1.2647  0.5156  0.5548
14887TIP3   OH266075   0.085   4.753   2.423  0.3913 -0.3724 -0.4070
14887TIP3    H166076   0.005   4.771   2.472 -0.6723 -0.6096 -2.0249
14887TIP3    H266077   0.065   4.779   2.333  2.8348  1.5506 -0.4711
14888TIP3   OH266078   6.010   1.326   3.747 -0.6043  0.3625  0.6544
14888TIP3    H166079   6.100   1.303   3.772  0.2272  0.6634 -1.9284
14888TIP3    H266080   6.005   1.421   3.760 -0.9560  0.1693  1.9856
14889TIP3   OH266081   4.876   4.928   4.372  0.0271  0.3873 -0.6469
14889TIP3    H166082   4.929   5.007   4.374 -0.7273  0.9029 -0.5574
14889TIP3    H266083   4.842   4.919   4.462 -0.8031  0.6020 -0.9296
14890TIP3   OH266084   4.839   3.909   5.693 -0.0274  0.2205 -0.2020
14890TIP3    H166085   4.867   3.819   5.709 -1.3200 -0.0739  0.4445
14890TIP3    H266086   4.839   3.950   5.780  1.2066  1.0564 -0.5724
14891TIP3   OH266087   3.685   1.998   5.455  0.0119 -0.4412  0.5396
14891TIP3    H166088   3.682   1.904   5.437 -2.7350 -1.0115  3.5816
14891TIP3    H266089   3.597   2.029   5.437  1.0082  1.6743 -0.8484
14892TIP3   OH266090   5.504   0.485   1.235 -0.3185  0.4528  0.2001
14892TIP3    H166091   5.531   0.576   1.227  0.3520  0.3255  0.8651
14892TIP3    H266092   5.442   0.471   1.164 -2.2937  2.1044  1.5404
14893TIP3   OH266093   2.160   5.727   2.077  0.4306  0.0085 -0.4167
14893TIP3    H166094   2.117   5.769   2.003 -0.9726  0.0343  0.3915
14893TIP3    H266095   2.212   5.656   2.038  2.0676  1.8624 -1.6811
14894TIP3   OH266096   1.954   0.975  13.664  0.4495  0.5200  0.1327
14894TIP3    H166097   1.982   1.046  13.606 -0.6610  0.2558 -0.7476
14894TIP3    H266098   1.911   0.913  13.606  1.2525 -0.7961  0.9353
14895TIP3   OH266099   0.888   2.522  14.840 -0.4733 -0.4086 -0.1681
14895TIP3    H166100   0.864   2.476  14.920  0.5056 -0.8216 -0.1053
14895TIP3    H266101   0.844   2.474  14.770  1.2074 -1.9648 -0.1907
14896TIP3   OH266102   4.290   2.581  14.709 -0.9291  0.0866 -0.2598
14896TIP3    H166103   4.357   2.632  14.754  0.6247  0.8962 -3.3726
14896TIP3    H266104   4.207   2.620  14.739 -0.1251 -0.9061  3.5844
14897TIP3   OH266105   4.011   3.499  16.048  0.1252 -0.3418 -0.3096
14897TIP3    H166106   3.949   3.428  16.064 -0.9311 -0.0980 -3.0535
14897TIP3    H266107   3.956   3.577  16.042  0.8741  0.1350 -1.0315
14898TIP3   OH266108   2.532   5.536  11.961 -1.3818  0.1215  0.2003
14898TIP3    H166109   2.470   5.609  11.969 -1.5702 -0.1052  0.8415
14898TIP3    H266110   2.570   5.527  12.049 -1.2243 -0.4358  0.0765
14899TIP3   OH266111   0.844   5.534   5.160 -0.0791  0.1168  1.1049
14899TIP3    H166112   0.902   5.603   5.194  0.1259  0.0233  0.9445
14899TIP3    H266113   0.894   5.494   5.089 -0.4086  0.1504  0.8530
14900TIP3   OH266114   4.584   5.706  13.202  0.2370 -0.3540  0.4919
14900TIP3    H166115   4.580   5.671  13.291 -0.6653 -0.1714  0.5278
14900TIP3    H266116   4.641   5.783  13.208  0.2696 -0.4127  0.8891
14901TIP3   OH266117   4.490   4.920  14.775  0.0405 -0.4947  0.2515
14901TIP3    H166118   4.560   4.953  14.832 -1.3409  0.3924  1.4896
14901TIP3    H266119   4.460   4.998  14.728  0.6954 -1.0975 -1.2055
14902TIP3   OH266120   3.896   4.385  12.289  0.3296  0.0469  0.2884
14902TIP3    H166121   3.878   4.441  12.213  0.5455 -1.3819 -0.8467
14902TIP3    H266122   3.988   4.362  12.280  0.1416 -0.8042  0.5165
14903TIP3   OH266123   3.127   4.405   4.287  0.4815  0.0650  0.2518
14903TIP3    H166124   3.135   4.496   4.313 -1.7839 -0.1399  1.8886
14903TIP3    H266125   3.032   4.390   4.281  0.8511 -1.5195 -2.4562
14904TIP3   OH266126   4.066   6.132   2.316 -0.1114 -0.6632  0.5645
14904TIP3    H166127   4.074   6.131   2.411  1.5624  0.2496  0.4526
14904TIP3    H266128   4.156   6.124   2.284 -0.5999 -0.3561 -0.9367
14905TIP3   OH266129   1.599   2.932  13.152  0.4947 -0.1814 -0.2789
14905TIP3    H166130   1.555   2.914  13.069  2.5148 -0.9002 -1.2415
14905TIP3    H266131   1.692   2.931  13.130  1.0664 -0.5833  2.0480
14906TIP3   OH266132   1.991   4.822   4.312 -0.2748  0.1929 -0.1985
14906TIP3    H166133   2.071   4.804   4.361  0.5035  0.5690 -1.3144
14906TIP3    H266134   2.018   4.820   4.220 -1.3172  1.4185 -0.5494
14907TIP3   OH266135   0.076   3.345  13.624 -0.4473 -0.0317  0.4856
14907TIP3    H166136   0.083   3.256  13.658  1.0902 -0.2783 -0.4044
14907TIP3    H266137   0.152   3.391  13.660 -0.1814  0.3844 -0.5870
14908TIP3   OH266138   4.015   2.270   5.393  0.4023 -0.6901 -0.6949
14908TIP3    H166139   3.971   2.278   5.308  0.4091 -0.1507 -0.6505
14908TIP3    H266140   4.058   2.355   5.405 -0.4254 -0.4049  0.3111
14909TIP3   OH266141   1.044   4.033   6.776  0.1976 -0.4351 -0.3056
14909TIP3    H166142   1.138   4.025   6.762  0.5516  1.4088  0.8601
14909TIP3    H266143   1.034   4.111   6.830 -2.0095 -0.6034 -0.4144
14910TIP3   OH266144   5.340   4.170   1.136  1.2080 -0.5712 -0.2387
14910TIP3    H166145   5.303   4.258   1.144 -0.3323 -0.9039 -2.9441
14910TIP3    H266146   5.328   4.131   1.222  0.9340  1.4987  0.6938
14911TIP3   OH266147   2.918   0.596   0.039 -0.2124  0.0017  0.0872
14911TIP3    H166148   2.894   0.538  -0.034  0.8305 -0.3553  0.0303
14911TIP3    H266149   3.012   0.584   0.049 -0.1488  1.0177  0.6659
14912TIP3   OH266150   0.524   3.040  13.462 -0.1710 -0.0033 -0.2034
14912TIP3    H166151   0.445   3.080  13.427 -1.1322 -2.6451 -1.1937
14912TIP3    H266152   0.596   3.090  13.422 -1.2996  2.7515  1.1269
14913TIP3   OH266153   4.348   0.830  15.005  0.6931 -0.1653  0.5919
14913TIP3    H166154   4.282   0.836  14.936 -0.4632  2.1540  1.8498
14913TIP3    H266155   4.399   0.751  14.983 -1.7090 -1.3138 -1.0556
14914TIP3   OH266156   6.261   2.953   3.822 -1.0671 -0.2873 -0.8150
14914TIP3    H166157   6.212   2.883   3.866 -1.3902  1.2691  1.3516
14914TIP3    H266158   6.351   2.944   3.854 -1.3396  0.9681  0.3237
14915TIP3   OH266159   6.540   1.523   1.676 -0.0720  0.1565  0.2356
14915TIP3    H166160   6.627   1.484   1.687  0.5698  1.2464 -0.8210
14915TIP3    H266161   6.480   1.462   1.720  1.2391 -0.5271  1.1024
14916TIP3   OH266162   2.009   3.587  13.930 -0.3879  0.1011 -0.0195
14916TIP3    H166163   2.009   3.514  13.869 -1.1602  0.1953 -0.1417
14916TIP3    H266164   2.025   3.664  13.876 -1.1680  0.1955 -0.1296
14917TIP3   OH266165   3.543   5.326   5.013  1.2869 -0.0841  0.0292
14917TIP3    H166166   3.499   5.349   5.095 -0.2011 -0.2468 -0.7008
14917TIP3    H266167   3.560   5.232   5.020  2.1193  0.0976  0.5768
14918TIP3   OH266168   3.790   4.974  16.047 -0.1742  0.5326  0.0862
14918TIP3    H166169   3.795   4.878  16.047 -1.9568  0.4186 -0.6451
14918TIP3    H266170   3.783   4.998  16.140 -1.1527 -0.1496  0.1979
14919TIP3   OH266171   3.139   5.156  11.072 -0.0347 -0.2535 -0.6719
14919TIP3    H166172   3.112   5.121  10.987  3.7770  0.2875 -2.1963
14919TIP3    H266173   3.217   5.106  11.095  1.1972  2.1855  0.6560
14920TIP3   OH266174   1.189   0.667   4.519  0.1945  0.2178  0.0444
14920TIP3    H166175   1.149   0.744   4.560  0.3377  0.7900 -0.8794
14920TIP3    H266176   1.243   0.702   4.449  0.0841 -0.7501 -0.5336
14921TIP3   OH266177   3.947   3.810  12.230 -0.2387  0.2103  0.1680
14921TIP3    H166178   3.975   3.889  12.276  2.6802 -2.4153  3.1423
14921TIP3    H266179   4.009   3.801  12.158 -1.1016  1.0450 -0.6972
14922TIP3   OH266180   5.854   0.043  13.820  0.2396  0.3591 -0.1644
14922TIP3    H166181   5.763   0.027  13.793  0.1878  2.1141 -1.1090
14922TIP3    H266182   5.895   0.081  13.743  1.6770 -0.0082  0.4092
14923TIP3   OH266183   5.042   4.925   0.129  0.1783  0.2294 -0.5997
14923TIP3    H166184   5.040   4.989   0.200 -0.3941 -0.7063  0.2341
14923TIP3    H266185   4.953   4.926   0.093 -0.0743 -0.7288 -0.0149
14924TIP3   OH266186   4.869   3.717   3.204  0.2266  0.4145 -0.0365
14924TIP3    H166187   4.775   3.701   3.214  0.1615  0.5900 -0.3455
14924TIP3    H266188   4.879   3.810   3.224  0.2746  0.4873 -0.3960
14925TIP3   OH266189   4.809   1.091  15.840  0.2568 -0.0140  0.7314
14925TIP3    H166190   4.889   1.045  15.866 -0.2444 -0.8725  0.7778
14925TIP3    H266191   4.748   1.021  15.815  0.0015  0.6942 -0.6836
14926TIP3   OH266192   3.314   2.580  17.230  0.5373  0.6842 -0.2045
14926TIP3    H166193   3.409   2.575  17.236  0.4740 -0.3961  0.0398
14926TIP3    H266194   3.283   2.506  17.282 -0.4995  2.5033  1.8459
14927TIP3   OH266195   3.527   0.252   0.732 -0.0667  0.2028  0.2889
14927TIP3    H166196   3.560   0.170   0.769  0.3210  0.4422  0.4687
14927TIP3    H266197   3.563   0.255   0.643 -1.0004 -0.3741 -0.1253
14928TIP3   OH266198   5.430   2.124  14.390  0.0446  0.5843  0.2576
14928TIP3    H166199   5.513   2.107  14.434  1.0554 -2.4128 -2.6101
14928TIP3    H266200   5.387   2.191  14.444  3.5347  0.9434  2.7261
14929TIP3   OH266201   2.061   1.277   1.972 -0.2211  0.2226  1.1538
14929TIP3    H166202   1.993   1.214   1.949 -0.8900  1.3769 -0.1142
14929TIP3    H266203   2.045   1.352   1.914  3.1661 -0.1635 -0.4160
14930TIP3   OH266204   1.692   3.476   4.078  0.4835 -0.0799  0.3835
14930TIP3    H166205   1.641   3.396   4.063 -0.6196  0.4536  1.1922
14930TIP3    H266206   1.667   3.533   4.005  2.6338 -1.1150 -1.1966
14931TIP3   OH266207   3.543   4.354   3.719 -0.4132 -0.3851  0.0894
14931TIP3    H166208   3.605   4.362   3.647  2.3382 -0.5026  2.3229
14931TIP3    H266209   3.501   4.269   3.707 -1.2854  0.3681 -2.3129
14932TIP3   OH266210   0.680   1.833   1.681  0.7021  0.2929  0.2336
14932TIP3    H166211   0.605   1.884   1.714 -0.2787 -0.9013 -0.1209
14932TIP3    H266212   0.642   1.750   1.655  2.3697 -0.8136  1.2539
14933TIP3   OH266213   6.487   6.260  14.968 -0.8752  0.3836  0.0779
14933TIP3    H166214   6.552   6.216  15.023 -1.7392  0.0562  0.8367
14933TIP3    H266215   6.410   6.268  15.023 -1.6021  0.4698 -0.9410
14934TIP3   OH266216   2.579   3.589   3.797 -0.3595  0.4594 -0.3569
14934TIP3    H166217   2.487   3.615   3.810 -0.1400  1.1073 -0.0706
14934TIP3    H266218   2.629   3.654   3.846  0.1359 -1.6719  2.0220
14935TIP3   OH266219   0.900   4.321   0.790 -0.3010 -0.8392  0.0633
14935TIP3    H166220   0.968   4.387   0.807 -1.9578  1.1653 -0.8883
14935TIP3    H266221   0.945   4.253   0.740  1.4967 -0.5567  1.2254
14936TIP3   OH266222   2.294   3.460  14.614 -1.0191 -0.1195  0.1185
14936TIP3    H166223   2.302   3.384  14.671 -0.2183 -0.2259 -0.1211
14936TIP3    H266224   2.203   3.487  14.621 -1.0478 -0.4479  1.0461
14937TIP3   OH266225   2.298   2.178  15.229 -0.6576  0.3005 -0.7036
14937TIP3    H166226   2.292   2.147  15.320  1.5938  1.5290 -0.1068
14937TIP3    H266227   2.254   2.263  15.229  0.5077  0.9127 -0.4458
14938TIP3   OH266228   3.894   2.429  12.976 -0.3628 -1.0226 -0.0249
14938TIP3    H166229   3.909   2.372  13.052 -0.2907 -2.5182 -1.1460
14938TIP3    H266230   3.864   2.370  12.907  1.2818  0.0533 -1.7042
14939TIP3   OH266231   6.220   0.244   2.380  0.2820  0.0693  0.4297
14939TIP3    H166232   6.305   0.207   2.355  0.7242  0.5652  1.1753
14939TIP3    H266233   6.240   0.304   2.452 -0.6953  0.2294  0.5784
14940TIP3   OH266234   6.358   4.171   3.539  0.3083  0.1502  0.2436
14940TIP3    H166235   6.295   4.130   3.480 -0.4884 -0.8271  1.7327
14940TIP3    H266236   6.439   4.122   3.526  0.3420  0.4227 -0.5798
14941TIP3   OH266237   6.394   3.630  12.803  0.1370  0.0419 -0.0143
14941TIP3    H166238   6.306   3.667  12.809  0.8363  1.5778  1.2275
14941TIP3    H266239   6.380   3.539  12.776 -1.9386 -0.1992  1.6948
14942TIP3   OH266240   6.334   0.047  16.781  0.1628 -0.3101 -0.7203
14942TIP3    H166241   6.389  -0.031  16.789 -0.7631 -0.8304  0.7423
14942TIP3    H266242   6.251   0.014  16.746 -0.3370 -0.0376  0.1955
14943TIP3   OH266243   0.869   6.283   3.709 -0.0910  0.3870 -0.0408
14943TIP3    H166244   0.937   6.266   3.644 -2.3539 -1.9928 -1.8981
14943TIP3    H266245   0.813   6.349   3.667 -1.4635 -1.0336 -0.5100
14944TIP3   OH266246   3.735   5.933   5.185  0.3337 -0.1496  0.7534
14944TIP3    H166247   3.787   5.988   5.127 -3.3030  0.9583 -1.6270
14944TIP3    H266248   3.760   5.843   5.162  1.4656  0.3650 -0.0564
14945TIP3   OH266249   1.657   4.783  11.706  0.1617 -0.2508  0.0969
14945TIP3    H166250   1.716   4.847  11.746 -0.7764  0.5907  0.1628
14945TIP3    H266251   1.610   4.744  11.780  0.3723 -0.6602  0.0165
14946TIP3   OH266252   0.842   5.202   2.604 -0.2803  0.0162  0.0021
14946TIP3    H166253   0.871   5.118   2.570  2.7424  1.4142 -1.1018
14946TIP3    H266254   0.885   5.210   2.689 -1.7620 -0.1716  0.7920
14947TIP3   OH266255   0.668   5.017  13.969 -0.5279 -0.0969 -0.7891
14947TIP3    H166256   0.736   5.057  14.022 -1.2031 -0.0998  0.0908
14947TIP3    H266257   0.634   5.089  13.915 -0.2580  0.0354 -0.7838
14948TIP3   OH266258   0.248   6.522  14.633  0.5055  0.2571  0.2600
14948TIP3    H166259   0.335   6.544  14.668  0.7298 -1.5519  0.8832
14948TIP3    H266260   0.188   6.541  14.705  0.6377 -0.6071  0.6030
14949TIP3   OH266261   5.885   3.461  15.287 -0.1142 -0.7783  0.1442
14949TIP3    H166262   5.861   3.379  15.245 -0.4620 -0.2276 -0.7515
14949TIP3    H266263   5.952   3.499  15.230 -0.6917  0.0373 -0.0194
14950TIP3   OH266264   2.687   1.574   1.851 -0.8266 -0.5291  0.2117
14950TIP3    H166265   2.694   1.479   1.844  1.7625 -0.5240  1.7803
14950TIP3    H266266   2.776   1.602   1.874 -1.4248  2.3278 -0.7959
14951TIP3   OH266267   2.939   4.421  15.709  0.9281  0.0650  0.9736
14951TIP3    H166268   2.856   4.373  15.716  0.6922  0.3797  0.3556
14951TIP3    H266269   2.931   4.493  15.772  0.6532  0.2054  0.7805
14952TIP3   OH266270   3.643   1.956  16.122  0.2768 -0.6059 -0.0838
14952TIP3    H166271   3.650   2.030  16.062  2.5310 -0.0712  0.7798
14952TIP3    H266272   3.710   1.895  16.093  0.4508 -0.9606  1.0263
14953TIP3   OH266273   0.794   2.532   3.297 -0.1089  0.4894 -0.1472
14953TIP3    H166274   0.726   2.560   3.358  0.5252  0.1801  0.7136
14953TIP3    H266275   0.787   2.593   3.224 -1.3044  0.4596 -0.0613
14954TIP3   OH266276   3.104   3.711  13.647  0.4163  0.3264 -0.0182
14954TIP3    H166277   3.059   3.793  13.666 -0.6311 -0.2538  0.0503
14954TIP3    H266278   3.159   3.695  13.724  1.1658  1.3189 -0.3420
14955TIP3   OH266279   4.324   3.260   1.165  0.6311 -0.3456 -0.1264
14955TIP3    H166280   4.266   3.185   1.152  2.1050 -1.2510 -1.6261
14955TIP3    H266281   4.327   3.303   1.080  1.5147  0.1659  0.1554
14956TIP3   OH266282   3.486   2.766  12.525 -0.0979 -0.6927  0.2546
14956TIP3    H166283   3.499   2.839  12.586 -1.4786 -0.9364  0.8620
14956TIP3    H266284   3.469   2.690  12.582  2.3527 -1.7446 -0.3174
14957TIP3   OH266285   1.257   0.649   2.746 -0.6112  0.6371 -0.0719
14957TIP3    H166286   1.313   0.575   2.769 -0.0126  0.9211 -0.5856
14957TIP3    H266287   1.197   0.658   2.820 -3.0186 -2.5523 -1.5684
14958TIP3   OH266288   2.040   1.032   4.135  0.4494 -0.2027 -1.0143
14958TIP3    H166289   2.042   1.115   4.183  1.1559 -0.2574 -0.9378
14958TIP3    H266290   1.981   1.048   4.062  1.6166  0.7852 -1.7598
14959TIP3   OH266291   2.149   5.070   1.948 -0.2677  0.0097 -0.3245
14959TIP3    H166292   2.098   5.062   2.029 -0.3866  1.2732 -0.2674
14959TIP3    H266293   2.095   5.029   1.881  0.4759 -2.3847  0.5015
14960TIP3   OH266294   3.917   4.694  15.288  0.3717  0.4809 -0.3355
14960TIP3    H166295   3.970   4.735  15.219  1.5765 -0.1926  0.1837
14960TIP3    H266296   3.975   4.691  15.364 -0.3905 -0.3437  0.2135
14961TIP3   OH266297   5.152   5.020   3.205  0.3094 -0.3910 -0.2386
14961TIP3    H166298   5.058   5.003   3.207  0.4528 -1.4573 -1.6075
14961TIP3    H266299   5.177   5.007   3.114  2.2831 -3.0452  0.5922
14962TIP3   OH266300   0.212   3.019  15.438  0.0349 -0.3150  0.0645
14962TIP3    H166301   0.176   2.952  15.380  0.7783  1.5430 -2.6873
14962TIP3    H266302   0.146   3.088  15.439  1.7141  1.3958 -1.8606
14963TIP3   OH266303   2.506   2.155  12.270 -0.0134 -0.0355  0.0426
14963TIP3    H166304   2.596   2.135  12.247 -0.6585 -0.3911 -2.2437
14963TIP3    H266305   2.453   2.108  12.206 -1.7721  1.9776 -0.0445
14964TIP3   OH266306   4.338   5.590   4.338 -0.2916 -0.7973 -0.0016
14964TIP3    H166307   4.398   5.600   4.265  1.6661 -0.6588  1.5762
14964TIP3    H266308   4.267   5.652   4.320  0.9369  0.3400 -1.0244
14965TIP3   OH266309   1.713   2.539  13.000  0.0284  0.2327  0.1245
14965TIP3    H166310   1.796   2.578  12.972  0.2694  0.0982  0.6540
14965TIP3    H266311   1.738   2.454  13.035 -0.3778  0.0440 -0.0456
14966TIP3   OH266312   5.244   1.939  15.035  0.1604  0.0133 -0.4930
14966TIP3    H166313   5.288   1.864  15.076  0.3520  1.4847  2.0779
14966TIP3    H266314   5.151   1.924  15.053  0.2017  0.3909  0.0451
14967TIP3   OH266315   4.932   0.270  12.950 -0.5862 -0.3442 -0.2425
14967TIP3    H166316   4.968   0.359  12.960 -0.4668 -0.3617 -0.4922
14967TIP3    H266317   4.906   0.245  13.038 -1.9775  0.5109 -0.4002
14968TIP3   OH266318   4.831   4.274  12.908  0.0958  0.8403  0.8484
14968TIP3    H166319   4.902   4.295  12.848  0.5135 -0.3242  0.9276
14968TIP3    H266320   4.763   4.238  12.851  1.2688 -2.1773  1.2864
14969TIP3   OH266321   4.288   6.244  14.200 -0.4616  0.7757  0.2563
14969TIP3    H166322   4.273   6.149  14.201 -0.9968  0.8535 -0.3812
14969TIP3    H266323   4.204   6.281  14.172 -0.8683  1.5519  2.4047
14970TIP3   OH266324   2.638   5.338   2.112  0.4785  0.3590 -0.4504
14970TIP3    H166325   2.667   5.388   2.035 -0.6909  1.2930 -0.2994
14970TIP3    H266326   2.590   5.402   2.165  2.1465 -0.0329  1.5673
14971TIP3   OH266327   4.518   3.215   4.035  0.0804  0.1910  0.7866
14971TIP3    H166328   4.443   3.276   4.033 -0.6530 -0.7121 -0.1247
14971TIP3    H266329   4.595   3.272   4.041 -0.5598  1.2531 -0.6810
14972TIP3   OH266330   4.800   1.457  13.983 -0.6520 -0.1469  0.4282
14972TIP3    H166331   4.889   1.423  13.990 -1.3354 -2.2547 -0.4374
14972TIP3    H266332   4.744   1.381  14.001 -2.2672  0.7385 -0.6714
14973TIP3   OH266333   4.844   1.226  12.248  0.6714 -0.2180  0.8783
14973TIP3    H166334   4.884   1.298  12.297  0.9224 -0.5220  1.1240
14973TIP3    H266335   4.875   1.237  12.158 -2.5996  2.4260 -0.0255
14974TIP3   OH266336   1.170   2.598  16.427  0.2078 -0.6318  0.0461
14974TIP3    H166337   1.233   2.555  16.370 -1.0139  0.0026 -1.8411
14974TIP3    H266338   1.135   2.528  16.483 -1.5727 -2.1143 -2.8022
14975TIP3   OH266339   6.443   2.247   2.290  0.1750 -0.0182 -0.4441
14975TIP3    H166340   6.502   2.250   2.365  0.4194  1.9700 -0.6851
14975TIP3    H266341   6.500   2.233   2.215  0.1102 -0.2678 -0.4475
14976TIP3   OH266342   2.853   0.766  12.814  0.3810 -0.1615  1.0351
14976TIP3    H166343   2.878   0.680  12.781 -1.3434 -0.2167 -0.2035
14976TIP3    H266344   2.932   0.800  12.855  1.8544 -1.2113 -0.8483
14977TIP3   OH266345   5.949   4.400   3.487 -0.1126  0.0061 -0.2104
14977TIP3    H166346   5.888   4.442   3.425  0.0817 -1.2910 -1.2943
14977TIP3    H266347   6.034   4.407   3.445  0.0040 -0.9776 -0.1542
14978TIP3   OH266348   4.354   4.059   5.516  0.8395 -0.2786 -0.4993
14978TIP3    H166349   4.284   4.069   5.451  0.5835 -0.4743 -0.2526
14978TIP3    H266350   4.426   4.020   5.467 -0.2201 -2.8433 -0.0965
14979TIP3   OH266351   6.102   3.276   6.092 -0.8343 -0.0402  0.5802
14979TIP3    H166352   6.027   3.313   6.139 -1.3448 -0.9766  0.5164
14979TIP3    H266353   6.174   3.284   6.154 -1.4703 -1.1303  1.4947
14980TIP3   OH266354   1.440   1.691   0.820  0.0345 -0.4796 -0.3576
14980TIP3    H166355   1.433   1.782   0.849  0.7734 -0.8226  0.9315
14980TIP3    H266356   1.508   1.693   0.753  1.2374 -0.3384  0.8470
14981TIP3   OH266357   0.130   1.314   3.091  0.0208 -0.3516 -0.2626
14981TIP3    H166358   0.187   1.238   3.078  0.1953 -0.0389 -1.3659
14981TIP3    H266359   0.177   1.387   3.051 -0.4586  0.2098  0.1803
14982TIP3   OH266360   2.157   0.519  12.222  0.2254 -0.0911  0.5260
14982TIP3    H166361   2.192   0.606  12.241 -1.3248  0.7084 -0.1743
14982TIP3    H266362   2.091   0.505  12.289  0.5538 -0.7789  0.7069
14983TIP3   OH266363   1.759   0.579   3.484 -0.3638 -0.0183  0.4512
14983TIP3    H166364   1.821   0.639   3.442  0.7021 -0.1401  1.8075
14983TIP3    H266365   1.808   0.497   3.494  0.0580  0.5485  3.5633
14984TIP3   OH266366   0.198   6.350   2.079  0.2419 -0.4818 -0.3353
14984TIP3    H166367   0.192   6.268   2.129 -0.4592 -0.4965 -0.4335
14984TIP3    H266368   0.162   6.328   1.993  0.0153 -0.0554 -0.3494
14985TIP3   OH266369   0.872   6.264  16.187 -0.0388 -0.0631 -0.0517
14985TIP3    H166370   0.941   6.251  16.253 -0.7310  0.2136  0.7444
14985TIP3    H266371   0.816   6.333  16.225 -1.3006 -0.9736 -0.2338
14986TIP3   OH266372   6.238   2.838  12.646 -0.4337 -0.1676  0.4806
14986TIP3    H166373   6.257   2.921  12.689  0.8300 -1.1021  1.8007
14986TIP3    H266374   6.251   2.773  12.715  1.2663 -1.6922 -1.2171
14987TIP3   OH266375   5.754   2.484   4.693  0.0884  0.3688  0.1607
14987TIP3    H166376   5.735   2.476   4.600  1.4178  1.3873 -0.2201
14987TIP3    H266377   5.700   2.417   4.735 -2.7744  1.8434 -1.0360
14988TIP3   OH266378   6.535   3.474   1.025  0.2791  0.1004 -0.6257
14988TIP3    H166379   6.617   3.442   0.988 -0.1183 -1.0178 -0.5546
14988TIP3    H266380   6.562   3.525   1.102  0.8114 -2.1882  0.7662
14989TIP3   OH266381   0.174   3.575   0.716 -0.6640 -0.5540 -0.1398
14989TIP3    H166382   0.196   3.665   0.739 -0.5446 -0.8626  0.9397
14989TIP3    H266383   0.222   3.520   0.778  0.2564 -1.4231 -1.5711
14990TIP3   OH266384   1.552   6.153   3.957 -0.0465 -0.1828  0.6811
14990TIP3    H166385   1.641   6.151   3.924  0.6898  1.8897  2.3573
14990TIP3    H266386   1.548   6.234   4.010 -2.9219 -0.1771  0.5597
14991TIP3   OH266387   6.334   3.953   2.279 -0.0120 -0.6825 -0.0373
14991TIP3    H166388   6.333   4.039   2.237 -0.0841 -1.0876 -0.8695
14991TIP3    H266389   6.243   3.923   2.276  0.1382 -1.1121 -0.4355
14992TIP3   OH266390   4.582   3.408   3.473  0.3523  0.1478 -0.2017
14992TIP3    H166391   4.512   3.435   3.532  0.1844 -1.4122  0.3172
14992TIP3    H266392   4.656   3.465   3.496 -0.4069  1.0941 -0.0592
14993TIP3   OH266393   1.645   2.307  13.180 -0.2040  0.0063 -0.1192
14993TIP3    H166394   1.663   2.214  13.163 -0.1623  0.1272 -0.7268
14993TIP3    H266395   1.712   2.333  13.243  0.8994  0.1013 -1.3300
14994TIP3   OH266396   3.306   0.323   3.618 -0.3769  0.9412 -0.8349
14994TIP3    H166397   3.253   0.340   3.540 -0.5514  1.0478 -0.6906
14994TIP3    H266398   3.393   0.354   3.595 -0.6858  1.9916 -0.5808
14995TIP3   OH266399   3.733   1.039  16.031 -0.4297 -0.3069  0.2081
14995TIP3    H166400   3.680   0.978  16.081  1.2079 -1.5683  0.4676
14995TIP3    H266401   3.722   1.012  15.939 -1.7765  0.6773  0.0770
14996TIP3   OH266402   1.370   0.301  12.568 -0.0459 -0.1819 -0.0972
14996TIP3    H166403   1.348   0.293  12.476 -0.1206  0.6286 -0.1536
14996TIP3    H266404   1.313   0.371  12.600 -0.0394 -0.4761  0.5682
14997TIP3   OH266405   4.299   3.492   2.512  0.0106 -0.2245 -0.0802
14997TIP3    H166406   4.305   3.568   2.569 -1.1307 -0.3354  0.1901
14997TIP3    H266407   4.213   3.500   2.469 -0.4685 -1.7690  0.5424
14998TIP3   OH266408   1.008   1.039  12.415 -0.0686  0.8156 -0.1426
14998TIP3    H166409   1.070   1.080  12.476  0.2216  0.0397  0.0944
14998TIP3    H266410   0.938   1.103  12.406 -0.6623  0.4872  1.8848
14999TIP3   OH266411   4.126   3.708   4.807  0.0591 -0.1794  0.0429
14999TIP3    H166412   4.219   3.725   4.792 -0.1920  0.6677 -0.5854
14999TIP3    H266413   4.099   3.779   4.866 -0.5498  0.4812 -1.0283
15000TIP3   OH266414   2.562   1.842   0.771 -0.0117 -0.2260  0.1636
15000TIP3    H166415   2.546   1.844   0.677  3.4863 -0.3391 -0.5006
15000TIP3    H266416   2.521   1.922   0.804 -0.6099  0.1952 -1.5429
15001TIP3   OH266417   5.707   5.454   5.455 -0.1463 -0.2322  0.2214
15001TIP3    H166418   5.711   5.496   5.369  0.3426  0.4919  0.5962
15001TIP3    H266419   5.628   5.399   5.450 -1.8951  2.1794  0.3695
15002TIP3   OH266420   6.416   5.179   5.075  0.1301  0.8639  0.8162
15002TIP3    H166421   6.388   5.116   5.141  0.0902  0.7437  0.6872
15002TIP3    H266422   6.448   5.124   5.002 -0.9179  0.9761  0.2651
15003TIP3   OH266423   0.004   2.559  16.207 -0.4930  0.2336  0.5510
15003TIP3    H166424  -0.002   2.652  16.230  0.5243  0.4139  0.0973
15003TIP3    H266425   0.097   2.539  16.214 -0.5945 -0.5130 -0.2889
15004TIP3   OH266426   1.745   1.875  15.643  0.1108  0.1208  0.1722
15004TIP3    H166427   1.695   1.935  15.699 -0.1865  0.7946 -0.8014
15004TIP3    H266428   1.784   1.812  15.704 -0.4415  0.6742  1.1091
15005TIP3   OH266429   2.720   5.670  16.638  0.4494  0.3439  0.3468
15005TIP3    H166430   2.765   5.602  16.587  1.0241  1.3687 -0.5406
15005TIP3    H266431   2.727   5.749  16.584  1.3466  1.5378  2.1315
15006TIP3   OH266432   0.783   4.980   5.397 -0.1690  0.3435  0.0716
15006TIP3    H166433   0.751   5.031   5.323  1.0432  1.4722  0.3198
15006TIP3    H266434   0.757   5.030   5.474  0.3610  0.2094  0.3406
15007TIP3   OH266435   5.154   0.923   3.800  0.3748  0.0436  0.6108
15007TIP3    H166436   5.219   0.970   3.853 -0.4855  0.5500  1.2436
15007TIP3    H266437   5.106   0.870   3.864 -1.0667  1.1073  0.4478
15008TIP3   OH266438   1.242   6.460   1.147 -0.1273  0.9772 -0.2395
15008TIP3    H166439   1.322   6.502   1.177  0.2114  1.1082 -1.3355
15008TIP3    H266440   1.198   6.432   1.228  2.1325 -1.1821  0.2913
15009TIP3   OH266441   0.312   3.166   5.296  0.0540  0.0997  0.9732
15009TIP3    H166442   0.382   3.104   5.314 -0.4298 -0.3853  1.2174
15009TIP3    H266443   0.251   3.118   5.240 -1.0469 -0.1545  2.3479
15010TIP3   OH266444   5.719   0.717  13.984 -0.2261 -0.1819 -0.6175
15010TIP3    H166445   5.661   0.686  14.053  0.9278 -0.2743  0.3330
15010TIP3    H266446   5.690   0.806  13.967  0.0380  0.1591  0.6307
15011TIP3   OH266447   1.771   1.098   3.941 -0.2478  0.7329 -0.2287
15011TIP3    H166448   1.706   1.167   3.955 -2.4217 -1.5799  1.5725
15011TIP3    H266449   1.733   1.043   3.872 -0.0658 -0.4015  0.5519
15012TIP3   OH266450   4.648   0.481  13.109 -0.1111  0.1123 -0.0711
15012TIP3    H166451   4.665   0.389  13.129 -0.0249  0.3261  0.9060
15012TIP3    H266452   4.633   0.521  13.195 -0.9786  0.8433 -0.5532
15013TIP3   OH266453   4.125   1.383  11.501  0.5195 -0.1590  0.0234
15013TIP3    H166454   4.109   1.288  11.507 -0.5043 -0.0057 -0.2040
15013TIP3    H266455   4.210   1.395  11.542 -0.0111 -0.9968  1.4103
15014TIP3   OH266456   0.128   1.183  12.081 -0.3853  0.3523  0.0724
15014TIP3    H166457   0.124   1.278  12.087  1.9991  0.4647  0.1788
15014TIP3    H266458   0.138   1.165  11.987 -0.6386  0.2153  0.0708
15015TIP3   OH266459   5.054   6.072   5.628  0.2530 -0.2393  0.0296
15015TIP3    H166460   5.131   6.046   5.680 -1.4983 -1.3213  2.1558
15015TIP3    H266461   5.047   6.166   5.640  0.9949 -0.2011  0.1801
15016TIP3   OH266462   0.489   5.303  12.298  0.3935 -0.1330 -0.5309
15016TIP3    H166463   0.427   5.250  12.247 -0.8932  1.2531 -0.4238
15016TIP3    H266464   0.467   5.285  12.389  0.4489  0.0221 -0.4871
15017TIP3   OH266465   1.741   4.342  14.744 -0.6161  0.5685  0.3381
15017TIP3    H166466   1.667   4.400  14.730 -0.4313  0.7260  0.0266
15017TIP3    H266467   1.783   4.376  14.823 -2.1798 -0.8635  1.8279
15018TIP3   OH266468   2.080   3.724  16.328  0.1173  0.0322 -0.3381
15018TIP3    H166469   2.147   3.662  16.299  0.7366  0.7158 -0.3955
15018TIP3    H266470   2.112   3.757  16.412 -0.4876 -0.1495 -0.0355
15019TIP3   OH266471   5.223   3.616   4.258 -0.2405 -0.1818 -0.4320
15019TIP3    H166472   5.237   3.649   4.347 -1.2357  0.9078 -0.6651
15019TIP3    H266473   5.311   3.591   4.228  0.1331 -0.3360  0.7670
15020TIP3   OH266474   6.281   0.108   1.231 -0.1111 -0.0832 -0.4449
15020TIP3    H166475   6.229   0.060   1.295  0.2409 -1.3780 -1.1078
15020TIP3    H266476   6.220   0.129   1.161 -0.5299  1.4626  0.3775
15021TIP3   OH266477   1.627   5.910   5.685 -0.2477 -0.3186 -0.2222
15021TIP3    H166478   1.588   5.861   5.758 -1.4616 -1.1115 -1.3945
15021TIP3    H266479   1.657   5.992   5.725 -0.4606 -0.9469  1.2632
15022TIP3   OH266480   3.014   2.592  11.976 -0.4325  0.0406  0.2101
15022TIP3    H166481   3.074   2.526  11.942 -0.2993 -0.0017  0.5278
15022TIP3    H266482   3.033   2.671  11.925 -0.8235 -0.2526 -0.4026
15023TIP3   OH266483   5.902   1.487   4.640  0.8110  0.2228  0.4151
15023TIP3    H166484   5.935   1.437   4.715 -0.3358 -0.0128  0.7651
15023TIP3    H266485   5.875   1.421   4.577 -0.0598  0.4075  0.5929
15024TIP3   OH266486   1.457   3.627  14.853  0.5388 -0.2380 -0.4809
15024TIP3    H166487   1.371   3.641  14.813  0.6161 -2.2591 -1.4179
15024TIP3    H266488   1.511   3.698  14.819 -0.2874  0.0072 -1.2996
15025TIP3   OH266489   0.404   4.937  11.058  0.3895  0.2944 -0.2763
15025TIP3    H166490   0.403   4.998  10.984  0.9139  0.0714 -0.4675
15025TIP3    H266491   0.385   4.993  11.134  1.0019  0.7224 -0.4331
15026TIP3   OH266492   3.750   2.997  14.328  0.7388 -0.7140  0.0180
15026TIP3    H166493   3.833   3.041  14.343 -0.2128  2.1835 -2.7684
15026TIP3    H266494   3.768   2.936  14.256  0.9484 -1.6530  0.8549
15027TIP3   OH266495   2.161   2.290   4.323  0.3840 -0.2014  0.1225
15027TIP3    H166496   2.146   2.375   4.365  1.1836  1.4219 -2.6859
15027TIP3    H266497   2.074   2.252   4.314  0.1477 -0.2623  2.5551
15028TIP3   OH266498   6.217   0.590  15.709 -0.0723  0.1852 -0.5366
15028TIP3    H166499   6.197   0.507  15.665 -2.5723 -0.4464  1.6911
15028TIP3    H266500   6.234   0.651  15.637 -0.9860 -1.5602 -2.2996
15029TIP3   OH266501   2.915   0.714   3.521  0.2462 -0.1386  0.0042
15029TIP3    H166502   2.910   0.653   3.448 -0.5749  1.6246 -1.4619
15029TIP3    H266503   2.997   0.762   3.506 -0.3676  0.8364 -0.2680
15030TIP3   OH266504   6.446   2.200   1.219 -0.0444  0.3187  0.0087
15030TIP3    H166505   6.487   2.196   1.305 -1.3878 -1.8118  0.5904
15030TIP3    H266506   6.355   2.223   1.236 -0.2405  0.2359 -0.8656
15031TIP3   OH266507   2.368   2.650   5.111 -0.0372  0.5215  0.0109
15031TIP3    H166508   2.391   2.731   5.067 -0.7035  0.9903  0.5050
15031TIP3    H266509   2.450   2.618   5.148 -0.2856  2.7163  2.6596
15032TIP3   OH266510   0.153   3.753  13.049 -0.3645 -0.1627 -0.5457
15032TIP3    H166511   0.136   3.727  12.958 -2.6727  1.5922 -0.6515
15032TIP3    H266512   0.100   3.831  13.062 -0.9560 -1.0224  2.6612
15033TIP3   OH266513   4.760   0.547   1.787  0.4019  0.0861 -0.1547
15033TIP3    H166514   4.684   0.603   1.803 -0.8952 -1.2903 -1.3739
15033TIP3    H266515   4.750   0.475   1.849  0.8915  0.0784 -0.0864
15034TIP3   OH266516   2.323   2.060   4.428  0.0270 -0.1720 -0.0529
15034TIP3    H166517   2.265   2.137   4.425  0.5469  0.2502  0.5637
15034TIP3    H266518   2.272   1.993   4.473 -0.4599 -0.2162 -0.6629
15035TIP3   OH266519   1.342   2.384  16.388 -0.3208 -0.0054 -0.2447
15035TIP3    H166520   1.350   2.391  16.483  0.5030  0.4758 -0.3468
15035TIP3    H266521   1.432   2.379  16.356 -0.6282 -1.4838 -0.9110
15036TIP3   OH266522   4.844   1.757   0.831  0.3148 -0.0689  0.2385
15036TIP3    H166523   4.781   1.813   0.877  0.8926  0.1277  0.7935
15036TIP3    H266524   4.875   1.696   0.898  0.6886 -0.1862 -0.0409
15037TIP3   OH266525   2.864   5.641   0.550 -0.0843 -0.2455  0.1752
15037TIP3    H166526   2.775   5.623   0.520  0.1220 -0.3319 -0.3783
15037TIP3    H266527   2.914   5.564   0.524  0.6174  0.7248 -1.4400
15038TIP3   OH266528   1.848   0.380   0.804  0.0438 -0.6746  0.8633
15038TIP3    H166529   1.872   0.432   0.881 -0.0384  1.3065 -0.4249
15038TIP3    H266530   1.886   0.294   0.821  2.0174  0.3958  2.0762
15039TIP3   OH266531   1.103   2.838  15.840  0.3886 -0.2662 -0.3278
15039TIP3    H166532   1.086   2.751  15.806  0.0382  0.2763 -1.5496
15039TIP3    H266533   1.152   2.823  15.921 -1.5778 -1.6673  0.6315
15040TIP3   OH266534   2.811   3.703  14.921 -0.3144 -0.4338  0.7968
15040TIP3    H166535   2.897   3.744  14.922  0.0244 -1.0875 -0.2547
15040TIP3    H266536   2.799   3.668  15.009  1.0237 -1.4010  0.6069
15041TIP3   OH266537   3.074   2.709  14.752 -0.1034 -0.3078  0.2958
15041TIP3    H166538   3.059   2.800  14.779  1.4979  0.0269  0.1032
15041TIP3    H266539   3.146   2.715  14.689 -1.5427 -1.4552 -1.5149
15042TIP3   OH266540   1.208   2.910  14.929 -0.8911 -0.3388 -0.9882
15042TIP3    H166541   1.123   2.875  14.902 -1.6705 -0.0432  0.9391
15042TIP3    H266542   1.201   2.917  15.025  2.1601 -2.5082 -0.5592
15043TIP3   OH266543   5.785   5.616   3.190 -0.2395  0.3564 -0.3314
15043TIP3    H166544   5.724   5.571   3.131 -0.1827  0.1780 -0.2540
15043TIP3    H266545   5.760   5.587   3.278  2.0888 -2.3280 -0.5084
15044TIP3   OH266546   0.744   3.625   0.482 -0.1294  0.6978  0.0060
15044TIP3    H166547   0.786   3.658   0.403 -0.6770  1.3400 -0.0237
15044TIP3    H266548   0.681   3.693   0.506  0.7486  0.9829  1.5738
15045TIP3   OH266549   0.989   1.283   0.606  0.2082  0.8643  0.5453
15045TIP3    H166550   0.971   1.375   0.627 -4.2424 -0.0534  1.1486
15045TIP3    H266551   0.979   1.237   0.689 -0.2932 -0.5396 -0.2867
15046TIP3   OH266552   2.737   2.148  17.048  0.4690 -0.0837  0.0274
15046TIP3    H166553   2.706   2.137  16.958 -0.6865 -0.3212  0.4584
15046TIP3    H266554   2.778   2.235  17.048  0.3082 -0.0011 -0.6816
15047TIP3   OH266555   0.648   3.874  13.440  0.0366 -0.1176 -0.7691
15047TIP3    H166556   0.661   3.947  13.500  0.5195  0.4981 -1.6073
15047TIP3    H266557   0.555   3.877  13.418 -0.2521 -0.6737  0.3582
15048TIP3   OH266558   2.258   2.564   0.829  0.6115 -0.4286 -0.3034
15048TIP3    H166559   2.308   2.527   0.902  1.3111 -0.7210 -0.9304
15048TIP3    H266560   2.321   2.618   0.782  0.2591 -0.5732 -0.9442
15049TIP3   OH266561   1.732   3.299   4.654 -0.5027 -0.0496  0.2977
15049TIP3    H166562   1.811   3.327   4.700 -0.4133  0.3220 -0.0809
15049TIP3    H266563   1.663   3.355   4.688 -0.1559  1.2618 -1.1216
15050TIP3   OH266564   4.851   6.517  14.373  0.9687  0.9578  0.1772
15050TIP3    H166565   4.796   6.445  14.343  2.2801  0.2494 -0.5935
15050TIP3    H266566   4.935   6.504  14.328  1.9799  1.6475  1.7934
15051TIP3   OH266567   3.599   4.027   2.254  0.4970 -0.3399  0.1793
15051TIP3    H166568   3.547   3.983   2.187  0.6074 -1.9779  1.1363
15051TIP3    H266569   3.659   4.083   2.205 -2.0873  1.5383 -0.9422
15052TIP3   OH266570   2.489   0.235  11.657  0.4506  0.4828  0.1281
15052TIP3    H166571   2.402   0.235  11.616 -0.3378 -2.0533  1.6810
15052TIP3    H266572   2.504   0.327  11.680  0.0091  1.6438 -3.8400
15053TIP3   OH266573   2.876   4.815  16.325 -0.3757  0.4149  0.3188
15053TIP3    H166574   2.962   4.855  16.333 -0.8090  1.3596  0.2431
15053TIP3    H266575   2.892   4.721  16.338  0.7267  0.5274 -0.1607
15054TIP3   OH266576   5.092   3.448  12.336  0.0471  0.1957  0.0985
15054TIP3    H166577   5.032   3.443  12.262  0.9217 -0.5830 -0.5751
15054TIP3    H266578   5.132   3.361  12.341 -0.0353  0.2196  1.5214
15055TIP3   OH266579   4.425   5.044   5.619  0.3522  0.0920 -0.2585
15055TIP3    H166580   4.387   5.080   5.699  1.9908 -1.4233  1.2326
15055TIP3    H266581   4.414   4.949   5.627  3.4470 -0.3186 -0.2848
15056TIP3   OH266582   4.805   6.678   0.351  0.2181  0.7940 -0.2427
15056TIP3    H166583   4.834   6.625   0.425 -0.4144  1.7624  0.7066
15056TIP3    H266584   4.837   6.766   0.369 -0.6092  1.2095 -0.7259
15057TIP3   OH266585   1.031   1.100  13.240 -0.3063  0.3153  0.2911
15057TIP3    H166586   0.981   1.099  13.158  0.3809 -1.5412 -0.1103
15057TIP3    H266587   1.089   1.176  13.231  0.1145 -0.1622 -1.1418
15058TIP3   OH266588   2.838   0.606  13.532 -0.5835 -0.2862 -0.5626
15058TIP3    H166589   2.856   0.517  13.561 -1.1025 -0.1027  0.3561
15058TIP3    H266590   2.768   0.637  13.590  1.2186  1.5456  0.6994
15059TIP3   OH266591   1.568   4.901  12.607  0.1409  0.0829  0.0549
15059TIP3    H166592   1.607   4.815  12.617 -1.0123 -0.4280  0.2448
15059TIP3    H266593   1.620   4.944  12.539  0.7134 -0.7620 -0.0431
15060TIP3   OH266594   5.547   4.435   2.944  0.5382  0.0639  0.4865
15060TIP3    H166595   5.579   4.521   2.916  0.0158  0.1326  0.0878
15060TIP3    H266596   5.546   4.383   2.863 -1.9074  0.5490  0.1610
15061TIP3   OH266597   5.553   4.569   3.761  0.0322 -0.1065  0.3250
15061TIP3    H166598   5.472   4.518   3.769  0.4481 -0.3271  4.2002
15061TIP3    H266599   5.608   4.516   3.703 -2.0583 -0.6268 -1.2647
15062TIP3   OH266600   2.122   3.083  14.089 -0.3294 -0.6485 -0.4320
15062TIP3    H166601   2.093   3.158  14.140 -0.4440 -0.6882 -0.4389
15062TIP3    H266602   2.217   3.096  14.080 -0.3915 -0.3455 -0.6887
15063TIP3   OH266603   1.470   4.443  12.551  0.0815 -0.0935  0.6736
15063TIP3    H166604   1.386   4.449  12.597 -0.0947 -0.6685  0.4381
15063TIP3    H266605   1.475   4.351  12.523  0.2958  0.1926 -0.2462
15064TIP3   OH266606   2.435   1.208   4.418 -0.2717  0.6958 -0.7499
15064TIP3    H166607   2.401   1.296   4.437  0.9323  1.1538 -0.7245
15064TIP3    H266608   2.421   1.159   4.500  0.7550  1.3834 -0.1595
15065TIP3   OH266609   5.497   1.703  15.852  0.4802 -0.6857 -0.0643
15065TIP3    H166610   5.452   1.620  15.867  0.4983 -0.5477  0.8091
15065TIP3    H266611   5.551   1.715  15.930  1.1662 -0.2938 -0.6005
15066TIP3   OH266612   2.030   1.829  11.823  0.3025 -0.5260  0.1655
15066TIP3    H166613   2.106   1.774  11.841  0.1040 -0.4207  1.3468
15066TIP3    H266614   1.988   1.788  11.748  0.4757 -1.6605  0.6884
15067TIP3   OH266615   4.794   1.757   4.616 -0.6361  0.5274  0.6023
15067TIP3    H166616   4.836   1.838   4.644 -0.6393  0.5815  0.4534
15067TIP3    H266617   4.822   1.745   4.525  0.6138 -0.4630  1.1001
15068TIP3   OH266618   6.016   5.432   4.175  0.1386  0.0412  0.2385
15068TIP3    H166619   6.039   5.470   4.261 -1.9837  0.0148  0.8483
15068TIP3    H266620   6.091   5.452   4.120  2.0326 -0.8766  2.3868
15069TIP3   OH266621   0.876   1.979  14.394 -0.5337 -0.3167 -0.1713
15069TIP3    H166622   0.797   1.925  14.395 -0.4169 -0.4785  0.3293
15069TIP3    H266623   0.855   2.050  14.334 -0.7761 -0.7867 -0.6494
15070TIP3   OH266624   2.359   6.141  15.199 -0.2455 -0.0229 -0.2451
15070TIP3    H166625   2.430   6.090  15.238 -1.2442 -0.5488  0.8822
15070TIP3    H266626   2.403   6.217  15.161  1.1598 -1.3138 -1.2621
15071TIP3   OH266627   0.540   0.083   5.887 -0.2091 -0.0712 -0.3070
15071TIP3    H166628   0.539   0.012   5.950 -0.8608 -1.3060 -1.6754
15071TIP3    H266629   0.627   0.123   5.896 -0.8687  0.8658  2.5100
15072TIP3   OH266630   3.647   3.139   3.435 -0.1246  0.6050  0.2692
15072TIP3    H166631   3.690   3.140   3.521 -1.9135  0.9274  1.1740
15072TIP3    H266632   3.653   3.047   3.406  0.6949  0.5437  0.6103
15073TIP3   OH266633   5.434   4.933  15.307  0.1313 -0.5011 -0.3789
15073TIP3    H166634   5.351   4.912  15.348 -1.5655  0.1516 -3.3388
15073TIP3    H266635   5.446   5.027  15.322  0.5335 -0.6694  0.3710
15074TIP3   OH266636   4.435   4.816  17.064  0.2754 -0.2119  0.0298
15074TIP3    H166637   4.476   4.807  17.150  1.5386  2.1273 -0.3122
15074TIP3    H266638   4.504   4.794  17.002  0.5128  1.9152 -0.4889
15075TIP3   OH266639   1.839   4.985  16.023  0.4855 -0.3326  0.2872
15075TIP3    H166640   1.931   4.960  16.025 -0.0873 -2.3833  1.9759
15075TIP3    H266641   1.813   4.991  16.115 -1.2265 -0.3605 -0.1785
15076TIP3   OH266642   5.236   2.623   2.612 -0.0218 -0.2811  0.7356
15076TIP3    H166643   5.165   2.635   2.675 -0.0991 -2.6697  1.1499
15076TIP3    H266644   5.282   2.707   2.610 -2.6876  1.2349  0.6674
15077TIP3   OH266645   6.780   6.697   4.961  0.0419 -0.4671  0.5075
15077TIP3    H166646   6.720   6.766   4.930 -0.5403 -0.3966  1.7679
15077TIP3    H266647   6.792   6.640   4.885 -1.9615 -0.7083  0.3328
15078TIP3   OH266648   4.265   1.980   4.715 -0.4118 -0.1637  0.7102
15078TIP3    H166649   4.274   1.902   4.660 -2.4798  0.0745 -0.0083
15078TIP3    H266650   4.307   1.955   4.798 -0.4555 -1.8030  0.2714
15079TIP3   OH266651   0.264   4.304  15.521 -0.1842 -0.7511  0.4732
15079TIP3    H166652   0.230   4.383  15.478  0.9248 -0.1619  0.6498
15079TIP3    H266653   0.204   4.234  15.494  1.0661 -0.6087 -2.9122
15080TIP3   OH266654   0.960   4.480   5.490  0.3969  0.4394 -0.5423
15080TIP3    H166655   1.025   4.461   5.423  0.8759 -2.1377  0.6230
15080TIP3    H266656   1.011   4.492   5.571 -0.3308  1.6797 -0.2465
15081TIP3   OH266657   1.954   4.244   5.265  0.5711 -0.6197 -0.2222
15081TIP3    H166658   1.947   4.339   5.276  0.0992 -0.5239 -1.3110
15081TIP3    H266659   2.048   4.226   5.272  0.7596  0.0539 -1.0522
15082TIP3   OH266660   2.470   6.348  17.144  0.4819 -0.1597  0.3171
15082TIP3    H166661   2.429   6.271  17.182  0.4811  0.3525  1.3701
15082TIP3    H266662   2.397   6.407  17.125  0.3668 -0.8952 -1.6211
15083TIP3   OH266663   6.550   4.255  15.620  0.5857 -0.9382  0.0842
15083TIP3    H166664   6.625   4.296  15.665  0.3595 -1.6892  1.1895
15083TIP3    H266665   6.525   4.317  15.552  0.1851  0.8096  1.7789
15084TIP3   OH266666   0.845   5.661  11.422  0.3303 -0.3433 -0.5993
15084TIP3    H166667   0.788   5.638  11.496  1.3683 -2.8624 -0.5365
15084TIP3    H266668   0.790   5.649  11.345 -0.1956  0.4382 -0.3497
15085TIP3   OH266669   4.273   4.147  16.557 -0.3830 -0.7077  0.0996
15085TIP3    H166670   4.366   4.170  16.555 -0.7436  0.7934 -0.0713
15085TIP3    H266671   4.258   4.101  16.474  0.6192 -2.6760  0.9811
15086TIP3   OH266672   0.374   0.959  11.452 -0.1106  0.0775 -0.6520
15086TIP3    H166673   0.392   0.867  11.470 -0.7530 -0.3847 -2.3215
15086TIP3    H266674   0.449   0.989  11.402  0.1258  0.4883 -0.0588
15087TIP3   OH266675   1.327   2.426   0.401  0.3584  0.5446  0.3323
15087TIP3    H166676   1.410   2.422   0.449  0.6899 -3.4788 -0.4502
15087TIP3    H266677   1.262   2.394   0.464  0.0261 -0.0326 -0.3003
15088TIP3   OH266678   4.474   5.257   1.246  0.2634  0.3662  0.4947
15088TIP3    H166679   4.378   5.251   1.246  0.1548  1.6455 -1.3304
15088TIP3    H266680   4.503   5.173   1.282 -1.5189 -0.4020  0.2089
15089TIP3   OH266681   1.310   5.022   3.047  0.3865 -0.4802  0.5541
15089TIP3    H166682   1.364   4.946   3.025  1.8127  0.3146  1.1888
15089TIP3    H266683   1.329   5.085   2.978  0.5445 -0.0706  0.9679
15090TIP3   OH266684   4.117   3.002  12.448  0.2876 -0.0883  0.3957
15090TIP3    H166685   4.147   3.086  12.411  0.2562  0.2287  1.0788
15090TIP3    H266686   4.195   2.967  12.492 -0.1707  0.4368  1.6408
15091TIP3   OH266687   5.564   2.574  15.253 -0.3982 -0.3474 -0.1178
15091TIP3    H166688   5.569   2.618  15.338  0.1633 -2.2116  0.8360
15091TIP3    H266689   5.478   2.598  15.218 -0.3752  0.9342  0.6786
15092TIP3   OH266690   3.783   5.092   2.262  0.3173 -0.2835 -0.4617
15092TIP3    H166691   3.872   5.089   2.296 -0.2686  0.3684  1.1902
15092TIP3    H266692   3.735   5.147   2.324 -0.8194  0.8584 -2.3105
15093TIP3   OH266693   6.133   5.991  14.000 -0.1060 -0.6766  0.4339
15093TIP3    H166694   6.054   5.999  13.946 -0.2223 -1.8279  0.4138
15093TIP3    H266695   6.201   5.964  13.938  0.2841  0.2518  0.4607
15094TIP3   OH266696   0.386   6.182   3.498 -0.5276 -0.2548  0.1629
15094TIP3    H166697   0.321   6.221   3.440 -0.4692 -0.7906 -0.2698
15094TIP3    H266698   0.339   6.163   3.579 -0.9305 -0.7248 -0.1799
15095TIP3   OH266699   1.486   3.922   0.379  0.1087 -0.1354 -0.7244
15095TIP3    H166700   1.394   3.910   0.404 -0.1654 -0.7577 -2.0219
15095TIP3    H266701   1.485   3.926   0.284  1.1486  2.2570 -0.6600
15096TIP3   OH266702   4.414   2.516  14.009 -0.1863 -0.1029 -0.0345
15096TIP3    H166703   4.475   2.587  14.029 -0.9821  0.7440 -0.5255
15096TIP3    H266704   4.328   2.557  14.015 -0.6223 -0.8640 -1.0044
15097TIP3   OH266705   2.728   3.784  13.984  0.8291  0.2810 -0.6540
15097TIP3    H166706   2.722   3.804  14.077  2.4122  0.9128 -0.6688
15097TIP3    H266707   2.669   3.847  13.942 -0.4912 -0.5263 -0.0227
15098TIP3   OH266708   3.702   4.572  12.021  0.4830 -0.1617  0.0746
15098TIP3    H166709   3.741   4.623  12.093 -1.2545 -0.9001  1.5519
15098TIP3    H266710   3.764   4.501  12.006 -0.9037 -2.1482  3.3693
15099TIP3   OH266711   0.238   5.849   2.159  0.1296 -0.8302  0.2051
15099TIP3    H166712   0.186   5.928   2.171 -0.2346 -0.9604 -0.4990
15099TIP3    H266713   0.313   5.877   2.106  1.4048 -0.3943  2.1781
15100TIP3   OH266714   3.969   5.330  13.808 -0.5592 -0.0356  0.0347
15100TIP3    H166715   3.906   5.402  13.806  0.8699  1.2752  1.0022
15100TIP3    H266716   3.976   5.302  13.717 -1.8078  0.4520 -0.2203
15101TIP3   OH266717   3.538   2.386  11.108  0.7525 -0.0775  0.5760
15101TIP3    H166718   3.499   2.417  11.189  1.6255  0.3709  0.8351
15101TIP3    H266719   3.471   2.401  11.042  0.3787  0.4063  1.0612
15102TIP3   OH266720   4.074   6.403  14.882  0.0287 -0.9378  0.1469
15102TIP3    H166721   4.058   6.309  14.882  0.3972 -1.0216 -1.1958
15102TIP3    H266722   4.103   6.422  14.792 -0.8274  0.5834  0.1687
15103TIP3   OH266723   5.625   0.375   5.180  0.0517 -0.0181 -0.3013
15103TIP3    H166724   5.713   0.367   5.217 -0.2099  1.9010  0.8162
15103TIP3    H266725   5.598   0.285   5.161  0.6817 -0.9872  3.0928
15104TIP3   OH266726   5.505   3.591  14.212 -0.2896 -0.2161 -0.0246
15104TIP3    H166727   5.571   3.564  14.276  0.8655  1.2779 -0.5399
15104TIP3    H266728   5.507   3.522  14.145  0.0994 -0.6399  0.4185
15105TIP3   OH266729   2.793   3.959   5.027  0.7768 -0.0344  0.0762
15105TIP3    H166730   2.803   3.865   5.038  0.7728 -0.0474 -0.0277
15105TIP3    H266731   2.869   3.985   4.975  0.4188 -0.0843 -0.4698
15106TIP3   OH266732   0.017   0.327   3.365  0.1296  0.0923  0.0745
15106TIP3    H166733   0.069   0.343   3.444 -1.2425  1.6584  0.7086
15106TIP3    H266734   0.050   0.244   3.330  2.0555  0.3475  1.2274
15107TIP3   OH266735   0.615   0.739   1.895  0.2986 -0.4709  0.0287
15107TIP3    H166736   0.710   0.741   1.889  0.3663 -0.1079  1.0365
15107TIP3    H266737   0.592   0.821   1.940 -0.6212  0.2796 -1.7497
15108TIP3   OH266738   4.593   4.035  14.540 -0.1744 -0.1086 -0.0671
15108TIP3    H166739   4.523   3.994  14.490 -0.1148  0.9573 -1.0358
15108TIP3    H266740   4.548   4.074  14.615 -0.4352 -0.5644  0.0209
15109TIP3   OH266741   4.409   0.532   4.898 -0.0210 -0.0845 -0.2294
15109TIP3    H166742   4.423   0.493   4.812  0.6749  0.1174 -0.2087
15109TIP3    H266743   4.472   0.487   4.955  0.8456  1.1101 -0.2189
15110TIP3   OH266744   5.615   0.880  12.880 -0.1273 -0.1641  0.0243
15110TIP3    H166745   5.686   0.820  12.857  1.0340  1.4107 -0.5614
15110TIP3    H266746   5.636   0.909  12.969 -1.2933 -1.4786  0.7406
15111TIP3   OH266747   6.528   3.126   2.188 -0.2816 -0.2659 -0.1057
15111TIP3    H166748   6.589   3.054   2.204 -0.2077 -0.3219 -0.6422
15111TIP3    H266749   6.451   3.104   2.241 -0.0503 -0.4646  0.1521
15112TIP3   OH266750   0.587   1.601   3.437 -0.8282  0.0569 -0.4898
15112TIP3    H166751   0.617   1.520   3.396  1.6977  0.8619 -0.2739
15112TIP3    H266752   0.527   1.640   3.373 -0.2234 -0.7992 -1.5765
15113TIP3   OH266753   1.520   0.895   1.049 -0.0547  0.2715 -0.3131
15113TIP3    H166754   1.564   0.923   1.129 -1.2321  0.8676  0.1371
15113TIP3    H266755   1.438   0.943   1.049 -0.5125 -0.4944 -1.3761
15114TIP3   OH266756   1.932   1.955  12.803  0.4034  0.4498  0.2559
15114TIP3    H166757   1.995   1.909  12.858  1.5689 -0.6339 -1.9203
15114TIP3    H266758   1.980   2.030  12.768  0.8509 -0.9102 -2.1768
15115TIP3   OH266759   0.855   6.526   2.867  0.4542 -0.3955  0.2333
15115TIP3    H166760   0.808   6.462   2.814 -1.0191  2.5228 -2.1138
15115TIP3    H266761   0.940   6.537   2.823 -0.7236  1.9388 -1.5716
15116TIP3   OH266762   2.309   2.733  17.148 -0.1394 -0.1517 -0.0192
15116TIP3    H166763   2.355   2.662  17.103 -1.9626 -0.3204 -1.6777
15116TIP3    H266764   2.235   2.753  17.091 -1.3599  1.0319  1.9482
15117TIP3   OH266765   4.913   3.881   2.014  0.4788 -0.2957  0.1079
15117TIP3    H166766   4.985   3.939   2.036  1.0676 -0.9513 -0.0716
15117TIP3    H266767   4.940   3.837   1.933 -0.4910  0.0832 -0.4372
15118TIP3   OH266768   6.222   6.235   5.272 -0.0509 -0.6114  0.3550
15118TIP3    H166769   6.194   6.295   5.204  1.1566  1.0477  1.2728
15118TIP3    H266770   6.143   6.186   5.296 -1.1554  0.9412 -0.0863
15119TIP3   OH266771   6.445   2.218  14.782 -0.1365  0.5330 -0.1460
15119TIP3    H166772   6.537   2.192  14.791  0.3061  2.0878 -0.0885
15119TIP3    H266773   6.420   2.188  14.694 -0.0893 -1.3953  0.4685
15120TIP3   OH266774   3.246   5.913  13.689 -0.2132  0.3958 -0.2933
15120TIP3    H166775   3.313   5.979  13.671 -0.5825  0.9394  0.3147
15120TIP3    H266776   3.291   5.829  13.677  0.4004  0.7595 -0.5343
15121TIP3   OH266777   1.825   5.647  15.032 -0.1611 -0.2478 -0.0718
15121TIP3    H166778   1.834   5.645  14.937  0.3993  0.7458 -0.0422
15121TIP3    H266779   1.889   5.584  15.064 -0.0821 -0.3000 -0.3360
15122TIP3   OH266780   0.876   0.565   3.326 -0.2018 -0.1119  0.1099
15122TIP3    H166781   0.954   0.610   3.359 -0.6932 -0.0703  1.2023
15122TIP3    H266782   0.911   0.501   3.263  0.6769  0.2160  0.2528
15123TIP3   OH266783   5.201   0.780   4.099  0.7704 -0.3048 -0.0448
15123TIP3    H166784   5.213   0.708   4.161  1.0852 -0.5996 -0.4487
15123TIP3    H266785   5.113   0.767   4.064  1.0406 -0.8019 -0.5249
15124TIP3   OH266786   2.764   5.663  12.402  0.0899  0.1964 -0.1008
15124TIP3    H166787   2.695   5.602  12.430 -0.9956  1.0529 -0.8725
15124TIP3    H266788   2.745   5.744  12.451  0.2391  0.6017 -0.7125
15125TIP3   OH266789   4.943   4.197   2.394  0.0064  0.1347  0.4572
15125TIP3    H166790   4.928   4.263   2.326  1.3889 -0.1685 -0.1775
15125TIP3    H266791   4.868   4.205   2.453  0.0186  2.0992  0.2531
15126TIP3   OH266792   0.071   1.253  12.397  0.4653  0.1435  0.3388
15126TIP3    H166793   0.035   1.173  12.360  0.3316 -0.1309  1.0623
15126TIP3    H266794   0.004   1.285  12.457  1.1501 -0.0475  1.2289
15127TIP3   OH266795   3.791   5.785  12.946 -0.4742  0.5397 -0.2045
15127TIP3    H166796   3.709   5.832  12.940  0.8674  2.9958  0.2483
15127TIP3    H266797   3.805   5.772  13.040  0.3656  1.4169 -0.2058
15128TIP3   OH266798   3.045   5.477   1.185 -0.1766  0.1565 -0.0167
15128TIP3    H166799   3.139   5.458   1.175  0.1297  1.7446 -0.2469
15128TIP3    H266800   3.004   5.391   1.186  1.3051 -0.5772  0.3061
15129TIP3   OH266801   3.375   4.133   3.696  0.4602 -0.1728  0.3851
15129TIP3    H166802   3.287   4.169   3.687  1.6942  2.6892 -1.1931
15129TIP3    H266803   3.391   4.086   3.614  0.7637  0.2088  0.2218
15130TIP3   OH266804   5.900   4.558   0.961 -0.4121  0.5366  0.2201
15130TIP3    H166805   5.937   4.572   1.048  0.9249  2.6633 -0.6580
15130TIP3    H266806   5.950   4.485   0.924 -2.5604 -1.9929  2.0679
15131TIP3   OH266807   5.715   0.066  14.420  0.5588 -0.4997 -0.5547
15131TIP3    H166808   5.805   0.069  14.452  0.3565 -0.6309  0.0362
15131TIP3    H266809   5.719   0.010  14.342  0.7925 -1.4539  0.1351
15132TIP3   OH266810   0.735   5.751   4.024  0.0526  0.5766 -0.5044
15132TIP3    H166811   0.704   5.829   4.069 -0.2882 -0.9431  1.9869
15132TIP3    H266812   0.668   5.733   3.958 -0.6640  1.4804 -0.0260
15133TIP3   OH266813   6.011   3.113   3.447  0.5007  0.0518 -0.5848
15133TIP3    H166814   6.047   3.030   3.478 -0.6883 -0.5638 -0.8238
15133TIP3    H266815   5.965   3.149   3.524 -0.1425 -0.1792 -0.8533
15134TIP3   OH266816   0.133   0.306  14.165 -0.2813  0.1749 -0.2579
15134TIP3    H166817   0.137   0.402  14.162  0.7727  0.1631  0.4466
15134TIP3    H266818   0.054   0.287  14.216 -0.4343  0.6607 -0.3103
15135TIP3   OH266819   2.988   0.708   1.020  0.7523  0.1945 -0.5680
15135TIP3    H166820   3.036   0.665   0.949 -0.6667 -1.8546 -0.3178
15135TIP3    H266821   3.037   0.686   1.099  0.3718 -0.4579 -0.5121
15136TIP3   OH266822   4.423   6.460   5.530 -0.0977 -0.2856  0.3013
15136TIP3    H166823   4.511   6.426   5.548  0.1905  0.0398 -0.4503
15136TIP3    H266824   4.432   6.506   5.446 -1.0553 -0.5167  0.0659
15137TIP3   OH266825   1.669   6.226   4.872 -0.6620  0.2111 -0.4518
15137TIP3    H166826   1.702   6.136   4.870 -0.2176  0.2647  2.4063
15137TIP3    H266827   1.746   6.278   4.896 -0.9489  1.3719 -1.9805
15138TIP3   OH266828   5.869   3.357  13.456  0.0286  0.5182 -0.3253
15138TIP3    H166829   5.890   3.437  13.504 -1.8751 -0.9833  3.1705
15138TIP3    H266830   5.954   3.316  13.439  0.8063  1.6113  0.8178
15139TIP3   OH266831   2.957   4.366  11.345  0.0324 -0.6469 -0.0123
15139TIP3    H166832   2.960   4.271  11.348  2.3349 -0.6063  0.5900
15139TIP3    H266833   2.983   4.394  11.433  0.4566  0.5306 -0.4943
15140TIP3   OH266834   6.774   4.126  14.214 -0.3747 -0.5667  0.0079
15140TIP3    H166835   6.711   4.056  14.230 -0.4476 -0.8946 -1.6924
15140TIP3    H266836   6.728   4.205  14.243 -1.1878 -0.9308 -0.2535
15141TIP3   OH266837   5.651   1.084   2.719 -0.3600  0.2910  0.3002
15141TIP3    H166838   5.616   1.055   2.803 -0.3678 -2.6493 -0.6939
15141TIP3    H266839   5.593   1.046   2.654  0.6175  1.1912 -1.1303
15142TIP3   OH266840   6.498   3.996   0.122  0.1261  0.5569  0.0433
15142TIP3    H166841   6.499   3.901   0.109 -0.0003  0.7422 -1.3155
15142TIP3    H266842   6.455   4.007   0.208  0.0754 -0.6042  0.1779
15143TIP3   OH266843   2.708   0.295   6.224 -0.3076 -0.2597  0.6418
15143TIP3    H166844   2.699   0.203   6.200 -0.0311 -0.5211  1.5225
15143TIP3    H266845   2.737   0.293   6.315 -0.3083  0.6993  0.6652
15144TIP3   OH266846   5.932   3.389   2.516 -0.1024 -0.4958 -0.2976
15144TIP3    H166847   6.023   3.409   2.535 -0.3063 -1.7679  2.1513
15144TIP3    H266848   5.886   3.472   2.526  0.5878 -0.1068 -0.3430
15145TIP3   OH266849   5.102   5.412  17.181 -0.2656 -0.2919 -0.3654
15145TIP3    H166850   5.183   5.392  17.134  0.0226  1.8223 -0.8196
15145TIP3    H266851   5.067   5.490  17.137 -1.2643  0.2584  1.3515
15146TIP3   OH266852   4.095   1.106  10.749  0.7801 -0.4184  0.3876
15146TIP3    H166853   4.171   1.136  10.701  0.0329  0.9527  0.0466
15146TIP3    H266854   4.036   1.071  10.682  0.5916 -0.3684  0.5254
15147TIP3   OH266855   3.342   4.180   5.801  0.3403 -0.0091 -0.0334
15147TIP3    H166856   3.270   4.242   5.792 -0.0174 -0.1783  1.5113
15147TIP3    H266857   3.364   4.155   5.712 -2.4687 -1.0438 -0.4815
15148TIP3   OH266858   1.841   6.108   6.477 -0.1020  0.2974 -0.1809
15148TIP3    H166859   1.765   6.106   6.535  1.4256 -0.4027  1.9075
15148TIP3    H266860   1.887   6.188   6.500  0.0953  0.4221 -1.0034
15149TIP3   OH266861   4.655   4.993   4.008 -0.6408  0.6059 -0.1587
15149TIP3    H166862   4.593   5.012   4.079 -0.6578  0.0539 -0.0268
15149TIP3    H266863   4.710   5.071   4.002 -0.0061  0.2571  1.1128
15150TIP3   OH266864   4.447   0.034   1.619  0.1019  0.6086  0.4312
15150TIP3    H166865   4.434  -0.061   1.619  0.8495  0.5013 -0.2491
15150TIP3    H266866   4.517   0.048   1.684 -0.0234  0.6973  0.5466
15151TIP3   OH266867   3.672   0.191  16.044 -0.2675  0.0311  0.1423
15151TIP3    H166868   3.637   0.130  16.108  1.1756  0.6163  1.5241
15151TIP3    H266869   3.762   0.161  16.027  0.5786  1.8861  1.0798
15152TIP3   OH266870   0.941   1.961   3.095  0.3712 -0.0909  0.0292
15152TIP3    H166871   0.873   1.955   3.162  0.2512  0.6360 -0.0216
15152TIP3    H266872   0.894   1.988   3.016  0.4165 -1.5141 -0.5094
15153TIP3   OH266873   6.289   6.623  12.178  0.6547  0.1790  0.2506
15153TIP3    H166874   6.241   6.603  12.097  1.1293  2.2813 -0.6014
15153TIP3    H266875   6.222   6.655  12.238  0.5961  0.6711 -0.0676
15154TIP3   OH266876   0.776   4.619   0.844 -0.7564  0.0031 -0.0577
15154TIP3    H166877   0.840   4.687   0.867 -1.3218  0.6242 -0.2863
15154TIP3    H266878   0.827   4.539   0.837  0.2126  0.7225 -1.4831
15155TIP3   OH266879   2.959   0.749   6.456 -0.0434 -0.5452  0.6721
15155TIP3    H166880   2.905   0.825   6.476  1.6877  0.5559  1.1931
15155TIP3    H266881   3.049   0.780   6.461  0.7399 -2.8371  1.8374
15156TIP3   OH266882   2.518   4.884   0.662 -0.0428 -0.2159  0.0076
15156TIP3    H166883   2.520   4.789   0.647 -0.0471 -0.5963  2.2651
15156TIP3    H266884   2.593   4.901   0.718  0.1610  1.1778 -0.6812
15157TIP3   OH266885   6.148   4.224   2.822 -0.1825  0.2985 -0.5238
15157TIP3    H166886   6.064   4.189   2.852 -0.1187  0.5562 -0.0360
15157TIP3    H266887   6.202   4.147   2.805 -0.2148  0.1462  0.0502
15158TIP3   OH266888   5.992   5.877   2.288  0.5255 -0.5707 -0.2441
15158TIP3    H166889   6.029   5.949   2.339  0.7432 -0.6554 -0.2813
15158TIP3    H266890   5.969   5.811   2.354 -1.5281  0.3390 -0.0166
15159TIP3   OH266891   5.424   3.462  14.573  0.2085 -0.3307  0.1896
15159TIP3    H166892   5.487   3.519  14.619  2.4560 -0.9980 -1.9742
15159TIP3    H266893   5.445   3.374  14.605 -0.1392 -0.4789  0.0044
15160TIP3   OH266894   2.097   0.221  14.305 -0.3030 -0.8641 -0.6199
15160TIP3    H166895   2.103   0.180  14.391  2.0039 -0.5066 -0.5742
15160TIP3    H266896   2.044   0.300  14.319  0.4103 -0.5848  0.5728
15161TIP3   OH266897   4.082   0.449  16.879  0.2700 -0.1994 -0.3257
15161TIP3    H166898   4.126   0.525  16.840 -0.3012 -0.4005 -1.3920
15161TIP3    H266899   4.045   0.483  16.961  2.5349 -0.0838  0.6934
15162TIP3   OH266900   6.185   6.660   4.392 -0.1977 -0.1362 -0.0899
15162TIP3    H166901   6.189   6.668   4.487  0.2444  0.2363 -0.1368
15162TIP3    H266902   6.234   6.736   4.360 -2.6486  1.2564 -0.6552
15163TIP3   OH266903   1.151   2.762   5.213 -0.2122  0.0684 -0.5616
15163TIP3    H166904   1.107   2.718   5.286  0.0071 -0.4437 -0.7380
15163TIP3    H266905   1.105   2.730   5.135  1.2672 -1.4276 -0.8413
15164TIP3   OH266906   2.147   2.456   0.586  0.1819 -0.0999 -0.3321
15164TIP3    H166907   2.216   2.460   0.520  1.4001  3.1408  1.0561
15164TIP3    H266908   2.193   2.440   0.669 -0.9188 -0.0811  0.3013
15165TIP3   OH266909   0.309   6.552  11.966 -0.0747  0.3274  0.3466
15165TIP3    H166910   0.232   6.580  11.916 -0.5581 -0.4476  0.6542
15165TIP3    H266911   0.383   6.586  11.915 -0.4130 -2.9786 -2.5629
15166TIP3   OH266912   3.528   0.407  12.834 -0.6351 -0.2269  0.2935
15166TIP3    H166913   3.503   0.359  12.914  0.4665 -0.1591  0.6867
15166TIP3    H266914   3.461   0.474  12.824 -0.3943  0.2069  1.5538
15167TIP3   OH266915   0.449   6.123  12.012  0.1641  0.4819  0.0618
15167TIP3    H166916   0.434   6.032  12.039  2.1108 -0.2650 -1.3301
15167TIP3    H266917   0.465   6.169  12.094  1.8535 -0.9554  0.5712
15168TIP3   OH266918   1.697   1.273   4.374 -0.2686  0.1142 -0.3506
15168TIP3    H166919   1.675   1.206   4.438  1.7121 -0.5797 -0.3707
15168TIP3    H266920   1.750   1.336   4.423  2.2369 -1.0096 -1.5377
15169TIP3   OH266921   0.598   1.323   0.344  0.0795  0.7270  0.0466
15169TIP3    H166922   0.637   1.410   0.353  0.9520  0.4006 -0.5089
15169TIP3    H266923   0.660   1.275   0.290  0.1165 -0.5645  1.2070
15170TIP3   OH266924   6.465   4.235  13.181  0.1473  0.6002 -0.2280
15170TIP3    H166925   6.437   4.163  13.237  1.8435 -0.1824 -0.3596
15170TIP3    H266926   6.390   4.294  13.178 -1.0026 -0.8115  0.4596
15171TIP3   OH266927   5.306   0.321   4.932 -0.0047  0.6221 -0.1704
15171TIP3    H166928   5.262   0.239   4.951  0.2785  0.4945 -0.0629
15171TIP3    H266929   5.296   0.373   5.013 -0.8607  0.9989 -0.5088
15172TIP3   OH266930   5.337   1.812   1.931 -0.5139 -0.1220 -0.4324
15172TIP3    H166931   5.309   1.723   1.952 -0.1047  0.4068  2.5723
15172TIP3    H266932   5.429   1.815   1.957 -0.2734  0.9260 -1.3759
15173TIP3   OH266933   2.548   0.402   6.046  0.4796 -0.5106 -0.2700
15173TIP3    H166934   2.575   0.484   6.006 -1.5027  0.2230 -0.2051
15173TIP3    H266935   2.619   0.380   6.106  0.8302  1.4305  0.0725
15174TIP3   OH266936   3.629   6.252   1.245  0.2650 -0.4081  0.2251
15174TIP3    H166937   3.557   6.262   1.306 -0.5219 -0.3015 -0.7049
15174TIP3    H266938   3.704   6.292   1.288 -0.5713  0.7665  0.5953
15175TIP3   OH266939   4.594   2.000   5.623 -0.1940  0.7396 -0.0945
15175TIP3    H166940   4.629   1.927   5.675 -2.0079  0.4184  0.6873
15175TIP3    H266941   4.670   2.057   5.609  0.6620  0.0623  1.5956
15176TIP3   OH266942   3.213   4.715  16.462  0.1509  0.0892  0.4692
15176TIP3    H166943   3.190   4.786  16.401 -0.9218  0.5149  1.3577
15176TIP3    H266944   3.206   4.636  16.409 -1.2565  0.4150  0.1574
15177TIP3   OH266945   2.834   1.272   0.678  0.5312  0.3349  0.0286
15177TIP3    H166946   2.775   1.216   0.627 -1.0720  1.6310  0.4454
15177TIP3    H266947   2.885   1.319   0.611 -0.4700  0.8715 -0.3592
15178TIP3   OH266948   0.685   2.989  15.502  0.5890 -0.4911  0.4206
15178TIP3    H166949   0.773   3.020  15.481  1.2093 -1.7501  1.1645
15178TIP3    H266950   0.641   2.982  15.417  1.1647  0.2250  0.0585
15179TIP3   OH266951   1.887   0.753  17.142 -0.2205  0.3500  0.2468
15179TIP3    H166952   1.894   0.742  17.236  0.7607  0.1779  0.1665
15179TIP3    H266953   1.881   0.663  17.108  2.6383  0.2304 -0.0645
15180TIP3   OH266954   2.991   2.458  17.229 -0.0255  0.1951 -0.1527
15180TIP3    H166955   3.047   2.497  17.162 -1.1256 -0.1721 -1.2872
15180TIP3    H266956   3.041   2.467  17.310  1.6290 -0.0126 -1.1341
15181TIP3   OH266957   3.580   3.771  10.965 -0.1947  0.5110 -0.2236
15181TIP3    H166958   3.655   3.733  11.011 -0.4254  0.2769 -0.0375
15181TIP3    H266959   3.566   3.855  11.008 -0.2075  0.4350 -0.0753
15182TIP3   OH266960   1.529   2.617   1.003 -0.0279 -0.2161  0.0649
15182TIP3    H166961   1.434   2.627   1.003  0.1077  1.1994  0.8819
15182TIP3    H266962   1.562   2.704   1.028  1.4933 -0.4781 -0.9833
15183TIP3   OH266963   2.172   3.425  15.908 -0.5406  0.3567 -0.7560
15183TIP3    H166964   2.194   3.517  15.917 -2.2311  0.7640 -0.5511
15183TIP3    H266965   2.097   3.424  15.848  0.4727 -1.0165 -2.0365
15184TIP3   OH266966   5.148   3.655  15.913  0.0479 -0.0999 -0.2391
15184TIP3    H166967   5.235   3.688  15.890 -0.3177  1.6717  0.8381
15184TIP3    H266968   5.100   3.654  15.831 -0.0469  2.4538 -0.2568
15185TIP3   OH266969   6.705   6.056  15.307  0.0978  0.1965 -0.1676
15185TIP3    H166970   6.660   6.137  15.328  0.5450  0.1556  0.9378
15185TIP3    H266971   6.796   6.082  15.288  0.1930 -0.0190 -0.0149
15186TIP3   OH266972   1.152   5.573  11.666 -0.3963 -0.3332  0.7285
15186TIP3    H166973   1.190   5.661  11.668  1.5908 -1.1723  0.8156
15186TIP3    H266974   1.152   5.549  11.574  1.2900 -1.1499  0.9124
15187TIP3   OH266975   2.638   5.339  14.437 -0.3604  0.4508  0.0334
15187TIP3    H166976   2.654   5.410  14.499 -0.7356 -0.2898  0.9870
15187TIP3    H266977   2.698   5.356  14.365  0.5984  0.9055  0.9315
15188TIP3   OH266978   1.386   0.362  15.646  0.0391 -0.2814 -0.2549
15188TIP3    H166979   1.305   0.372  15.597  0.5531 -0.2185 -1.1050
15188TIP3    H266980   1.450   0.331  15.581  1.0981  1.2242  0.0455
15189TIP3   OH266981   0.266   1.257  17.139  0.2311  0.1443 -0.1959
15189TIP3    H166982   0.185   1.246  17.089 -0.3402  1.4078  0.4217
15189TIP3    H266983   0.237   1.269  17.229  0.9565  2.4566 -0.2155
15190TIP3   OH266984   4.007   4.085   1.659  0.6083  0.0984 -0.3665
15190TIP3    H166985   4.074   4.152   1.642  1.0555  0.2958  1.9875
15190TIP3    H266986   4.056   4.007   1.684  0.0022  0.1156  0.9429
15191TIP3   OH266987   0.433   1.814  13.068  0.0252 -0.1846  0.0784
15191TIP3    H166988   0.357   1.852  13.022  0.5979  1.1712  0.2259
15191TIP3    H266989   0.396   1.741  13.118 -0.9537 -0.3889 -0.9077
15192TIP3   OH266990   3.846   4.724   1.185 -0.3687 -0.0599  0.0303
15192TIP3    H166991   3.752   4.707   1.196 -0.6718  1.2142 -0.4515
15192TIP3    H266992   3.885   4.637   1.175 -1.3741 -0.6606  1.1271
15193TIP3   OH266993   5.886   1.957   1.079  0.5372 -0.3252  0.6738
15193TIP3    H166994   5.814   1.921   1.131 -1.5281  1.0841 -1.1361
15193TIP3    H266995   5.888   1.902   1.000 -0.2443  1.1725 -0.4218
15194TIP3   OH266996   1.816   2.622  14.554  0.2440  0.5848  0.1000
15194TIP3    H166997   1.856   2.637  14.468 -1.2048  0.9434 -0.5295
15194TIP3    H266998   1.828   2.704  14.601 -0.3707  0.9433 -0.3539
15195TIP3   OH266999   3.017   5.143  12.415  0.2395 -0.4628 -0.3953
15195TIP3    H167000   3.084   5.091  12.459 -1.2886 -1.6842  0.5233
15195TIP3    H267001   2.958   5.170  12.485  0.3198  1.4884 -1.0410
15196TIP3   OH267002   0.051   6.363  15.897  0.6234 -0.4654 -0.4768
15196TIP3    H167003   0.134   6.410  15.891  0.1450  0.1345 -3.3309
15196TIP3    H267004   0.010   6.396  15.976  2.2803  0.5914 -0.0308
15197TIP3   OH267005   4.176   2.493   5.347  0.0042 -0.0904  0.0040
15197TIP3    H167006   4.100   2.551   5.346  0.3907  0.4156 -0.6474
15197TIP3    H267007   4.251   2.552   5.353  0.4413 -0.4531 -1.5354
15198TIP3   OH267008   0.828   5.138   0.278 -0.0076  0.1011  0.2327
15198TIP3    H167009   0.907   5.178   0.312  1.1672 -2.5785  0.7788
15198TIP3    H267010   0.822   5.169   0.187  1.6448  0.3424  0.1938
15199TIP3   OH267011   2.249   1.978  14.833 -0.2270 -0.0300 -0.2646
15199TIP3    H167012   2.340   2.003  14.850  0.1862 -1.6663 -0.0097
15199TIP3    H267013   2.197   2.039  14.886  0.7847 -0.1529  0.8889
15200TIP3   OH267014   1.184   0.834  15.767 -0.3803  0.7894  0.4880
15200TIP3    H167015   1.213   0.846  15.858 -0.1010 -0.7635  0.6317
15200TIP3    H267016   1.261   0.798  15.723 -0.4416  1.7720 -0.4328
15201TIP3   OH267017   5.040   3.990  16.236  0.2913 -0.3555  0.1195
15201TIP3    H167018   5.093   3.967  16.160  0.4358 -1.2551  0.4936
15201TIP3    H267019   5.084   3.949  16.310 -0.2015 -0.0085  0.6119
15202TIP3   OH267020   1.556   0.610   2.939  0.8525  0.1788 -0.3862
15202TIP3    H167021   1.564   0.573   3.027 -0.9697  0.8234  0.0644
15202TIP3    H267022   1.613   0.555   2.885  0.3462 -1.5494  0.7877
15203TIP3   OH267023   3.085   6.645   2.245  0.1684  0.5036  0.1599
15203TIP3    H167024   3.141   6.723   2.236 -0.1317  0.4574 -2.3451
15203TIP3    H267025   3.146   6.575   2.271  0.9718  0.8544 -0.7632
15204TIP3   OH267026   5.449   1.768  16.201  0.2837  0.1177 -0.6041
15204TIP3    H167027   5.530   1.736  16.161 -0.4491 -0.7395 -1.4175
15204TIP3    H267028   5.478   1.839  16.258  1.5919 -0.0426 -1.0362
15205TIP3   OH267029   4.257   0.285  15.348 -0.2009 -0.0182  0.2439
15205TIP3    H167030   4.254   0.356  15.283  1.0395  0.8941  1.1383
15205TIP3    H267031   4.299   0.212  15.303  1.4680  0.9060  0.2514
15206TIP3   OH267032   3.511   5.108   6.777  0.3465 -0.0443  0.4596
15206TIP3    H167033   3.587   5.099   6.720  1.8693  2.4742  1.9956
15206TIP3    H267034   3.455   5.035   6.754  2.8531 -1.4832 -1.2958
15207TIP3   OH267035   5.155   4.401   1.116  0.0152  0.3639  0.6507
15207TIP3    H167036   5.117   4.360   1.038 -1.0897 -0.3933  1.5755
15207TIP3    H267037   5.212   4.470   1.081  1.2033 -1.3420 -0.9000
15208TIP3   OH267038   0.389   0.188   1.915 -0.1466 -0.3149  0.5008
15208TIP3    H167039   0.344   0.260   1.869 -0.3539  0.2419  1.5520
15208TIP3    H267040   0.319   0.138   1.956  0.0731 -0.4165  0.7569
15209TIP3   OH267041   2.763   0.081  16.908  0.1489  0.1409  0.4289
15209TIP3    H167042   2.800   0.121  16.986  2.0332 -0.2358 -0.2419
15209TIP3    H267043   2.839   0.047  16.860 -1.0236 -0.1748 -1.2591
15210TIP3   OH267044   1.935   3.537   3.632  0.4870  0.1716 -0.0135
15210TIP3    H167045   1.847   3.501   3.643 -0.6115  2.5309 -0.8111
15210TIP3    H267046   1.937   3.613   3.689  0.9868  1.8299 -2.1805
15211TIP3   OH267047   6.701   4.365   0.488 -0.1568  0.4530  0.2439
15211TIP3    H167048   6.681   4.272   0.498 -0.5684  0.4917 -0.2208
15211TIP3    H267049   6.630   4.400   0.435  0.5633  0.8127 -0.5018
15212TIP3   OH267050   1.730   6.394   0.804 -0.3174 -0.1381  0.2622
15212TIP3    H167051   1.778   6.380   0.885 -1.1283  0.9449  0.9523
15212TIP3    H267052   1.641   6.363   0.823 -0.8932  1.4689  0.2873
15213TIP3   OH267053   0.730   5.287  15.715 -0.0165 -0.3611  1.1490
15213TIP3    H167054   0.726   5.191  15.722 -1.4066 -0.5144 -1.1092
15213TIP3    H267055   0.673   5.308  15.641  0.1909  2.2420  1.6675
15214TIP3   OH267056   0.844   3.702   2.528 -0.2846 -0.0920  0.4480
15214TIP3    H167057   0.807   3.620   2.561  1.0049 -0.1852  1.7285
15214TIP3    H267058   0.935   3.700   2.557 -0.0366  1.4471 -0.1873
15215TIP3   OH267059   3.000   0.913  12.246 -0.1066 -0.1830  0.6138
15215TIP3    H167060   2.959   0.831  12.275 -0.4498 -0.5131 -0.7689
15215TIP3    H267061   2.949   0.939  12.169 -0.0581  1.3784  1.1010
15216TIP3   OH267062   1.093   6.707   2.972 -0.1892 -0.2729  0.2512
15216TIP3    H167063   1.189   6.712   2.976 -0.1235  0.9078 -1.8916
15216TIP3    H267064   1.071   6.747   2.888 -2.7198  1.1582  1.5595
15217TIP3   OH267065   5.704   1.731  16.781 -0.1206  0.1815 -0.5492
15217TIP3    H167066   5.772   1.671  16.749 -0.1808  0.0165 -0.3687
15217TIP3    H267067   5.727   1.816  16.743 -0.2722 -0.0415 -1.1367
15218TIP3   OH267068   4.871   4.576   1.827  0.5416  0.0516 -0.4676
15218TIP3    H167069   4.961   4.563   1.857 -0.2291 -0.6472  1.6169
15218TIP3    H267070   4.874   4.658   1.777  2.4919 -0.4426 -1.2104
15219TIP3   OH267071   0.462   1.538   5.264 -0.1745  0.4347  0.5684
15219TIP3    H167072   0.417   1.615   5.228 -1.2248 -0.2950  0.2895
15219TIP3    H267073   0.394   1.471   5.268  0.5292 -0.2276  1.6115
15220TIP3   OH267074   6.578   4.830  16.571 -0.4611  0.0981  0.2759
15220TIP3    H167075   6.622   4.809  16.488 -1.6384 -0.2971 -0.2498
15220TIP3    H267076   6.647   4.872  16.624  1.2029 -2.6251  0.3465
15221TIP3   OH267077   0.415   5.071   3.090  0.0389  0.4517  0.1506
15221TIP3    H167078   0.447   5.087   3.179  1.3842  2.1524 -0.6004
15221TIP3    H267079   0.417   5.157   3.048 -2.1140 -0.0570 -1.0530
15222TIP3   OH267080   0.661   3.703   5.685 -0.0091 -0.2624  0.3445
15222TIP3    H167081   0.703   3.736   5.764  0.5168 -0.4939  0.1654
15222TIP3    H267082   0.732   3.694   5.622 -0.5042  0.4079 -0.3225
15223TIP3   OH267083   6.429   2.144  15.470  0.1341 -0.0106  0.4118
15223TIP3    H167084   6.413   2.211  15.537  1.8584  1.1234 -0.2552
15223TIP3    H267085   6.517   2.112  15.489  0.3992 -0.1227 -0.9235
15224TIP3   OH267086   0.043   6.397  14.399 -0.0897  0.1957  0.1967
15224TIP3    H167087   0.049   6.456  14.474 -0.1127  0.3816  0.0502
15224TIP3    H267088   0.053   6.309  14.437 -0.3691  0.2761  0.4519
15225TIP3   OH267089   0.696   2.222  15.590  0.5368 -0.0092 -0.0508
15225TIP3    H167090   0.669   2.142  15.635  0.5055 -1.2777 -2.2924
15225TIP3    H267091   0.618   2.276  15.588  0.7681  0.4659  2.2095
15226TIP3   OH267092   5.999   6.283   1.433  0.1903  0.2809 -0.7088
15226TIP3    H167093   5.949   6.203   1.414 -0.4292  0.6513 -0.6575
15226TIP3    H267094   5.934   6.343   1.471  1.5333 -0.8106  3.5959
15227TIP3   OH267095   0.644   1.928   2.206  0.0716 -0.1921 -0.2382
15227TIP3    H167096   0.581   1.985   2.162  1.0081  2.6777  1.9288
15227TIP3    H267097   0.718   1.986   2.227  2.1421 -2.7705 -0.0396
15228TIP3   OH267098   3.173   2.936   2.260 -0.5717  0.2155 -0.0618
15228TIP3    H167099   3.134   2.993   2.193 -0.5868  0.1785 -0.0840
15228TIP3    H267100   3.098   2.903   2.310 -0.5169  0.8073  0.4232
15229TIP3   OH267101   4.946   2.086  10.324  0.2789 -0.2751  0.7133
15229TIP3    H167102   5.024   2.093  10.268 -0.1956  0.8977  0.1715
15229TIP3    H267103   4.942   2.171  10.369 -1.1015 -0.0379  0.1751
15230TIP3   OH267104   1.686   4.176  15.002  0.1660  0.3914 -0.2051
15230TIP3    H167105   1.655   4.119  14.932 -2.2454  1.4277 -0.0700
15230TIP3    H267106   1.711   4.257  14.957 -3.2507  1.7830  0.2148
15231TIP3   OH267107   2.400   1.749  16.684 -0.0415 -0.5123  0.1114
15231TIP3    H167108   2.472   1.763  16.622 -0.7427  0.8570 -0.4185
15231TIP3    H267109   2.440   1.700  16.756  0.9402 -1.5245 -1.1048
15232TIP3   OH267110   4.977   1.177   3.884 -0.1736 -0.2929 -0.3270
15232TIP3    H167111   4.899   1.226   3.859  0.1417 -0.4865 -1.7403
15232TIP3    H267112   4.947   1.117   3.952 -0.9458  0.6011  0.1213
15233TIP3   OH267113   4.642   4.450  17.131 -0.3232 -0.6813  0.2885
15233TIP3    H167114   4.665   4.361  17.159  0.3687 -0.3669  0.7457
15233TIP3    H267115   4.549   4.458  17.150 -0.1881 -0.9930  1.1118
15234TIP3   OH267116   2.551   5.677   1.513  0.1911  0.0706 -0.1693
15234TIP3    H167117   2.537   5.584   1.533  1.8901  0.2878  2.2367
15234TIP3    H267118   2.646   5.687   1.515 -0.0409  2.1974  1.3212
15235TIP3   OH267119   0.964   3.277  13.808 -0.1471  0.0707  0.3002
15235TIP3    H167120   1.044   3.326  13.824  0.6583 -1.4034  0.9204
15235TIP3    H267121   0.992   3.186  13.804 -1.6996 -0.4099 -0.1434
15236TIP3   OH267122   1.089   1.908   3.329 -0.5400  0.3132  0.1492
15236TIP3    H167123   1.018   1.847   3.348 -2.2014  2.3569  0.6404
15236TIP3    H267124   1.054   1.994   3.351  1.2183  1.6328 -1.9975
15237TIP3   OH267125   6.586   1.482   5.461  0.9335 -0.3235 -0.6147
15237TIP3    H167126   6.618   1.500   5.550  1.3779  1.1909 -1.0717
15237TIP3    H267127   6.541   1.563   5.436  0.2931 -0.9739 -1.5386
15238TIP3   OH267128   3.286   4.912   6.226  0.6869  0.5837  0.3909
15238TIP3    H167129   3.241   4.835   6.261  0.5210  0.2047 -0.6443
15238TIP3    H267130   3.365   4.919   6.279  0.3611  0.1080  0.9489
15239TIP3   OH267131   5.551   1.992   3.346  0.4851 -0.1112  0.1960
15239TIP3    H167132   5.564   1.935   3.270 -0.0355  0.5728 -0.4257
15239TIP3    H267133   5.553   2.081   3.309 -0.3996  0.2074  0.8826
15240TIP3   OH267134   5.326   0.482  11.182  0.1133 -0.1306 -0.2899
15240TIP3    H167135   5.267   0.497  11.256  1.2350  0.6776  0.4638
15240TIP3    H267136   5.351   0.570  11.153 -0.9217 -0.4155 -2.1517
15241TIP3   OH267137   6.374   0.881   4.754  0.0917  0.3608  0.0792
15241TIP3    H167138   6.384   0.812   4.688  1.0131 -0.0541  0.6286
15241TIP3    H267139   6.346   0.835   4.833  0.6011  0.6180  0.4183
15242TIP3   OH267140   5.701   0.288   5.813  0.3767  0.3971 -0.0830
15242TIP3    H167141   5.730   0.342   5.887  0.6334  1.8929 -1.2418
15242TIP3    H267142   5.605   0.297   5.813  0.2703 -0.6415  0.8261
15243TIP3   OH267143   5.912   2.533  15.270  0.6242 -0.6125 -0.5788
15243TIP3    H167144   5.834   2.502  15.316  0.4065  0.7631  0.0116
15243TIP3    H267145   5.887   2.619  15.236  1.5512 -0.6062 -1.2581
15244TIP3   OH267146   1.865   4.317   2.502  0.7307 -0.2575  0.5439
15244TIP3    H167147   1.930   4.318   2.571  0.1826 -1.7486  1.0917
15244TIP3    H267148   1.886   4.239   2.450  0.0408 -0.1465  0.0902
15245TIP3   OH267149   5.862   2.401  14.142  0.0215  0.4393 -0.1062
15245TIP3    H167150   5.795   2.351  14.189 -0.5157  1.2502  0.0098
15245TIP3    H267151   5.933   2.412  14.205  0.0697 -0.0357 -0.0785
15246TIP3   OH267152   0.509   0.681   0.719  0.0990  0.5099 -0.3345
15246TIP3    H167153   0.441   0.723   0.666 -0.5565 -1.5074 -1.1197
15246TIP3    H267154   0.462   0.626   0.780  0.9270  1.6059  1.3281
15247TIP3   OH267155   3.326   3.113  14.047 -0.6739 -0.4375  0.6207
15247TIP3    H167156   3.233   3.093  14.039 -0.6944 -0.2582  0.4028
15247TIP3    H267157   3.329   3.201  14.086 -0.6341  0.5575 -1.5651
15248TIP3   OH267158   4.852   0.703  15.991  0.3720  0.0663  0.1303
15248TIP3    H167159   4.849   0.753  15.910 -1.1833 -0.2606 -0.0382
15248TIP3    H267160   4.873   0.768  16.059  0.7305  0.5094 -0.4074
15249TIP3   OH267161   0.034   4.668  13.037  0.3684  0.5814  0.0706
15249TIP3    H167162   0.056   4.676  13.129 -1.8535 -0.0458  0.6941
15249TIP3    H267163  -0.052   4.709  13.029 -0.2462 -0.9303 -1.3836
15250TIP3   OH267164   1.530   2.574  14.627 -0.6598  0.1205 -0.3039
15250TIP3    H167165   1.593   2.611  14.566 -0.5006  2.4207  1.1851
15250TIP3    H267166   1.571   2.493  14.658  0.6550  0.5436 -0.9026
15251TIP3   OH267167   1.197   6.457  17.191  0.2250  0.6425 -0.1817
15251TIP3    H167168   1.265   6.443  17.125  0.3765  0.1686  0.0766
15251TIP3    H267169   1.202   6.551  17.210  1.1716  0.5129  0.2261
15252TIP3   OH267170   5.368   0.738  12.922  0.4300  0.2203  0.2519
15252TIP3    H167171   5.430   0.811  12.911 -0.3598  0.8745  0.1330
15252TIP3    H267172   5.424   0.660  12.928  1.1913  0.6103 -1.6251
15253TIP3   OH267173   5.117   5.565  11.614 -0.0129  0.4121  0.1091
15253TIP3    H167174   5.191   5.505  11.619 -0.4435 -0.0820  0.7270
15253TIP3    H267175   5.044   5.515  11.651 -0.5190  1.0941  0.0357
15254TIP3   OH267176   2.202   5.646  14.756  0.1550  0.0343 -0.0481
15254TIP3    H167177   2.239   5.648  14.844 -0.9868 -0.8349  0.4628
15254TIP3    H267178   2.278   5.654  14.697  1.1855 -2.1901  0.9477
15255TIP3   OH267179   4.716   0.082  14.036 -0.2506 -0.9479  0.2923
15255TIP3    H167180   4.730   0.040  14.121 -0.1944  0.1555  0.8482
15255TIP3    H267181   4.762   0.026  13.974  0.0467 -1.5576  1.0440
15256TIP3   OH267182   2.755   4.314  15.303  0.1765 -0.3661  0.0469
15256TIP3    H167183   2.731   4.406  15.317 -0.8728 -0.4578 -1.1262
15256TIP3    H267184   2.719   4.269  15.379  1.4927  0.3109  1.1000
15257TIP3   OH267185   5.472   3.520   4.170 -0.1342  0.6133 -0.1529
15257TIP3    H167186   5.490   3.565   4.087  2.8635  2.5702  1.4614
15257TIP3    H267187   5.526   3.441   4.166 -1.4331 -0.2578 -0.8180
15258TIP3   OH267188   2.372   2.236   2.200  0.3300  0.1743  0.4724
15258TIP3    H167189   2.390   2.329   2.218 -1.8112  0.5690  0.7927
15258TIP3    H267190   2.370   2.230   2.105  2.5372  0.0028  0.4096
15259TIP3   OH267191   4.095   0.912   5.570  0.1433 -0.3056  0.2775
15259TIP3    H167192   4.009   0.888   5.604  0.1412 -0.9259 -0.1582
15259TIP3    H267193   4.089   0.897   5.476  0.9250 -0.9521  0.3266
15260TIP3   OH267194   6.484   2.277  13.153 -0.3716 -0.3452  0.1007
15260TIP3    H167195   6.537   2.251  13.229 -0.5804 -0.8131  0.0846
15260TIP3    H267196   6.503   2.370  13.142  2.2276 -1.0119 -1.3182
15261TIP3   OH267197   0.210   2.826  13.659 -0.1402 -0.2989 -0.3312
15261TIP3    H167198   0.197   2.816  13.754  2.0383  5.3624  0.7407
15261TIP3    H267199   0.305   2.820  13.648 -0.1409  1.9208 -1.7120
15262TIP3   OH267200   2.686   0.756  14.105 -0.5746  0.1633  0.2944
15262TIP3    H167201   2.663   0.813  14.032  1.3741  1.9139  0.9962
15262TIP3    H267202   2.641   0.793  14.181  2.1557  1.9214  1.1132
15263TIP3   OH267203   0.773   4.867   0.232  0.2286  0.5012 -0.2193
15263TIP3    H167204   0.788   4.960   0.251  0.7846  0.2698  0.4892
15263TIP3    H267205   0.860   4.827   0.237  0.1396  0.1305 -1.6129
15264TIP3   OH267206   0.942   0.545  16.141  0.1010 -0.2807 -0.0579
15264TIP3    H167207   0.923   0.586  16.225  0.7395  2.4181 -1.1543
15264TIP3    H267208   0.859   0.506  16.113 -1.4428  3.1375 -0.4389
15265TIP3   OH267209   3.342   4.360  15.926 -0.1064 -0.8581 -0.4730
15265TIP3    H167210   3.300   4.399  15.849 -0.3243 -1.6433 -0.7498
15265TIP3    H267211   3.332   4.427  15.994  1.9490  0.7139 -1.6783
15266TIP3   OH267212   0.896   2.502   6.292 -0.5273 -0.1739  0.3318
15266TIP3    H167213   0.954   2.451   6.349 -3.0503 -2.3895  1.0629
15266TIP3    H267214   0.860   2.570   6.349 -0.7053 -0.4905  0.6018
15267TIP3   OH267215   0.795   5.499  13.013 -0.1337 -0.6218  0.5209
15267TIP3    H167216   0.873   5.553  12.999  0.4250 -1.0455  1.9427
15267TIP3    H267217   0.812   5.419  12.965 -1.1735  0.6155 -2.0161
15268TIP3   OH267218   4.626   1.136  17.142  0.2327 -0.0020 -0.4073
15268TIP3    H167219   4.714   1.129  17.106  0.9469 -1.4583  1.5960
15268TIP3    H267220   4.626   1.219  17.190  0.4876  0.0016 -0.4169
15269TIP3   OH267221   2.428   3.967  12.170  0.0907  0.3164 -0.0133
15269TIP3    H167222   2.448   3.888  12.221  3.7401  1.7763  0.9630
15269TIP3    H267223   2.448   3.943  12.080  0.3221 -0.1355  0.1591
15270TIP3   OH267224   4.061   5.473   3.810  0.4099  0.3585 -0.5342
15270TIP3    H167225   4.061   5.478   3.715  0.4146  1.5307 -0.4798
15270TIP3    H267226   4.126   5.537   3.838 -0.8860  1.3376  0.3187
15271TIP3   OH267227   6.490   4.170   5.118  0.2370  0.0927  0.3357
15271TIP3    H167228   6.501   4.150   5.211  1.8856  0.2915  0.2059
15271TIP3    H267229   6.400   4.145   5.098 -0.5129  1.1718  2.2609
15272TIP3   OH267230   3.577   2.677  11.267  1.3076 -0.5876  0.7873
15272TIP3    H167231   3.570   2.675  11.363  0.1240  0.8528  0.7607
15272TIP3    H267232   3.493   2.641  11.237  2.2720 -2.4707  0.2595
15273TIP3   OH267233   5.985   2.010   3.202 -0.2333  0.2355  0.0584
15273TIP3    H167234   5.944   1.985   3.119  0.8838 -0.0006 -0.4453
15273TIP3    H267235   5.989   1.930   3.253 -1.7448  0.5684  0.7136
15274TIP3   OH267236   4.040   5.030   0.889  0.0722 -0.3008 -0.1248
15274TIP3    H167237   3.947   5.041   0.872  0.0129  0.2192  0.5046
15274TIP3    H267238   4.070   5.118   0.915 -0.0532 -1.2207  3.3780
15275TIP3   OH267239   3.889   3.297  14.563 -0.1231  0.2276  0.0198
15275TIP3    H167240   3.956   3.361  14.586  1.5093 -0.9470 -1.2992
15275TIP3    H267241   3.893   3.232  14.634  1.0080 -0.4671 -0.6553
15276TIP3   OH267242   4.100   1.690  11.924  0.3070  0.2107  0.6679
15276TIP3    H167243   4.027   1.710  11.865  0.7880  1.3232  0.4463
15276TIP3    H267244   4.087   1.747  11.999  0.5139 -0.1570  0.9839
15277TIP3   OH267245   5.965   2.743   5.299  0.4245 -0.5210 -0.7511
15277TIP3    H167246   5.888   2.765   5.247 -1.8927 -1.1715  2.2549
15277TIP3    H267247   5.991   2.826   5.339  0.2088 -0.6158 -0.4091
15278TIP3   OH267248   0.712   5.507  15.365  0.0711 -0.0476  0.0868
15278TIP3    H167249   0.705   5.598  15.338  1.1439 -0.3477 -1.3112
15278TIP3    H267250   0.761   5.465  15.294 -0.4899 -1.7303  0.6604
15279TIP3   OH267251   3.686   0.700  12.906  0.6737 -0.7218  0.5910
15279TIP3    H167252   3.695   0.712  13.001  0.5787  0.6141  0.4388
15279TIP3    H267253   3.595   0.676  12.893 -0.2221  2.6134  0.5096
15280TIP3   OH267254   6.610   4.179   5.384 -0.2438 -0.6243  0.2985
15280TIP3    H167255   6.521   4.174   5.419 -0.1874  3.1531  1.1329
15280TIP3    H267256   6.648   4.093   5.404 -3.3530 -1.9500  0.8003
15281TIP3   OH267257   0.977   1.653  13.961 -0.6502  0.1583 -0.1010
15281TIP3    H167258   0.912   1.673  13.893 -0.8551 -2.2250 -0.6420
15281TIP3    H267259   1.061   1.664  13.918 -0.7314  0.8827 -0.0826
15282TIP3   OH267260   6.015   3.758  15.996  0.1749 -0.1656  0.0337
15282TIP3    H167261   6.028   3.852  15.986  1.0868 -0.0941  1.7172
15282TIP3    H267262   6.000   3.726  15.907 -0.2050  1.5730 -0.5458
15283TIP3   OH267263   3.440   5.925  14.210 -0.1687  0.8653 -0.1481
15283TIP3    H167264   3.528   5.910  14.246 -0.2494  1.8672  0.4895
15283TIP3    H267265   3.449   5.906  14.117  1.0335  2.1297 -0.3180
15284TIP3   OH267266   2.907   4.089  11.332 -0.1148  0.1468 -0.1849
15284TIP3    H167267   2.965   4.016  11.311  1.1240  0.7021  1.2459
15284TIP3    H267268   2.822   4.062  11.298  0.1051 -2.3501  1.1431
15285TIP3   OH267269   0.618   1.098  15.204 -0.1143 -0.3394  0.0653
15285TIP3    H167270   0.524   1.107  15.218 -0.2033 -0.6430 -0.3315
15285TIP3    H267271   0.628   1.010  15.168  0.4283 -0.6914  1.0640
15286TIP3   OH267272   5.795   3.695  15.377  0.3141  0.1096 -0.5387
15286TIP3    H167273   5.762   3.752  15.308 -0.9749 -0.5854 -0.5151
15286TIP3    H267274   5.804   3.609  15.336  1.7300  0.1839 -0.4308
15287TIP3   OH267275   2.737   6.583   1.951 -0.4171 -0.2867 -0.1834
15287TIP3    H167276   2.687   6.664   1.964 -1.6570 -0.9512 -0.7112
15287TIP3    H267277   2.670   6.516   1.934  0.4920 -1.7166  1.6696
15288TIP3   OH267278   0.175   2.326  13.577  0.4960 -0.0255 -0.7123
15288TIP3    H167279   0.181   2.248  13.521  1.4995  0.9434 -1.9786
15288TIP3    H267280   0.247   2.315  13.640  0.9386  0.1096 -1.1920
15289TIP3   OH267281   2.810   0.175  12.504  0.3045 -0.1617 -0.5537
15289TIP3    H167282   2.825   0.126  12.584 -1.1366  0.8818  0.3703
15289TIP3    H267283   2.838   0.264  12.524 -0.9589  0.3194 -0.9028
15290TIP3   OH267284   5.283   2.473   2.110 -0.1239 -0.2624 -0.2586
15290TIP3    H167285   5.299   2.380   2.096 -1.4579 -0.3048 -1.5972
15290TIP3    H267286   5.231   2.477   2.190  0.7686 -0.5801  0.3514
15291TIP3   OH267287   4.957   3.083   3.531  0.3064 -1.0214 -0.4358
15291TIP3    H167288   4.887   3.119   3.585  1.2408  2.4857 -1.3806
15291TIP3    H267289   5.030   3.068   3.592  0.2958 -0.1337 -0.2034
15292TIP3   OH267290   1.654   0.880   3.158 -0.1545  0.2235  0.5862
15292TIP3    H167291   1.740   0.883   3.201 -0.5762 -1.4493  1.5980
15292TIP3    H267292   1.658   0.801   3.103 -1.0167  0.1697  0.5959
15293TIP3   OH267293   6.714   3.243   2.329 -0.0103 -0.3577  0.5385
15293TIP3    H167294   6.643   3.210   2.273  0.5481  0.8961 -0.9508
15293TIP3    H267295   6.756   3.311   2.276  2.6744 -1.4727  1.1835
15294TIP3   OH267296   2.770   0.459  11.759  0.0047 -0.0965 -0.3672
15294TIP3    H167297   2.821   0.510  11.821  0.5365 -3.0124  1.6737
15294TIP3    H267298   2.778   0.507  11.676  0.9571  2.7594  1.3087
15295TIP3   OH267299   3.163   1.407   4.770 -0.2807  0.7369 -0.7203
15295TIP3    H167300   3.162   1.438   4.860 -1.0248 -1.0221 -0.0879
15295TIP3    H267301   3.249   1.366   4.759 -0.9704 -0.9344 -0.1040
15296TIP3   OH267302   0.134   0.444   3.937 -0.6298  0.2301  0.0021
15296TIP3    H167303   0.153   0.482   4.023 -0.8099  1.0697 -0.3264
15296TIP3    H267304   0.191   0.493   3.877  0.2036 -1.0022 -0.2315
15297TIP3   OH267305   4.351   5.975   5.001  0.0300  0.3445 -0.1225
15297TIP3    H167306   4.371   6.008   4.913  3.0080 -1.3867 -0.1527
15297TIP3    H267307   4.337   5.881   4.988  0.6632  0.0555  1.2717
15298TIP3   OH267308   0.832   5.951  12.562 -0.7913  0.5689  0.5780
15298TIP3    H167309   0.805   5.905  12.641 -0.6426 -0.1909  0.1954
15298TIP3    H267310   0.817   5.888  12.491  0.0142  0.8841  0.1165
15299TIP3   OH267311   0.623   3.758   4.141 -0.0420 -0.1570  0.1888
15299TIP3    H167312   0.613   3.822   4.212  0.8948  1.1380 -0.8214
15299TIP3    H267313   0.711   3.723   4.153  0.6229  1.0384 -1.1115
15300TIP3   OH267314   1.145   3.049   3.281  0.0949 -0.1371  0.0354
15300TIP3    H167315   1.097   3.084   3.206  0.0560  0.4776  0.3439
15300TIP3    H267316   1.139   2.954   3.271 -0.2667 -0.0601 -0.5121
15301TIP3   OH267317   0.717   1.110   1.671  0.3745  0.1833  0.2389
15301TIP3    H167318   0.722   1.026   1.625 -1.1537 -0.7178  1.6624
15301TIP3    H267319   0.774   1.099   1.747 -0.2954  0.2142  0.7484
15302TIP3   OH267320   6.373   1.359   3.590 -0.9783  0.3118  0.0638
15302TIP3    H167321   6.337   1.444   3.565  1.5684  1.7855  1.1990
15302TIP3    H267322   6.332   1.339   3.674 -0.7561  0.9649  0.3329
15303TIP3   OH267323   2.301   1.063  16.965  0.1995 -0.1420 -0.0634
15303TIP3    H167324   2.228   1.113  16.928  0.5074  0.4157  0.0744
15303TIP3    H267325   2.260   0.995  17.018 -0.2139  0.6898  0.6955
15304TIP3   OH267326   5.274   4.574   3.842 -0.8655 -0.1766  0.2773
15304TIP3    H167327   5.264   4.571   3.747 -0.2929  2.8637  0.0779
15304TIP3    H267328   5.242   4.661   3.867  1.9742  0.3298  2.4520
15305TIP3   OH267329   0.004   2.166  12.658  0.3642  0.3972  0.0666
15305TIP3    H167330  -0.008   2.076  12.688  0.3585  0.1242 -0.7517
15305TIP3    H267331  -0.047   2.219  12.720 -0.1278 -0.2099  0.1832
15306TIP3   OH267332   1.805   1.479   4.707  0.2101 -0.2975  0.2217
15306TIP3    H167333   1.864   1.481   4.782 -1.6979 -1.5105  1.8192
15306TIP3    H267334   1.763   1.565   4.706  1.0016  0.0894 -0.1107
15307TIP3   OH267335   3.562   6.548  11.678 -0.1288  0.2869  0.3561
15307TIP3    H167336   3.605   6.544  11.593 -0.9650 -1.2682 -0.0184
15307TIP3    H267337   3.632   6.571  11.739  0.6592  0.5549 -0.6340
15308TIP3   OH267338   1.785   4.830   2.241  0.5422 -0.0842  0.0207
15308TIP3    H167339   1.735   4.773   2.300  0.8707 -0.5405 -0.1428
15308TIP3    H267340   1.762   4.800   2.153  1.3449 -0.4941 -0.0476
15309TIP3   OH267341   4.074   2.015  12.564 -0.0790 -0.3357  0.1422
15309TIP3    H167342   4.110   2.072  12.632  0.0855 -2.9893  2.3145
15309TIP3    H267343   4.129   2.033  12.487  3.1012 -1.1070  2.1562
15310TIP3   OH267344   3.149   2.592  14.427  0.8243 -0.3123 -0.2724
15310TIP3    H167345   3.131   2.685  14.419  1.1363 -0.1433  0.8255
15310TIP3    H267346   3.158   2.578  14.521 -0.5165 -1.6979 -0.3281
15311TIP3   OH267347   1.504   6.420   4.992  0.7595  0.5837  0.1111
15311TIP3    H167348   1.554   6.353   4.944  0.0941  0.7740 -0.8734
15311TIP3    H267349   1.525   6.502   4.947  0.8918  0.9138  0.7692
15312TIP3   OH267350   6.226   5.051   2.583  0.4149  0.0443 -0.0358
15312TIP3    H167351   6.176   5.040   2.503  1.2639 -0.7663 -0.4758
15312TIP3    H267352   6.192   4.984   2.642  0.6563 -0.2001 -0.1718
15313TIP3   OH267353   2.043   6.166  15.936  0.9944 -0.5819  0.3839
15313TIP3    H167354   1.995   6.244  15.910  1.3244 -0.7261 -0.6720
15313TIP3    H267355   1.977   6.096  15.938  1.0512 -0.6673 -0.5363
15314TIP3   OH267356   6.483   1.313   0.014 -0.5564  0.1899 -0.4826
15314TIP3    H167357   6.435   1.231   0.004 -1.6364  0.5815  1.3570
15314TIP3    H267358   6.556   1.291   0.071  0.7256 -0.1054 -2.2205
15315TIP3   OH267359   4.944   3.675   1.715 -0.1168 -0.3557  0.3500
15315TIP3    H167360   5.013   3.625   1.760  0.1774 -0.2134  0.0564
15315TIP3    H267361   4.871   3.614   1.706 -0.4045 -0.2116  1.5724
15316TIP3   OH267362   2.617   2.074  11.492  0.0014 -0.2698  0.4810
15316TIP3    H167363   2.526   2.095  11.512 -0.0276 -1.9918  2.3175
15316TIP3    H267364   2.613   2.007  11.425 -0.2407 -3.1312  3.2459
15317TIP3   OH267365   3.741   5.874   0.127  0.1454  0.1014  0.6866
15317TIP3    H167366   3.790   5.919   0.197 -1.4186  0.4269  1.5946
15317TIP3    H267367   3.658   5.851   0.168 -1.5197  1.8570 -1.5684
15318TIP3   OH267368   4.279   2.957  12.079  0.3039 -0.2346 -0.0190
15318TIP3    H167369   4.218   3.030  12.087  0.5236 -0.0790  0.2611
15318TIP3    H267370   4.248   2.907  12.004 -1.1685 -1.1358  1.1605
15319TIP3   OH267371   4.550   1.538   3.081  0.1016  0.1018  0.1705
15319TIP3    H167372   4.507   1.621   3.061  2.3098  0.6636 -2.5920
15319TIP3    H267373   4.499   1.473   3.034  0.4386  0.3653 -0.5672
15320TIP3   OH267374   4.208   6.276   5.515 -0.2108 -0.0118 -0.9211
15320TIP3    H167375   4.291   6.320   5.529  0.1832 -1.6683  2.6822
15320TIP3    H267376   4.231   6.195   5.469  0.1473 -0.2207 -0.3846
15321TIP3   OH267377   4.746   3.758  14.429 -0.0926  0.2756  0.2888
15321TIP3    H167378   4.655   3.767  14.400  0.5184  1.0364 -1.4149
15321TIP3    H267379   4.768   3.844  14.466 -0.3404 -0.1861  1.5401
15322TIP3   OH267380   4.988   0.807   0.774  0.1483  0.4175  0.2935
15322TIP3    H167381   5.032   0.731   0.810  2.6113  0.5656 -2.1964
15322TIP3    H267382   5.021   0.881   0.825  0.4131  0.1790  0.4647
15323TIP3   OH267383   3.157   0.339   3.371 -0.3711 -0.2510  0.1663
15323TIP3    H167384   3.169   0.412   3.310  0.2107 -0.6175 -0.1680
15323TIP3    H267385   3.135   0.265   3.315  0.5568 -0.6820  0.3603
15324TIP3   OH267386   1.932   2.790  16.764  0.2468  0.1793  0.2970
15324TIP3    H167387   1.972   2.802  16.678  0.5184  1.8028  0.6298
15324TIP3    H267388   1.906   2.698  16.766 -1.7207  0.6160 -2.3546
15325TIP3   OH267389   1.417   0.551  14.878  0.0820 -0.5307  0.0718
15325TIP3    H167390   1.453   0.464  14.896  1.7208  0.1753  0.2390
15325TIP3    H267391   1.448   0.606  14.949 -0.7117  0.2670 -0.1889
15326TIP3   OH267392   5.979   5.942  17.192  0.2543  0.0333 -0.0491
15326TIP3    H167393   5.997   6.035  17.206 -1.1352  0.0606  1.7409
15326TIP3    H267394   6.038   5.896  17.252 -1.3872 -0.0921  1.5063
15327TIP3   OH267395   6.737   5.238  13.762  0.0649 -0.2835  0.3178
15327TIP3    H167396   6.799   5.204  13.826  0.9419 -0.8165 -0.7943
15327TIP3    H267397   6.785   5.308  13.717 -0.5634  0.1253  0.2725
15328TIP3   OH267398   2.358   1.805   2.535 -0.5096 -0.3480 -0.1112
15328TIP3    H167399   2.353   1.840   2.446  0.6441  0.3335  0.0884
15328TIP3    H267400   2.267   1.803   2.565 -0.8526 -0.0937 -1.1167
15329TIP3   OH267401   4.989   2.491   5.332  0.1380 -0.2355 -0.2634
15329TIP3    H167402   4.903   2.486   5.375 -0.1373  1.0379 -0.6428
15329TIP3    H267403   4.969   2.495   5.239  0.5731  0.6636 -0.3251
15330TIP3   OH267404   5.039   1.176  14.701  0.0515 -0.7114 -0.5395
15330TIP3    H167405   5.093   1.132  14.634 -1.4849 -0.9152 -1.6689
15330TIP3    H267406   4.972   1.221  14.651 -0.4674  0.0469  0.8354
15331TIP3   OH267407   6.693   6.078   2.366 -0.3763  0.1874 -0.0740
15331TIP3    H167408   6.695   5.982   2.374 -0.4097  0.0828 -1.2048
15331TIP3    H267409   6.659   6.108   2.449 -1.2123 -0.8364 -0.0348
15332TIP3   OH267410   4.492   4.849   6.132  0.5823  0.0145  0.4634
15332TIP3    H167411   4.561   4.894   6.083  1.1568 -0.2316  1.0401
15332TIP3    H267412   4.411   4.879   6.092  1.0343  0.0708 -0.4258
15333TIP3   OH267413   5.249   1.488  13.545 -0.5479  0.4308  0.5088
15333TIP3    H167414   5.257   1.393  13.550  3.1205  0.6234 -0.6884
15333TIP3    H267415   5.249   1.517  13.636  1.1226 -0.5203  0.8177
15334TIP3   OH267416   2.001   2.766  15.373 -0.2387 -0.3352 -0.9458
15334TIP3    H167417   1.976   2.674  15.382 -0.2397 -0.2111  0.3327
15334TIP3    H267418   1.947   2.798  15.301 -0.7602 -1.1493 -0.9304
15335TIP3   OH267419   2.445   4.909  11.354 -0.5110 -0.1742 -0.1136
15335TIP3    H167420   2.450   4.817  11.328 -1.2467 -0.0161 -0.8220
15335TIP3    H267421   2.390   4.909  11.432 -0.1453 -0.3831  0.1487
15336TIP3   OH267422   2.164   6.134  13.789  0.5564 -0.0325  0.1327
15336TIP3    H167423   2.175   6.161  13.880  3.4488  3.4344 -1.1562
15336TIP3    H267424   2.222   6.059  13.779 -0.2796 -0.8477  1.2974
15337TIP3   OH267425   0.946   1.238  16.205 -0.1504 -0.3462  0.0756
15337TIP3    H167426   0.932   1.207  16.116  1.1900  0.4452 -0.4201
15337TIP3    H267427   0.955   1.333  16.197 -1.2573 -0.1239  1.2147
15338TIP3   OH267428   1.698   0.286   6.029 -0.2014 -0.3467  0.0845
15338TIP3    H167429   1.724   0.206   5.984  0.3712 -0.4061  0.5217
15338TIP3    H267430   1.607   0.271   6.054  0.1188 -1.1423  0.7927
15339TIP3   OH267431   4.323   5.326  14.015 -0.2301  0.4327 -0.3097
15339TIP3    H167432   4.412   5.290  14.017 -0.6682 -0.6329  0.5269
15339TIP3    H267433   4.298   5.322  13.923  0.4722  0.4356 -0.5095
15340TIP3   OH267434   5.811   5.284   2.537  0.2539  0.4293  0.1297
15340TIP3    H167435   5.790   5.228   2.462  1.9348 -0.2649  0.1704
15340TIP3    H267436   5.870   5.351   2.502  0.7510  0.3217  0.7481
15341TIP3   OH267437   4.374   1.806   1.824 -0.2291 -0.2907 -0.1227
15341TIP3    H167438   4.439   1.844   1.766 -1.0139 -0.9959 -1.4701
15341TIP3    H267439   4.409   1.719   1.845  0.2635  0.1275  0.8191
15342TIP3   OH267440   1.586   3.369  10.760 -0.2875  0.8022 -0.3917
15342TIP3    H167441   1.677   3.352  10.737  0.3224  3.0183  0.2598
15342TIP3    H267442   1.567   3.307  10.831  1.1762  1.3410  0.4826
15343TIP3   OH267443   6.304   2.835   5.033  0.3609  0.7803  0.2514
15343TIP3    H167444   6.370   2.821   4.965 -0.1323  2.2286 -0.5456
15343TIP3    H267445   6.355   2.848   5.113  1.1555  3.4998 -0.6405
15344TIP3   OH267446   6.008   1.329   3.452 -0.2006  0.3163 -0.4667
15344TIP3    H167447   5.928   1.350   3.403  0.0844 -0.2739 -1.1943
15344TIP3    H267448   5.976   1.304   3.539 -0.7304  1.1043 -0.4291
15345TIP3   OH267449   4.474   5.313   3.717  0.4388 -0.0609  0.3025
15345TIP3    H167450   4.399   5.299   3.775 -1.1759  2.3820 -1.1150
15345TIP3    H267451   4.537   5.362   3.770  0.3656 -0.6999  0.9874
15346TIP3   OH267452   1.869   6.114  11.698  0.1232  0.6902 -0.5854
15346TIP3    H167453   1.910   6.110  11.611  0.2250  0.5330 -0.5290
15346TIP3    H267454   1.842   6.206  11.707  1.3735  1.0281 -0.2012
15347TIP3   OH267455   1.094   4.855  14.989 -0.4171 -0.4707 -0.2426
15347TIP3    H167456   0.999   4.849  14.983 -0.3423 -0.4087 -1.8058
15347TIP3    H267457   1.115   4.944  14.960  0.1250 -0.5111  0.0087
15348TIP3   OH267458   2.779   1.600   5.825  0.0441  0.5871  0.5173
15348TIP3    H167459   2.850   1.664   5.839 -0.7244  2.0005 -1.8146
15348TIP3    H267460   2.732   1.599   5.908  0.0770  3.0997  0.6221
15349TIP3   OH267461   6.469   3.285   2.605 -0.2414 -0.1568  0.8189
15349TIP3    H167462   6.565   3.280   2.600 -0.1901  1.7694 -0.2622
15349TIP3    H267463   6.451   3.302   2.698  0.4674 -0.2426  0.9745
15350TIP3   OH267464   2.444   5.064  16.762 -0.4660 -0.1861  0.1971
15350TIP3    H167465   2.502   5.120  16.709 -3.1043  2.3699 -0.1113
15350TIP3    H267466   2.408   5.001  16.700 -2.0914  1.6161 -0.7495
15351TIP3   OH267467   5.346   5.694   5.434 -0.1919  0.3278  0.3990
15351TIP3    H167468   5.366   5.645   5.354  0.5222  1.2943 -0.0330
15351TIP3    H267469   5.379   5.639   5.505 -1.1995 -0.7267  0.0595
15352TIP3   OH267470   1.358   3.218  16.072 -0.3757 -0.2482  0.1634
15352TIP3    H167471   1.410   3.143  16.045  1.8532  0.9453  1.0709
15352TIP3    H267472   1.332   3.260  15.990 -0.6037 -1.3042 -0.3143
15353TIP3   OH267473   1.451   5.115   0.372 -0.4072 -0.5334 -0.2317
15353TIP3    H167474   1.465   5.187   0.311 -1.7027 -0.7558 -0.7962
15353TIP3    H267475   1.475   5.037   0.322  1.7972 -0.4520  0.6412
15354TIP3   OH267476   6.120   2.599   6.358 -0.5588  0.0562 -0.1887
15354TIP3    H167477   6.027   2.596   6.380 -0.8498  0.1709 -1.3899
15354TIP3    H267478   6.150   2.683   6.393 -1.1714  0.5410 -0.8145
15355TIP3   OH267479   4.746   1.783  12.832  0.6351 -0.3297 -0.0171
15355TIP3    H167480   4.747   1.866  12.786 -1.3658  0.1911  0.8061
15355TIP3    H267481   4.653   1.764  12.845  1.1105 -1.7134  1.5531
15356TIP3   OH267482   4.512   0.818   4.887  0.5199 -0.0090 -0.3124
15356TIP3    H167483   4.537   0.854   4.973  1.0200  0.9758 -0.8620
15356TIP3    H267484   4.452   0.746   4.908  1.0875 -0.1511  0.8886
15357TIP3   OH267485   3.991   3.526  11.225 -0.0086 -0.6224 -0.2960
15357TIP3    H167486   4.048   3.450  11.237  0.5157 -0.0835  0.7645
15357TIP3    H267487   3.976   3.559  11.314 -0.4581  0.3449 -0.7145
15358TIP3   OH267488   1.650   5.894  14.171 -0.4429  0.1243  0.0856
15358TIP3    H167489   1.636   5.959  14.102  1.3822  2.3821  1.7299
15358TIP3    H267490   1.746   5.887  14.178 -0.6074 -1.9392  0.7013
15359TIP3   OH267491   6.675   6.507  11.857  0.0822 -0.2515 -0.0030
15359TIP3    H167492   6.747   6.502  11.793  0.3302 -0.8216  0.3171
15359TIP3    H267493   6.713   6.552  11.932 -0.1472  0.2269 -0.1750
15360TIP3   OH267494   0.112   0.096   6.211 -0.3336 -0.7503  0.2486
15360TIP3    H167495   0.177   0.167   6.217 -1.0903 -0.1240  1.1986
15360TIP3    H267496   0.144   0.030   6.273 -0.4487 -0.5675  0.5037
15361TIP3   OH267497   4.966   5.745  13.133 -0.6043  0.3078  0.4235
15361TIP3    H167498   4.905   5.819  13.134 -0.9810 -0.0090  1.6971
15361TIP3    H267499   4.929   5.682  13.194  0.9904  0.1070  1.2232
15362TIP3   OH267500   3.282   1.883   3.835  0.4445 -0.9804 -0.0646
15362TIP3    H167501   3.291   1.908   3.927 -0.5311  1.0768 -0.5017
15362TIP3    H267502   3.194   1.846   3.829  0.2001 -0.3508 -0.3422
15363TIP3   OH267503   6.424   1.711  15.242  0.3911  0.7771  0.4017
15363TIP3    H167504   6.388   1.799  15.244 -0.1168  0.6219 -1.2963
15363TIP3    H267505   6.354   1.655  15.275 -0.0550  0.7604 -0.5713
15364TIP3   OH267506   4.812   0.131  12.563 -0.3398 -0.0495  0.1101
15364TIP3    H167507   4.801   0.189  12.487  0.9276 -0.1118 -0.1418
15364TIP3    H267508   4.904   0.103  12.557 -0.3215 -0.2781  1.5101
15365TIP3   OH267509   0.731   0.069   0.275  0.1079 -0.2703 -0.4672
15365TIP3    H167510   0.769  -0.019   0.279  0.4731 -0.2234 -2.3942
15365TIP3    H267511   0.637   0.054   0.276  0.1543 -0.5546  1.3197
15366TIP3   OH267512   3.130   1.260  13.985  0.6660 -0.4450 -0.1065
15366TIP3    H167513   3.175   1.324  14.039 -0.0692  0.0408 -0.0668
15366TIP3    H267514   3.189   1.185  13.982  1.1404 -0.0971  0.5603
15367TIP3   OH267515   6.363   1.268  13.386 -0.0288  0.0098 -0.2087
15367TIP3    H167516   6.376   1.345  13.441 -0.5071 -0.0168 -0.0561
15367TIP3    H267517   6.282   1.229  13.418 -0.5673  0.2560 -1.2281
15368TIP3   OH267518   5.455   2.978   5.047  0.3815 -0.1441  0.3026
15368TIP3    H167519   5.465   2.887   5.018  1.8970 -0.2279  1.0291
15368TIP3    H267520   5.480   3.030   4.971  1.2373 -0.3465  0.4412
15369TIP3   OH267521   3.483   2.627   4.039  0.3491 -0.3931 -0.4135
15369TIP3    H167522   3.523   2.586   4.116  0.9281  0.6883 -0.1209
15369TIP3    H267523   3.531   2.709   4.029  0.2928 -0.5394 -1.9580
15370TIP3   OH267524   6.115   5.149   3.996 -0.4238 -0.2752  0.1461
15370TIP3    H167525   6.084   5.211   3.930 -1.2538  0.1199  0.8912
15370TIP3    H267526   6.035   5.116   4.037  0.1254  0.8374  2.1813
15371TIP3   OH267527   3.048   4.738   0.834  0.0905 -0.2587 -0.4088
15371TIP3    H167528   3.037   4.800   0.762 -1.2482 -0.1266 -0.0949
15371TIP3    H267529   2.959   4.718   0.863  0.5635 -1.2821  0.3864
15372TIP3   OH267530   4.843   3.207   2.306 -0.0149 -0.2035 -0.0342
15372TIP3    H167531   4.797   3.180   2.386 -1.7289 -0.7745 -1.1963
15372TIP3    H267532   4.774   3.218   2.241  1.4270 -0.2982 -1.6096
15373TIP3   OH267533   1.368   2.193   1.540  0.4297 -0.3012 -0.5108
15373TIP3    H167534   1.298   2.129   1.552  0.1151  0.1091 -0.1497
15373TIP3    H267535   1.407   2.203   1.627 -0.0667  0.6170 -0.3873
15374TIP3   OH267536   1.095   3.326   3.856 -0.2868  0.0416 -0.3485
15374TIP3    H167537   1.153   3.256   3.887  1.8944  1.4010 -1.3496
15374TIP3    H267538   1.035   3.281   3.795 -1.5417 -1.7088  2.0448
15375TIP3   OH267539   0.336   4.950  11.763  0.0828 -0.0378  0.3137
15375TIP3    H167540   0.372   4.866  11.734 -0.0276  0.7149 -2.1656
15375TIP3    H267541   0.413   5.001  11.789  0.2562 -0.5400  0.7713
15376TIP3   OH267542   5.554   1.487   5.475 -0.2076 -0.3662  0.1212
15376TIP3    H167543   5.599   1.438   5.544 -0.3123  1.0311  1.2018
15376TIP3    H267544   5.610   1.477   5.399 -0.4696 -2.5698  0.1708
15377TIP3   OH267545   3.344   5.158  16.236 -0.4201 -0.8318  0.5900
15377TIP3    H167546   3.340   5.189  16.146  0.7998  0.3818  0.9284
15377TIP3    H267547   3.332   5.236  16.290 -0.4266 -1.4254  1.4756
15378TIP3   OH267548   6.373   2.669  17.029 -0.1658  0.0426 -0.1681
15378TIP3    H167549   6.289   2.713  17.015 -0.7368 -0.8023  0.5388
15378TIP3    H267550   6.405   2.703  17.113 -0.8721 -1.2714  0.6492
15379TIP3   OH267551   3.569   3.076  15.603 -0.6283  0.4410 -0.5069
15379TIP3    H167552   3.659   3.069  15.571 -0.3919  2.4839 -0.3310
15379TIP3    H267553   3.515   3.068  15.524 -0.2817 -0.2679 -0.6750
15380TIP3   OH267554   2.711   2.547   4.010  0.3606 -0.0047 -0.4129
15380TIP3    H167555   2.660   2.628   4.017  0.3630 -0.2134  2.6208
15380TIP3    H267556   2.647   2.477   4.020  0.9084 -0.3109  0.9700
15381TIP3   OH267557   4.863   0.436   0.385 -0.6948 -0.6326  0.2481
15381TIP3    H167558   4.902   0.472   0.465  0.0729 -1.4872  0.2654
15381TIP3    H267559   4.772   0.465   0.388  0.5201  3.5116 -1.0824
15382TIP3   OH267560   1.476   5.627  11.949 -0.1083  0.1163 -0.2401
15382TIP3    H167561   1.484   5.567  11.874  1.8768 -1.0241  0.8331
15382TIP3    H267562   1.383   5.625  11.971 -0.3944 -1.0674 -1.4470
15383TIP3   OH267563   1.052   0.912   4.579 -0.4266  0.1597  0.1367
15383TIP3    H167564   1.061   0.952   4.493 -0.6933 -2.9241 -1.3894
15383TIP3    H267565   0.981   0.961   4.621  2.1167  4.1290  0.1584
15384TIP3   OH267566   4.913   6.527   0.551  0.6028  0.2729 -0.3672
15384TIP3    H167567   4.839   6.483   0.593 -0.3145  2.0041 -0.1289
15384TIP3    H267568   4.958   6.572   0.622  0.7210  0.8369 -0.7957
15385TIP3   OH267569   6.283   5.381  10.919 -0.1139  0.3655 -0.0893
15385TIP3    H167570   6.298   5.299  10.966 -0.8227 -0.1770 -0.7910
15385TIP3    H267571   6.365   5.397  10.872  0.7570  1.1497  1.6742
15386TIP3   OH267572   1.168   2.151   1.248  0.7077  0.3703  0.4129
15386TIP3    H167573   1.223   2.219   1.286  1.0767  1.0295 -1.2526
15386TIP3    H267574   1.230   2.082   1.224  0.5522  0.2110  0.4682
15387TIP3   OH267575   5.340   3.074  15.767  0.1068 -0.6545 -0.5384
15387TIP3    H167576   5.397   3.020  15.712 -0.4891 -1.8139 -0.0396
15387TIP3    H267577   5.396   3.145  15.797  0.8494 -0.8621 -1.3932
15388TIP3   OH267578   1.243   0.953   0.380 -0.1749  0.1563 -0.0600
15388TIP3    H167579   1.252   1.039   0.421 -2.8933  0.5975 -0.2988
15388TIP3    H267580   1.172   0.911   0.428  0.1377 -1.3809 -0.9191
15389TIP3   OH267581   1.033   1.198   4.429  0.3807  0.2050 -0.2299
15389TIP3    H167582   0.940   1.216   4.416  1.1420  2.1854 -3.4865
15389TIP3    H267583   1.050   1.119   4.378  0.5121 -0.2074  0.4320
15390TIP3   OH267584   6.656   6.739   4.618  0.5705 -0.3323 -0.0549
15390TIP3    H167585   6.725   6.678   4.641 -0.6743 -1.2470  1.3256
15390TIP3    H267586   6.634   6.782   4.701 -0.3446  0.1204 -0.5306
15391TIP3   OH267587   0.880   3.014  13.183  0.2214  0.0302  0.2471
15391TIP3    H167588   0.785   3.020  13.195  0.3104  1.4307  0.3547
15391TIP3    H267589   0.916   3.061  13.258  0.9481  1.5121 -1.0099
15392TIP3   OH267590   1.404   6.625  11.844  0.4395 -0.5798  0.4630
15392TIP3    H167591   1.475   6.601  11.904  1.0440  0.1257  0.0422
15392TIP3    H267592   1.324   6.613  11.896  0.8840 -1.0313  1.0587
15393TIP3   OH267593   5.744   0.522   0.857 -0.2803 -0.0586  0.1293
15393TIP3    H167594   5.754   0.507   0.951 -1.0377 -1.1084  0.0476
15393TIP3    H267595   5.833   0.515   0.822  0.1241  1.1519  0.8652
15394TIP3   OH267596   4.530   0.509   2.540 -0.0583  0.4845  0.6104
15394TIP3    H167597   4.563   0.436   2.488  0.8384  1.3761 -0.0838
15394TIP3    H267598   4.445   0.478   2.573  0.1193 -0.7074 -0.0112
15395TIP3   OH267599   3.073   6.069  16.474 -0.2163 -0.6240 -0.0224
15395TIP3    H167600   3.151   6.077  16.529 -1.5083 -1.4812  1.9648
15395TIP3    H267601   3.068   6.153  16.428  0.9792  0.0457  1.0150
15396TIP3   OH267602   4.278   5.380   6.568 -0.2662  0.2073  0.3804
15396TIP3    H167603   4.263   5.285   6.568  1.2179 -0.0745 -2.2249
15396TIP3    H267604   4.330   5.397   6.646  1.4818 -1.4846 -0.3933
15397TIP3   OH267605   1.526   2.836  13.840  0.2921  1.0499 -0.3510
15397TIP3    H167606   1.432   2.826  13.855  0.2121 -0.7021 -1.8691
15397TIP3    H267607   1.537   2.928  13.819 -1.6213  0.6285 -3.5332
15398TIP3   OH267608   0.070   2.062   3.821 -0.1104 -0.0720  0.4023
15398TIP3    H167609  -0.022   2.037   3.820 -0.0360 -0.3447 -0.0052
15398TIP3    H267610   0.098   2.054   3.729 -0.2013  1.9534  0.1741
15399TIP3   OH267611   1.073   4.664  11.795  0.5750  0.6519 -0.5023
15399TIP3    H167612   1.031   4.722  11.858  0.5741  1.8369 -1.5780
15399TIP3    H267613   1.112   4.723  11.730 -0.2069 -0.5707 -2.1111
15400TIP3   OH267614   3.049   5.397   2.263  0.2831  0.3728 -0.0685
15400TIP3    H167615   3.106   5.417   2.338  1.9949 -0.0011 -1.2431
15400TIP3    H267616   3.022   5.306   2.276  0.4515  0.3575  0.1718
15401TIP3   OH267617   4.955   5.960  16.425 -0.2918  0.4180  0.0848
15401TIP3    H167618   4.969   5.888  16.488  2.3121  0.1489 -0.7148
15401TIP3    H267619   4.893   5.925  16.361 -2.8962  0.6485  2.3797
15402TIP3   OH267620   0.797   0.786  12.019  0.2959 -0.9528  0.7684
15402TIP3    H167621   0.822   0.802  11.928  0.5444 -0.3414  0.9428
15402TIP3    H267622   0.716   0.734  12.013 -0.2065 -0.1109  0.2033
15403TIP3   OH267623   6.500   0.808   0.429  0.4193 -0.2148 -1.2389
15403TIP3    H167624   6.435   0.877   0.415 -0.6091 -1.0255 -0.5598
15403TIP3    H267625   6.570   0.850   0.479  0.2973  0.5949 -1.7400
15404TIP3   OH267626   3.573   3.427   2.193  0.1667  0.4236  0.2387
15404TIP3    H167627   3.603   3.518   2.198 -1.3952  0.9278  0.6644
15404TIP3    H267628   3.480   3.433   2.170  0.1036 -1.0739  0.0378
15405TIP3   OH267629   2.234   0.589   2.230 -0.3384  0.2577 -0.2484
15405TIP3    H167630   2.197   0.501   2.242 -0.7811  0.4585 -0.1268
15405TIP3    H267631   2.193   0.621   2.150  0.4000  0.0587 -0.7034
15406TIP3   OH267632   6.653   4.281   4.184  0.2898 -0.3389  0.4156
15406TIP3    H167633   6.580   4.258   4.126 -0.1892 -2.4902  1.8078
15406TIP3    H267634   6.731   4.259   4.133 -0.1197 -1.9822  0.4776
15407TIP3   OH267635   4.201   5.269   1.185 -0.8406 -0.2349 -0.1988
15407TIP3    H167636   4.140   5.328   1.231 -1.8187 -0.1258 -1.5991
15407TIP3    H267637   4.166   5.263   1.096  0.8101 -0.7486 -0.8327
15408TIP3   OH267638   4.339   3.500   1.334  0.2331 -0.4463 -0.3333
15408TIP3    H167639   4.246   3.522   1.328  0.3905 -0.0502 -1.6617
15408TIP3    H267640   4.348   3.420   1.282  0.6507 -0.4264 -0.2937
15409TIP3   OH267641   3.363   6.629   4.844 -0.4392  0.0775 -0.6676
15409TIP3    H167642   3.314   6.551   4.869  0.1555  0.1864  0.8582
15409TIP3    H267643   3.298   6.685   4.802 -1.4643 -0.0997  0.6386
15410TIP3   OH267644   4.348   1.776  12.386  0.6208  0.0289 -0.4410
15410TIP3    H167645   4.329   1.732  12.469  1.4496 -3.8535 -2.2008
15410TIP3    H267646   4.264   1.810  12.357 -0.4689 -2.2206 -0.0091
15411TIP3   OH267647   0.589   5.333   3.424 -0.3294 -0.0567  0.4124
15411TIP3    H167648   0.539   5.401   3.469  0.0676  1.4604 -1.3585
15411TIP3    H267649   0.667   5.322   3.477 -1.0985 -0.2254  1.5314
15412TIP3   OH267650   3.128   0.482  14.041 -0.0173 -0.1785 -0.1908
15412TIP3    H167651   3.128   0.396  14.083  0.0534 -0.3455 -0.5375
15412TIP3    H267652   3.071   0.535  14.097  0.5865 -0.2246  0.4792
15413TIP3   OH267653   4.567   6.445   3.867 -0.3507 -0.0594  0.5708
15413TIP3    H167654   4.489   6.389   3.872  0.5252 -1.1399  3.0572
15413TIP3    H267655   4.640   6.385   3.876  0.6925  1.2120  0.6579
15414TIP3   OH267656   2.457   1.244   3.549  0.4817  0.1184 -0.3818
15414TIP3    H167657   2.362   1.242   3.550  0.3916  2.6608  1.8700
15414TIP3    H267658   2.485   1.168   3.599 -0.4534  1.1895  1.8033
15415TIP3   OH267659   2.734   2.947  13.811 -0.3720  0.1635 -0.2103
15415TIP3    H167660   2.784   3.028  13.820 -1.0799  0.4276  1.4749
15415TIP3    H267661   2.670   2.966  13.742  0.5335  0.4848 -0.9684
15416TIP3   OH267662   6.351   5.173  13.114  0.5163  0.3617 -0.0562
15416TIP3    H167663   6.416   5.206  13.052  0.7591  1.3371  0.7004
15416TIP3    H267664   6.330   5.249  13.168 -1.0859  0.0027 -0.1416
15417TIP3   OH267665   6.600   0.283   2.291 -0.9181  0.4220 -0.4334
15417TIP3    H167666   6.536   0.352   2.271 -1.9199  0.1360  1.6146
15417TIP3    H267667   6.672   0.329   2.334 -0.3815  0.5460 -1.4552
15418TIP3   OH267668   0.651   5.758  14.763 -0.2172 -0.1410  0.3638
15418TIP3    H167669   0.700   5.689  14.808  1.3556  0.3154 -0.6004
15418TIP3    H267670   0.592   5.793  14.829  0.5483 -0.9123  1.4708
15419TIP3   OH267671   6.589   1.382  11.247 -0.4660 -0.6065  0.0442
15419TIP3    H167672   6.676   1.362  11.212 -0.0919  0.8104  0.1471
15419TIP3    H267673   6.598   1.469  11.286 -2.0090 -0.3199 -0.2035
15420TIP3   OH267674   1.376   2.881  14.416  0.0124  0.3227 -0.0434
15420TIP3    H167675   1.402   2.948  14.480 -1.4580  3.1825 -2.3189
15420TIP3    H267676   1.326   2.817  14.467 -0.9232  2.4176  1.7507
15421TIP3   OH267677   1.800   3.482  13.094  0.0708 -0.0881  0.3721
15421TIP3    H167678   1.751   3.547  13.144  2.4630 -0.1378  2.8567
15421TIP3    H267679   1.759   3.398  13.116  0.6279 -0.0240  1.6493
15422TIP3   OH267680   3.821   0.450   5.283 -0.2282  0.2164  0.0522
15422TIP3    H167681   3.750   0.445   5.347  0.5761 -0.9409  0.8735
15422TIP3    H267682   3.898   0.416   5.329  0.8368  1.3402 -0.8670
15423TIP3   OH267683   2.841   6.573  15.435  0.1148 -0.5405  0.0295
15423TIP3    H167684   2.928   6.575  15.475 -0.7623  0.8943  1.9782
15423TIP3    H267685   2.805   6.488  15.461  0.4403 -0.5891  0.3227
15424TIP3   OH267686   4.403   2.747   1.934 -0.2218 -0.6525  0.3943
15424TIP3    H167687   4.459   2.725   2.008 -0.2706  0.8521  0.9061
15424TIP3    H267688   4.443   2.703   1.859  1.4348  0.0581  0.8297
15425TIP3   OH267689   5.266   1.695  12.827 -0.0768  0.4491  0.5007
15425TIP3    H167690   5.225   1.635  12.890  1.4244 -1.4688 -0.2655
15425TIP3    H267691   5.360   1.688  12.846  0.1325  2.5714  0.3675
15426TIP3   OH267692   4.229   0.268  15.622  0.0051  0.3010 -0.0133
15426TIP3    H167693   4.204   0.285  15.531  0.7132 -1.3626 -0.5427
15426TIP3    H267694   4.322   0.244  15.618  0.0833  0.3624  1.1622
15427TIP3   OH267695   1.999   2.596   0.322  0.0636 -0.0264 -0.2166
15427TIP3    H167696   2.001   2.559   0.410 -1.3970  1.5244  0.5065
15427TIP3    H267697   1.909   2.584   0.293 -0.5528  3.0972  0.1613
15428TIP3   OH267698   3.849   0.621   4.240  0.2897 -0.3036 -0.2857
15428TIP3    H167699   3.889   0.571   4.169 -0.4783 -1.8253  0.3265
15428TIP3    H267700   3.756   0.599   4.235  0.1909 -0.2227  1.0063
15429TIP3   OH267701   1.327   6.137   2.351  0.0816 -0.6469  0.3736
15429TIP3    H167702   1.391   6.117   2.282 -0.1291 -1.5248  0.4297
15429TIP3    H267703   1.300   6.228   2.333  0.7153 -0.5575 -0.1467
15430TIP3   OH267704   3.715   0.051   4.621 -0.3681  0.2318  0.3353
15430TIP3    H167705   3.670   0.046   4.705  0.7269 -3.8578  0.7917
15430TIP3    H267706   3.797   0.097   4.640 -1.5424  2.2511  0.7413
15431TIP3   OH267707   2.386   2.549  13.117 -0.1166  0.1665 -0.3099
15431TIP3    H167708   2.357   2.638  13.139 -3.0082 -0.4856 -1.1861
15431TIP3    H267709   2.430   2.518  13.196 -1.7410  1.3461  1.1152
15432TIP3   OH267710   6.256   1.219  16.688 -0.0902  0.5679 -0.4622
15432TIP3    H167711   6.331   1.277  16.700  1.0139 -0.1687 -3.2206
15432TIP3    H267712   6.289   1.150  16.630 -2.2992 -0.9661  0.0429
15433TIP3   OH267713   5.095   6.779   3.451  0.8970 -0.4821 -0.1891
15433TIP3    H167714   5.075   6.712   3.516 -0.2278 -0.5930 -0.6290
15433TIP3    H267715   5.112   6.859   3.502  0.4856 -0.6801  0.2617
15434TIP3   OH267716   2.031   6.670  10.740 -0.1025 -0.8384 -0.4313
15434TIP3    H167717   2.082   6.721  10.676 -0.4569 -1.5487 -1.2860
15434TIP3    H267718   1.984   6.605  10.687 -0.6005 -1.2663  0.5274
15435TIP3   OH267719   2.303   2.724  16.761 -0.5403 -0.6671  0.3257
15435TIP3    H167720   2.289   2.631  16.746 -2.4539 -0.3539  0.0264
15435TIP3    H267721   2.368   2.749  16.696 -0.8705 -1.5508 -0.3536
15436TIP3   OH267722   2.824   5.119  16.407  0.3687  0.3615 -0.2891
15436TIP3    H167723   2.908   5.149  16.441 -0.6897  1.8182  1.1266
15436TIP3    H267724   2.782   5.075  16.481 -0.0814 -0.4458 -1.0174
15437TIP3   OH267725   1.554   4.992   0.937  0.0018 -0.5943  0.1163
15437TIP3    H167726   1.540   5.078   0.900  0.3870 -0.0938  1.1069
15437TIP3    H267727   1.535   4.931   0.866 -1.1398  0.2749 -0.3331
15438TIP3   OH267728   5.270   6.356  13.868 -0.3365 -0.0865  0.0128
15438TIP3    H167729   5.315   6.364  13.952 -0.5599  0.3963  0.0889
15438TIP3    H267730   5.340   6.342  13.804 -0.1753 -0.6127  0.2964
15439TIP3   OH267731   2.596   4.229   4.189  0.1941 -0.2368  0.0608
15439TIP3    H167732   2.565   4.268   4.107 -0.0864  0.3983  0.4641
15439TIP3    H267733   2.639   4.302   4.235 -0.6372 -0.3202  0.9782
15440TIP3   OH267734   5.297   4.316   4.717  0.2289 -0.5853 -0.0149
15440TIP3    H167735   5.371   4.377   4.714  1.0439 -1.5524  0.3163
15440TIP3    H267736   5.238   4.354   4.782 -0.0602  0.7388 -1.0406
15441TIP3   OH267737   4.241   3.349  11.714  0.5990 -0.1780 -0.1481
15441TIP3    H167738   4.204   3.274  11.668 -0.1411  1.0495 -1.6041
15441TIP3    H267739   4.195   3.425  11.678  1.0234  0.9468  1.6058
15442TIP3   OH267740   4.461   4.759  16.296 -0.2134 -0.4830  0.4724
15442TIP3    H167741   4.410   4.679  16.315 -0.1140 -0.5682  0.3764
15442TIP3    H267742   4.395   4.824  16.275 -0.2149 -0.9625 -1.0283
15443TIP3   OH267743   6.716   0.906  10.929 -0.4626 -0.1170  0.3467
15443TIP3    H167744   6.779   0.956  10.981  1.6478 -2.6462  0.3724
15443TIP3    H267745   6.720   0.945  10.842  1.4545 -0.4661  0.2594
15444TIP3   OH267746   2.363   5.020   3.154 -0.1323  0.0044 -0.3565
15444TIP3    H167747   2.281   4.992   3.112  0.1849  0.6016 -1.3755
15444TIP3    H267748   2.409   4.939   3.174 -0.9265 -0.3326  0.1396
15445TIP3   OH267749   0.833   0.628  12.304 -0.1328 -0.6347  0.4656
15445TIP3    H167750   0.903   0.658  12.247 -1.9481  0.0985 -1.4536
15445TIP3    H267751   0.832   0.690  12.376  1.7168 -1.1461  0.9528
15446TIP3   OH267752   5.712   1.041  13.105  0.0287 -0.0866  0.0705
15446TIP3    H167753   5.712   1.113  13.169  0.5412 -0.0941  0.0843
15446TIP3    H267754   5.749   0.967  13.153  1.2311  0.1451 -0.4905
15447TIP3   OH267755   0.904   5.787  15.586  0.2869 -0.3631 -0.3812
15447TIP3    H167756   0.876   5.840  15.511  0.5886  0.2113 -0.0837
15447TIP3    H267757   0.862   5.828  15.661 -0.4546 -1.2644 -0.2945
15448TIP3   OH267758   1.115   5.102   2.007 -0.0509  0.5351  0.2456
15448TIP3    H167759   1.126   5.030   2.069  0.2198  0.5709  0.2423
15448TIP3    H267760   1.067   5.064   1.934 -1.1214  0.7102  0.8519
15449TIP3   OH267761   0.434   4.410   3.734  0.3684 -0.4350  0.4233
15449TIP3    H167762   0.486   4.365   3.668  0.2728  1.0234 -0.6836
15449TIP3    H267763   0.457   4.367   3.816  3.4902  0.3113  0.0010
15450TIP3   OH267764   2.831   2.395   2.569  0.4726  0.6242 -0.0338
15450TIP3    H167765   2.782   2.327   2.522  0.5227  1.2556 -1.0096
15450TIP3    H267766   2.829   2.471   2.510  5.6951 -0.4114 -1.7527
15451TIP3   OH267767   4.302   4.810  15.791  0.3427  0.4183  0.1070
15451TIP3    H167768   4.317   4.872  15.720 -0.3585  2.2086  1.4966
15451TIP3    H267769   4.309   4.862  15.871  0.7497 -1.4929  1.3521
15452TIP3   OH267770   5.435   1.069   3.419  0.0939  0.1388 -0.5040
15452TIP3    H167771   5.435   1.141   3.483 -0.2520 -0.0346 -0.3056
15452TIP3    H267772   5.353   1.022   3.437 -1.0145  1.2869 -2.4369
15453TIP3   OH267773   5.067   5.551   1.490  0.1286  0.5324 -0.2332
15453TIP3    H167774   5.141   5.490   1.497 -1.6090 -1.6442 -0.4288
15453TIP3    H267775   5.040   5.546   1.399 -1.0461  0.3551  0.1151
15454TIP3   OH267776   6.577   0.838  12.486 -0.6098  0.4112  0.1645
15454TIP3    H167777   6.644   0.886  12.437  0.5595 -0.2579  1.0888
15454TIP3    H267778   6.570   0.754  12.441 -1.5648  0.8480 -0.5330
15455TIP3   OH267779   3.787   3.855  12.689  0.4694  0.3816  0.8799
15455TIP3    H167780   3.829   3.927  12.641  0.1701  0.2830  0.4746
15455TIP3    H267781   3.741   3.899  12.761  0.6925  0.5497  0.9252
15456TIP3   OH267782   4.087   5.101  16.452  0.6911  0.1860  0.3410
15456TIP3    H167783   4.161   5.087  16.393 -0.5726 -0.4813 -1.0992
15456TIP3    H267784   4.044   5.016  16.459 -0.5226  0.7823  0.3826
15457TIP3   OH267785   2.647   5.706   2.914 -0.4570  0.0810  0.2057
15457TIP3    H167786   2.619   5.791   2.949  1.0020  0.6440  0.0415
15457TIP3    H267787   2.588   5.690   2.840 -0.6038  1.0530  0.1076
15458TIP3   OH267788   6.327   1.690  16.794 -0.0236 -0.0389 -0.4156
15458TIP3    H167789   6.304   1.717  16.883  0.9774  2.9039 -0.9954
15458TIP3    H267790   6.360   1.770  16.753 -0.2517 -1.4116 -3.3639
15459TIP3   OH267791   3.148   3.733  10.675 -0.2450  0.9887  0.0649
15459TIP3    H167792   3.161   3.804  10.613 -0.4313  1.7921  0.9478
15459TIP3    H267793   3.236   3.699  10.692 -0.2212  0.5644 -0.8685
15460TIP3   OH267794   1.666   2.121   1.695  0.5276  0.3269 -0.8382
15460TIP3    H167795   1.682   2.099   1.786 -1.3761  1.1157 -0.2841
15460TIP3    H267796   1.716   2.202   1.681 -0.1308  0.8560 -0.1494
15461TIP3   OH267797   6.301   1.983   0.391  0.0218 -0.1114 -0.6886
15461TIP3    H167798   6.308   1.908   0.332 -1.1638  1.0165 -2.3104
15461TIP3    H267799   6.212   1.980   0.424  0.0308  0.4719 -0.6029
15462TIP3   OH267800   1.901   5.340  11.483  0.1432  0.3954 -0.6202
15462TIP3    H167801   1.899   5.361  11.390  1.5260 -0.2545 -0.8083
15462TIP3    H267802   1.991   5.312  11.500 -0.1101  0.4310  0.8962
15463TIP3   OH267803   6.431   0.342   2.980  0.4721  0.2914 -0.6348
15463TIP3    H167804   6.384   0.424   2.997  2.2364  1.0513  0.7712
15463TIP3    H267805   6.366   0.273   2.994 -0.2249  1.3098  1.2587
15464TIP3   OH267806   3.370   6.776  11.615  0.3454 -0.5253 -0.1685
15464TIP3    H167807   3.410   6.698  11.654  1.8879 -0.4880 -1.5986
15464TIP3    H267808   3.398   6.848  11.670  1.1619 -0.6679 -0.3928
15465TIP3   OH267809   5.681   5.419  13.362 -0.4441  0.4381  0.4693
15465TIP3    H167810   5.619   5.484  13.395 -1.6617 -0.4359 -0.0331
15465TIP3    H267811   5.628   5.363  13.305  0.5377 -1.0816  1.0125
15466TIP3   OH267812   0.769   0.679   0.631 -0.1570 -0.5389 -0.4117
15466TIP3    H167813   0.686   0.665   0.677  0.5920 -1.0582  0.7989
15466TIP3    H267814   0.761   0.767   0.593 -1.0985 -0.4265  0.0448
15467TIP3   OH267815   1.148   5.809   2.884 -0.1526 -0.1897 -0.0646
15467TIP3    H167816   1.122   5.719   2.866  0.6925 -1.0296  2.6518
15467TIP3    H267817   1.077   5.862   2.850  0.6099 -1.6643 -4.2555
15468TIP3   OH267818   5.677   3.537  14.721 -0.2034 -0.3304  0.1083
15468TIP3    H167819   5.693   3.627  14.693  0.3725 -0.7215 -0.8501
15468TIP3    H267820   5.651   3.545  14.813 -0.8254  0.8657 -0.1600
15469TIP3   OH267821   4.392   2.281  14.147 -0.0353  0.1441 -0.1422
15469TIP3    H167822   4.417   2.355  14.092  1.1314 -1.0527 -1.2568
15469TIP3    H267823   4.358   2.216  14.085  1.4194 -1.2684  0.4948
15470TIP3   OH267824   5.440   6.060  14.609 -0.1040  0.3480 -0.0169
15470TIP3    H167825   5.385   6.134  14.583  0.8158  0.0260 -3.0538
15470TIP3    H267826   5.386   5.982  14.592  0.2799  0.1462 -0.3086
15471TIP3   OH267827   1.662   4.157   4.249  0.0257  0.3351  0.0935
15471TIP3    H167828   1.582   4.185   4.293 -0.5661 -0.9079 -0.1620
15471TIP3    H267829   1.659   4.201   4.164  0.4056  1.5371  0.7013
15472TIP3   OH267830   5.775   4.781   5.992  0.6480 -0.7655  0.4145
15472TIP3    H167831   5.816   4.775   6.078  1.6043 -0.8402 -0.0393
15472TIP3    H267832   5.810   4.863   5.955 -0.1105 -0.5018  0.2829
15473TIP3   OH267833   3.803   0.677  12.309 -0.3529  0.0968 -0.2115
15473TIP3    H167834   3.735   0.743  12.298  0.2125  0.8656  0.8686
15473TIP3    H267835   3.810   0.665  12.404  1.9339  0.9878 -0.2419
15474TIP3   OH267836   6.520   4.431  14.754 -0.7038  0.0211 -0.6490
15474TIP3    H167837   6.585   4.498  14.732 -1.8566  1.3142 -0.2741
15474TIP3    H267838   6.567   4.348  14.751  1.4511  1.0950  1.5569
15475TIP3   OH267839   1.353   4.066   3.016 -0.0997 -0.2883  0.0638
15475TIP3    H167840   1.385   4.063   2.926 -1.4266 -0.6347 -0.4157
15475TIP3    H267841   1.342   3.974   3.040  1.4069 -0.2302  1.0131
15476TIP3   OH267842   4.567   0.073   6.825 -0.5418  0.1642 -0.3016
15476TIP3    H167843   4.637   0.040   6.769  1.1135 -1.5605  2.6331
15476TIP3    H267844   4.560   0.166   6.803  0.8350 -0.2125 -2.4944
15477TIP3   OH267845   5.643   3.617  13.047 -1.0020  0.0675 -0.3544
15477TIP3    H167846   5.658   3.526  13.022 -0.3949 -1.1735  4.0920
15477TIP3    H267847   5.548   3.625  13.051 -1.0802 -0.0531 -1.7108
15478TIP3   OH267848   6.702   6.131  11.616  0.4175 -0.0557 -0.4294
15478TIP3    H167849   6.680   6.039  11.608 -0.4027  0.2290 -1.5722
15478TIP3    H267850   6.671   6.156  11.704  1.7270 -1.1462  0.3463
15479TIP3   OH267851   5.617   0.718  10.747  0.5028 -0.3723 -0.2533
15479TIP3    H167852   5.671   0.757  10.678 -0.0575 -0.5162 -0.7769
15479TIP3    H267853   5.608   0.626  10.720  1.7596 -0.8513  0.9298
15480TIP3   OH267854   2.979   5.549   6.160  0.0030 -0.0838  0.2955
15480TIP3    H167855   3.035   5.614   6.202  0.9297 -0.8020  0.1896
15480TIP3    H267856   3.031   5.516   6.087 -1.3768  0.7363 -1.0882
15481TIP3   OH267857   1.368   1.564  11.347 -0.0055 -0.1643  0.1911
15481TIP3    H167858   1.290   1.619  11.345 -1.5064 -2.2250 -0.2689
15481TIP3    H267859   1.383   1.548  11.440 -1.3913 -1.4270  0.2193
15482TIP3   OH267860   3.649   1.229  10.810  0.5251 -0.4560  0.3742
15482TIP3    H167861   3.721   1.267  10.759  0.1543  1.8435  1.4725
15482TIP3    H267862   3.571   1.246  10.757  0.3538  0.3486  0.8840
15483TIP3   OH267863   6.242   4.437   5.183  0.0287 -0.0382  0.1415
15483TIP3    H167864   6.318   4.493   5.201 -0.9144  1.3630 -0.1148
15483TIP3    H267865   6.240   4.428   5.088 -0.8740  1.0573  0.0332
15484TIP3   OH267866   5.969   0.605   5.042 -1.0861  0.6995  0.0537
15484TIP3    H167867   5.994   0.683   4.992 -0.7016 -0.1924 -1.1596
15484TIP3    H267868   5.878   0.621   5.067 -0.9180  1.6707  0.0667
15485TIP3   OH267869   4.700   0.185  12.798  0.6696  0.0697  0.3363
15485TIP3    H167870   4.770   0.230  12.846  0.7196 -1.7767  2.0371
15485TIP3    H267871   4.740   0.163  12.714  1.0563  1.9660 -0.0193
15486TIP3   OH267872   6.443   1.139   3.308  0.2460  0.3624 -0.1587
15486TIP3    H167873   6.361   1.120   3.262 -0.7447  0.9547  1.3345
15486TIP3    H267874   6.468   1.226   3.277 -0.3368  0.6924  0.2845
15487TIP3   OH267875   3.761   3.530  14.291 -0.0306 -0.7566 -0.3104
15487TIP3    H167876   3.850   3.505  14.269  0.7688 -0.1278  2.0984
15487TIP3    H267877   3.742   3.484  14.373 -1.5913 -0.1539 -0.3032
15488TIP3   OH267878   6.117   2.593  11.784  0.2246  0.4314  0.0831
15488TIP3    H167879   6.169   2.514  11.772  2.1708  1.8567 -1.0806
15488TIP3    H267880   6.140   2.624  11.871  0.0750  0.1876  0.2129
15489TIP3   OH267881   0.272   1.342  16.163 -0.3109  0.2819 -0.2320
15489TIP3    H167882   0.309   1.264  16.205 -1.1338  0.7888  1.4458
15489TIP3    H267883   0.183   1.348  16.197 -0.5478  1.4660 -1.0317
15490TIP3   OH267884   2.054   2.551   2.126 -0.3958  0.1555  0.4073
15490TIP3    H167885   2.001   2.509   2.058  1.8044  0.4997 -1.5985
15490TIP3    H267886   2.089   2.479   2.178 -2.8191 -0.0712  1.7747
15491TIP3   OH267887   4.619   5.126   0.167 -0.0473 -0.3634 -1.2543
15491TIP3    H167888   4.601   5.198   0.227  3.0952  0.5418 -1.2856
15491TIP3    H267889   4.551   5.061   0.184 -2.2646  2.1388 -0.4385
15492TIP3   OH267890   3.585   5.284  13.749 -0.3792  0.1892 -0.4735
15492TIP3    H167891   3.561   5.300  13.657  0.6449 -0.9848 -0.9745
15492TIP3    H267892   3.660   5.342  13.764 -0.4276  0.2441 -0.4458
15493TIP3   OH267893   5.886   3.004   2.764 -0.0591 -0.0511 -0.4220
15493TIP3    H167894   5.883   2.921   2.812 -0.9528 -0.0600 -0.4787
15493TIP3    H267895   5.956   3.054   2.805 -0.3738 -0.3267  0.4521
15494TIP3   OH267896   3.393   2.740  16.515  0.3400  0.3224  0.1039
15494TIP3    H167897   3.331   2.727  16.443  1.8309 -0.4649 -1.0479
15494TIP3    H267898   3.426   2.829  16.502 -0.6411  0.8133  0.8242
15495TIP3   OH267899   4.673   0.017   1.902 -0.1912  0.3473 -0.7045
15495TIP3    H167900   4.606   0.029   1.970 -2.6034  0.5553 -3.0479
15495TIP3    H267901   4.657  -0.070   1.867  1.3439  0.0538 -0.6897
15496TIP3   OH267902   1.356   6.690   2.979 -0.6445  0.0719  0.0173
15496TIP3    H167903   1.435   6.673   3.031 -0.6138 -0.3430 -0.1629
15496TIP3    H267904   1.388   6.729   2.898 -0.3744 -2.8174 -1.3057
15497TIP3   OH267905   2.851   5.249  10.825 -0.6807 -0.3890  0.3102
15497TIP3    H167906   2.837   5.158  10.799 -1.9262 -0.4385  1.1487
15497TIP3    H267907   2.937   5.249  10.867 -0.3184 -1.0233 -0.4291
15498TIP3   OH267908   1.532   3.247  14.397 -0.7214  0.6728  0.3749
15498TIP3    H167909   1.616   3.284  14.373  0.2910 -1.6860  0.1240
15498TIP3    H267910   1.534   3.241  14.492 -0.7573  0.9319  0.3924
15499TIP3   OH267911   6.220   0.755  13.224 -0.2783  0.4411  0.5186
15499TIP3    H167912   6.189   0.678  13.176 -0.7030 -0.0526  1.5722
15499TIP3    H267913   6.313   0.761  13.202 -0.3080 -0.2127  0.2113
15500TIP3   OH267914   0.128   2.122   0.956 -0.5179 -0.7004 -0.7421
15500TIP3    H167915   0.037   2.136   0.982 -0.0690  0.5497  0.2089
15500TIP3    H267916   0.128   2.128   0.861 -0.8784  2.9586 -0.5884
15501TIP3   OH267917   3.707   3.562   1.509 -0.3095 -0.1786 -0.2207
15501TIP3    H167918   3.656   3.633   1.548 -1.0596  0.0563 -1.6299
15501TIP3    H267919   3.789   3.603   1.482 -0.0236 -0.2221  0.5617
15502TIP3   OH267920   5.683   2.598  16.958  0.4005 -0.3823  0.0204
15502TIP3    H167921   5.680   2.672  17.018 -0.6675 -0.6596  0.3215
15502TIP3    H267922   5.685   2.638  16.871  2.6401  0.0272  0.2273
15503TIP3   OH267923   0.786   3.660   1.068  0.7631 -0.8065 -0.7435
15503TIP3    H167924   0.832   3.646   0.985  0.4107 -0.0595 -1.0756
15503TIP3    H267925   0.699   3.691   1.041 -0.2133 -2.9031 -0.1604
15504TIP3   OH267926   0.560   4.998  15.165 -0.2358  0.0232 -0.1790
15504TIP3    H167927   0.596   4.976  15.251  2.0077 -0.3360 -1.1690
15504TIP3    H267928   0.526   5.087  15.176 -0.5380 -0.2387  1.2179
15505TIP3   OH267929   1.557   1.230  11.428  0.1813 -0.2323 -0.4064
15505TIP3    H167930   1.491   1.233  11.497  0.6451 -0.2083  0.0384
15505TIP3    H267931   1.640   1.223  11.474  0.4596 -0.7398 -0.9760
15506TIP3   OH267932   6.145   5.602  15.910 -0.3600 -0.1701  0.3206
15506TIP3    H167933   6.149   5.674  15.848  0.5715 -0.7746 -0.3321
15506TIP3    H267934   6.209   5.624  15.978  0.7800 -0.9310 -0.4881
15507TIP3   OH267935   4.465   6.775   2.905  0.2021 -0.0043 -0.0230
15507TIP3    H167936   4.542   6.829   2.922 -0.1034  1.2063 -2.3812
15507TIP3    H267937   4.500   6.691   2.878  0.6784 -0.3834  1.7114
15508TIP3   OH267938   5.201   5.426  13.852  0.1046 -0.3487 -0.4317
15508TIP3    H167939   5.245   5.373  13.786  2.3101  0.8380  0.0547
15508TIP3    H267940   5.202   5.371  13.931  3.0618  0.6499  0.2774
15509TIP3   OH267941   3.678   6.562  11.415  0.0256 -0.0995 -0.5105
15509TIP3    H167942   3.755   6.588  11.365  0.2341 -1.0007 -0.6588
15509TIP3    H267943   3.606   6.567  11.351 -0.2460  1.8458 -0.0917
15510TIP3   OH267944   2.924   1.013  16.536 -0.2425 -0.6036  0.2813
15510TIP3    H167945   2.879   0.986  16.456  1.8727 -0.0055 -1.1544
15510TIP3    H267946   2.939   0.931  16.584 -1.9147 -0.9150  0.2804
15511TIP3   OH267947   5.329   0.803   5.098 -0.2531  0.7127 -1.0319
15511TIP3    H167948   5.233   0.803   5.102 -0.3309  2.4197 -2.3590
15511TIP3    H267949   5.356   0.813   5.190 -1.4209  3.3749 -0.8994
15512TIP3   OH267950   2.514   0.171  12.193 -0.2233 -0.1397 -0.1528
15512TIP3    H167951   2.447   0.183  12.126  0.4058  1.3912 -0.5322
15512TIP3    H267952   2.466   0.137  12.269 -1.2781  0.0724 -0.7147
15513TIP3   OH267953   4.997   5.530  13.722  0.2616 -0.4889 -0.0938
15513TIP3    H167954   4.940   5.539  13.798  0.8023  2.9281 -0.0274
15513TIP3    H267955   5.079   5.495  13.758  0.9064  2.1565  1.1534
15514TIP3   OH267956   5.668   4.703  11.945  0.0484  0.4458  0.2828
15514TIP3    H167957   5.751   4.751  11.950  0.0352  0.8712 -2.9200
15514TIP3    H267958   5.606   4.758  11.993  1.0412  1.3951  0.4949
15515TIP3   OH267959   1.749   0.356   4.028  0.2479  0.1595 -0.2214
15515TIP3    H167960   1.744   0.366   3.933  1.0898 -1.0766 -0.4109
15515TIP3    H267961   1.757   0.446   4.061 -0.6940  0.6429 -1.2638
15516TIP3   OH267962   5.465   4.988  11.900 -0.7913 -0.4929 -0.3772
15516TIP3    H167963   5.372   4.979  11.924 -0.0296 -0.8907  2.6896
15516TIP3    H267964   5.506   5.022  11.979  1.6145  0.1140 -1.8701
15517TIP3   OH267965   4.371   1.421   4.707 -0.3212 -0.5580 -0.9798
15517TIP3    H167966   4.447   1.448   4.654  0.7725  1.1979  1.3661
15517TIP3    H267967   4.409   1.374   4.781 -1.4875  0.3995  0.2541
15518TIP3   OH267968   0.180   6.259   5.344 -0.1709 -0.0162 -0.9485
15518TIP3    H167969   0.121   6.186   5.328 -0.6471  0.4797 -1.4959
15518TIP3    H267970   0.158   6.289   5.432  1.1267 -1.5332 -0.0818
15519TIP3   OH267971   5.640   3.644  13.317 -0.4006  0.0258 -0.2918
15519TIP3    H167972   5.647   3.632  13.222 -0.3416  0.0064 -0.2858
15519TIP3    H267973   5.599   3.730  13.328  1.3928  0.8911 -0.3026
15520TIP3   OH267974   3.586   3.716   2.639  0.0030  0.2087  0.8404
15520TIP3    H167975   3.628   3.768   2.571 -0.0982  0.6431  1.1055
15520TIP3    H267976   3.585   3.627   2.605  1.0413  0.2166  0.7901
15521TIP3   OH267977   4.674   3.550  12.179 -0.0229 -0.1827 -0.5908
15521TIP3    H167978   4.703   3.641  12.175 -0.0538 -0.0751  1.2720
15521TIP3    H267979   4.694   3.523  12.268 -0.1855 -1.9512 -1.0855
15522TIP3   OH267980   3.099   2.881  11.115 -0.0576 -0.0881  0.6575
15522TIP3    H167981   3.150   2.808  11.080  1.4161  0.7080  1.1009
15522TIP3    H267982   3.047   2.842  11.186 -0.0784 -0.9111  0.1953
15523TIP3   OH267983   5.787   6.625   0.581 -0.2144 -0.2617  0.5429
15523TIP3    H167984   5.833   6.595   0.503  0.0650 -1.7033  1.2502
15523TIP3    H267985   5.855   6.662   0.636 -0.2944  0.0170  0.4562
15524TIP3   OH267986   2.003   4.933  13.064  0.4320 -0.2089 -0.2268
15524TIP3    H167987   1.913   4.901  13.067  0.0520  0.8007 -0.7209
15524TIP3    H267988   2.042   4.901  13.146  0.0361 -1.7961 -0.6388
15525TIP3   OH267989   0.884   4.556   1.483 -0.3625  0.2818 -0.3815
15525TIP3    H167990   0.941   4.482   1.504  2.0903  2.2095 -0.1442
15525TIP3    H267991   0.889   4.565   1.388  0.3496  0.9557 -0.2779
15526TIP3   OH267992   1.814   2.044  11.878 -0.5358 -0.6511  0.0804
15526TIP3    H167993   1.815   1.995  11.961  0.4671 -2.3883 -0.9388
15526TIP3    H267994   1.882   2.003  11.825  0.8338  2.3430 -0.5581
15527TIP3   OH267995   4.586   0.380   4.145 -0.1389  0.1030 -0.1615
15527TIP3    H167996   4.584   0.463   4.193 -0.3037 -0.4160  0.7366
15527TIP3    H267997   4.593   0.406   4.053  0.4436  1.1017  0.1571
15528TIP3   OH267998   6.066   0.220   3.612  0.1908 -0.0735  0.2391
15528TIP3    H167999   6.138   0.264   3.657  0.0821  0.4477 -0.1038
15528TIP3    H268000   6.003   0.289   3.594 -0.9971 -0.7424  1.7003
15529TIP3   OH268001   6.458   2.444  15.276 -1.0813  0.6984 -0.5623
15529TIP3    H168002   6.366   2.436  15.300 -0.3232 -2.0110  1.7267
15529TIP3    H268003   6.502   2.466  15.358  0.5969 -0.3501 -1.1690
15530TIP3   OH268004   1.566   3.655   4.361 -0.7221  0.3098 -0.1471
15530TIP3    H168005   1.538   3.569   4.327  1.0295  0.1372 -1.2558
15530TIP3    H268006   1.562   3.646   4.456  0.4120 -1.3633 -0.2315
15531TIP3   OH268007   0.181   1.170   4.923  0.0194 -0.1955 -0.5666
15531TIP3    H168008   0.232   1.108   4.976 -0.7824 -1.7751 -1.6404
15531TIP3    H268009   0.242   1.199   4.856 -0.1562 -1.2677 -1.2012
15532TIP3   OH268010   3.051   2.391  13.421  0.2452  0.0126 -0.0048
15532TIP3    H168011   3.082   2.302  13.438 -0.4908 -0.2311  0.0372
15532TIP3    H268012   3.104   2.446  13.479  2.2153 -0.1682 -1.5728
15533TIP3   OH268013   2.204   3.162   4.248 -0.0473  0.5589  0.7231
15533TIP3    H168014   2.164   3.183   4.163 -0.3433  1.1155  1.0027
15533TIP3    H268015   2.151   3.089   4.281 -0.2967  0.7248  0.6945
15534TIP3   OH268016   3.089   2.772   5.324  0.1069 -0.4549  0.2545
15534TIP3    H168017   3.170   2.723   5.333 -0.1014 -0.7630  0.4385
15534TIP3    H268018   3.023   2.706   5.304 -0.2768 -0.3151  1.0693
15535TIP3   OH268019   3.486   1.430   5.976  0.0418 -0.1509  0.3490
15535TIP3    H168020   3.471   1.524   5.968 -0.3955 -0.1285  1.3357
15535TIP3    H268021   3.566   1.422   6.027 -0.0252 -0.3169  0.4295
15536TIP3   OH268022   3.190   3.338   6.133 -0.5144 -0.1615  0.6945
15536TIP3    H168023   3.117   3.398   6.151 -1.6998 -1.0356 -1.0475
15536TIP3    H268024   3.167   3.258   6.180 -0.6407 -0.4192  0.1913
15537TIP3   OH268025   0.262   2.721  12.287 -0.0234  0.3255  0.1310
15537TIP3    H168026   0.187   2.749  12.339 -1.3892 -1.7069 -0.6603
15537TIP3    H268027   0.235   2.737  12.196  0.9594  0.6429 -0.1073
15538TIP3   OH268028   1.576   5.681  16.847 -0.7697 -0.5983 -0.1300
15538TIP3    H168029   1.522   5.617  16.893 -2.7890  1.1697  0.0236
15538TIP3    H268030   1.524   5.709  16.772 -0.7815  2.2464  0.8507
15539TIP3   OH268031   2.907   2.727  12.302  0.1243 -0.1527 -0.4579
15539TIP3    H168032   2.830   2.767  12.260 -0.5336 -0.3767  0.5122
15539TIP3    H268033   2.978   2.788  12.282 -0.4302  0.3955 -0.8283
15540TIP3   OH268034   6.234   2.478  13.023  0.3978 -0.6867 -0.0558
15540TIP3    H168035   6.194   2.563  13.009 -0.0904 -1.1759 -1.7325
15540TIP3    H268036   6.162   2.416  13.018  1.0886 -1.4155 -1.3550
15541TIP3   OH268037   3.668   0.274   2.748  0.6095 -0.1298  0.0710
15541TIP3    H168038   3.720   0.334   2.694 -0.1978 -0.6954 -1.3676
15541TIP3    H268039   3.644   0.203   2.689 -2.4065  0.4818  0.4499
15542TIP3   OH268040   3.769   0.499   5.633  0.2080 -0.3229 -0.6626
15542TIP3    H168041   3.736   0.475   5.720  2.6527 -0.5085  0.2601
15542TIP3    H268042   3.810   0.585   5.647 -0.3065  0.1246 -1.8756
15543TIP3   OH268043   6.609   6.212  11.871 -0.0705  0.6016  0.2769
15543TIP3    H168044   6.531   6.264  11.887 -0.4147  0.7130 -1.6763
15543TIP3    H268045   6.682   6.270  11.894 -0.5139  1.0646  0.5210
15544TIP3   OH268046   0.721   2.957  16.703 -0.5736  0.7232  0.2569
15544TIP3    H168047   0.656   2.890  16.685 -0.9195  1.4981 -1.5197
15544TIP3    H268048   0.701   2.987  16.792 -0.0623 -1.8718  1.2644
15545TIP3   OH268049   0.587   0.592  15.142 -0.4380 -0.7345  0.6758
15545TIP3    H168050   0.664   0.536  15.146  0.6994  0.7159 -0.3419
15545TIP3    H268051   0.526   0.544  15.086  0.0215 -1.5522  0.8689
15546TIP3   OH268052   3.186   2.036   4.542  0.0263  0.6731 -0.2776
15546TIP3    H168053   3.210   2.021   4.450 -2.0951 -1.3640 -0.5413
15546TIP3    H268054   3.185   1.949   4.581  2.9645  1.6903  2.2756
15547TIP3   OH268055   4.147   5.424   4.434 -0.1941 -0.4450 -0.1769
15547TIP3    H168056   4.072   5.478   4.461 -0.5822 -1.3850  0.6635
15547TIP3    H268057   4.211   5.487   4.400 -1.6164  0.3260 -1.5074
15548TIP3   OH268058   3.348   0.653  14.073 -0.1370  0.2766  0.1284
15548TIP3    H168059   3.413   0.591  14.107  0.9618  0.8225 -0.9566
15548TIP3    H268060   3.265   0.604  14.077  1.0465 -2.1083 -2.7845
15549TIP3   OH268061   3.935   4.980  14.583  0.0985 -0.3301 -0.0934
15549TIP3    H168062   3.962   5.014  14.497  0.5455  1.6453  0.8153
15549TIP3    H268063   3.901   5.056  14.630  1.7756 -0.9621  2.2491
15550TIP3   OH268064   2.811   1.878   0.450  0.1609 -0.4604 -0.0120
15550TIP3    H168065   2.739   1.908   0.394 -0.0316 -1.8592 -0.5282
15550TIP3    H268066   2.866   1.956   0.461  0.2278 -0.1635 -2.1934
15551TIP3   OH268067   4.058   0.636  14.291  0.2153 -0.0137  0.9064
15551TIP3    H168068   4.029   0.723  14.265 -0.8004 -0.8294 -0.7926
15551TIP3    H268069   3.982   0.599  14.338  0.2259 -0.3993  0.6221
15552TIP3   OH268070   4.128   5.787   2.325  0.5673  0.5233  0.2089
15552TIP3    H168071   4.059   5.721   2.328 -0.6808  1.8431  0.7507
15552TIP3    H268072   4.114   5.840   2.403  1.8412  1.1724  0.0097
15553TIP3   OH268073   5.630   1.310  14.543  0.3735  0.5028  0.0460
15553TIP3    H168074   5.600   1.321  14.453  1.6552  0.4558 -0.3906
15553TIP3    H268075   5.572   1.244  14.580 -0.9310  1.3947 -0.3739
15554TIP3   OH268076   4.811   2.248   2.327  0.1221  0.7423  0.3875
15554TIP3    H168077   4.831   2.215   2.414  0.3242 -0.3651 -0.0746
15554TIP3    H268078   4.746   2.316   2.342 -0.5017 -0.0525  1.3179
15555TIP3   OH268079   6.496   2.856   4.829  0.1464  0.1703 -0.8542
15555TIP3    H168080   6.435   2.861   4.755 -0.8873  2.1808  0.0778
15555TIP3    H268081   6.571   2.909   4.802 -0.9746  2.3746  0.1356
15556TIP3   OH268082   5.445   3.912   4.394 -0.3611  0.0326  0.4012
15556TIP3    H168083   5.498   3.836   4.370  0.2535  0.5583  0.0797
15556TIP3    H268084   5.356   3.877   4.405  0.0079 -0.8188  0.7439
15557TIP3   OH268085   5.858   2.597   6.463  0.2944 -0.3939  0.4851
15557TIP3    H168086   5.762   2.595   6.460  0.3337 -3.0572 -0.4019
15557TIP3    H268087   5.878   2.634   6.549 -1.5420 -0.4447  0.9617
15558TIP3   OH268088   4.119   4.076  10.442  0.0419 -0.8538 -0.3678
15558TIP3    H168089   4.181   4.075  10.369  0.3637  2.5085 -0.2318
15558TIP3    H268090   4.037   4.106  10.403 -0.1439 -0.3669  0.3835
15559TIP3   OH268091   0.388   3.877  12.436 -0.6655  0.4537 -0.2178
15559TIP3    H168092   0.478   3.875  12.469 -1.7624  3.8671  3.3737
15559TIP3    H268093   0.347   3.799  12.475 -0.2854  1.0994  1.5382
15560TIP3   OH268094   3.108   2.539   2.643  0.2941 -0.0154  0.0549
15560TIP3    H168095   3.185   2.494   2.607 -0.9129 -2.3041  0.2044
15560TIP3    H268096   3.049   2.549   2.569 -0.2498 -0.4820  0.4161
15561TIP3   OH268097   3.989   0.606  15.140  0.7748  0.3535 -0.3801
15561TIP3    H168098   4.001   0.607  15.045  1.5488 -0.4282 -0.3089
15561TIP3    H268099   4.062   0.552  15.172 -0.9049 -1.4867  0.4411
15562TIP3   OH268100   5.429   1.934   0.339 -0.2016  0.1314 -0.3362
15562TIP3    H168101   5.406   2.006   0.279 -0.5195  0.1650 -0.1760
15562TIP3    H268102   5.511   1.899   0.304 -0.4717  0.0413 -0.8876
15563TIP3   OH268103   6.423   3.992  16.808 -0.1637  0.1158  0.0256
15563TIP3    H168104   6.450   4.084  16.806 -1.3367  0.5403  2.4421
15563TIP3    H268105   6.405   3.974  16.900 -0.7005 -2.3315 -0.5175
15564TIP3   OH268106   6.439   4.497   0.728 -0.4147  0.6646 -0.2807
15564TIP3    H168107   6.486   4.435   0.784 -2.2803 -0.0905  0.4783
15564TIP3    H268108   6.352   4.458   0.717  0.2113  0.3003 -4.5570
15565TIP3   OH268109   0.702   4.554   6.505 -0.6289 -0.2644 -0.3794
15565TIP3    H168110   0.732   4.473   6.463 -0.4798 -0.9188  0.9305
15565TIP3    H268111   0.703   4.533   6.599  0.0153  1.4676  0.0187
15566TIP3   OH268112   4.264   4.540  16.954  0.0790  0.8225 -0.1260
15566TIP3    H168113   4.215   4.463  16.983 -1.1104  1.9002  0.8154
15566TIP3    H268114   4.340   4.505  16.909 -1.5336 -0.8966 -1.5797
15567TIP3   OH268115   1.026   0.409  13.779  0.3113 -0.2752  0.4993
15567TIP3    H168116   0.975   0.378  13.704  0.0630 -1.6401  1.2117
15567TIP3    H268117   1.104   0.449  13.741  0.2632 -1.0961 -0.4721
15568TIP3   OH268118   2.706   1.796   3.646 -0.4623  0.1889  0.4976
15568TIP3    H168119   2.723   1.706   3.673  1.2517  0.2311 -0.3935
15568TIP3    H268120   2.618   1.794   3.607 -0.2194 -1.1901  0.0140
15569TIP3   OH268121   2.909   3.985  12.566 -0.0323  0.1334 -0.2122
15569TIP3    H168122   2.924   3.937  12.647  0.6752  0.4942 -0.1281
15569TIP3    H268123   2.826   3.950  12.532 -0.0061 -0.4621  0.3367
15570TIP3   OH268124   3.430   0.991   3.366 -0.1187  0.2583 -0.8654
15570TIP3    H168125   3.491   0.944   3.422 -0.4065  0.3863 -0.4430
15570TIP3    H268126   3.470   0.988   3.279 -0.0334 -0.5776 -0.7982
15571TIP3   OH268127   4.395   2.794   5.150  0.1947 -0.2217  0.2573
15571TIP3    H168128   4.361   2.816   5.063 -0.0538 -0.5837  0.2603
15571TIP3    H268129   4.477   2.748   5.132  0.5882  0.4749  0.2437
15572TIP3   OH268130   1.291   5.603   0.147 -0.2730 -0.1208 -0.7056
15572TIP3    H168131   1.354   5.584   0.077 -0.2143  0.2258 -0.7489
15572TIP3    H268132   1.283   5.699   0.147 -1.9883 -0.2489 -1.7478
15573TIP3   OH268133   2.632   6.205   0.329  0.0606 -0.1103 -0.1181
15573TIP3    H168134   2.573   6.130   0.320  1.0171 -0.8680 -0.2248
15573TIP3    H268135   2.590   6.262   0.393  0.3556 -1.7817  1.6046
15574TIP3   OH268136   4.720   6.138  12.658 -0.5978  0.1557 -0.7244
15574TIP3    H168137   4.794   6.108  12.606 -1.5202 -0.2356 -1.8465
15574TIP3    H268138   4.733   6.099  12.744  1.9610  2.3620 -0.0567
15575TIP3   OH268139   0.963   5.745   5.240  0.6416  0.1257 -0.1375
15575TIP3    H168140   1.036   5.754   5.179 -0.1232  0.8120 -0.9628
15575TIP3    H268141   0.954   5.831   5.280 -0.4052  0.3629 -0.8493
15576TIP3   OH268142   5.131   0.280   2.808 -0.2790  0.2859  0.6530
15576TIP3    H168143   5.149   0.244   2.721 -0.8211  0.8647  0.2875
15576TIP3    H268144   5.067   0.350   2.791 -1.2473 -0.3520  1.6541
15577TIP3   OH268145   4.842   3.629   5.083  0.1738 -0.1324  0.2819
15577TIP3    H168146   4.785   3.590   5.016  2.7211 -2.0225 -0.8614
15577TIP3    H268147   4.864   3.715   5.049 -0.5399 -0.1003 -0.1140
15578TIP3   OH268148   1.356   5.420   5.389 -0.4169  0.1605  0.6830
15578TIP3    H168149   1.316   5.424   5.475 -1.3836  0.8461  0.2115
15578TIP3    H268150   1.425   5.486   5.391 -0.8847  0.6434  0.7005
15579TIP3   OH268151   6.149   4.810   3.239 -0.4724  0.1829  0.4820
15579TIP3    H168152   6.193   4.726   3.222  1.1064  0.6497  2.1478
15579TIP3    H268153   6.205   4.854   3.303 -1.7414  2.1541  0.2713
15580TIP3   OH268154   3.826   3.845  10.351  0.6722 -0.2207 -0.6280
15580TIP3    H168155   3.752   3.826  10.292  0.2878 -3.0647  0.6531
15580TIP3    H268156   3.785   3.873  10.433  1.1351  1.4850 -0.9682
15581TIP3   OH268157   5.107   0.928  14.140  0.1071  0.0883 -0.5171
15581TIP3    H168158   5.061   0.959  14.063 -0.5150  1.3192  0.3275
15581TIP3    H268159   5.188   0.890  14.106  0.3453  1.5839 -1.7068
15582TIP3   OH268160   1.803   3.253  15.352 -0.0990  0.1644  0.3949
15582TIP3    H168161   1.804   3.341  15.390  0.1930  0.3081  0.0578
15582TIP3    H268162   1.873   3.206  15.397 -1.0998 -0.2979  1.5075
15583TIP3   OH268163   0.878   2.069  13.631  0.2720  0.1067  0.0751
15583TIP3    H168164   0.870   2.135  13.700  2.3780  0.4995 -0.0187
15583TIP3    H268165   0.834   1.992  13.665 -0.3400  0.8959  1.0894
15584TIP3   OH268166   5.325   5.861  13.383  0.2386 -0.1075  0.0854
15584TIP3    H168167   5.354   5.892  13.469  2.2434 -0.3472 -0.4830
15584TIP3    H268168   5.308   5.940  13.333 -1.9407  0.0420  1.0006
15585TIP3   OH268169   2.237   3.359   0.336  0.0042 -0.2991  0.2238
15585TIP3    H168170   2.230   3.435   0.393  0.3222 -0.0492 -0.0610
15585TIP3    H268171   2.165   3.369   0.273  1.5339  1.1166 -1.3692
15586TIP3   OH268172   3.638   4.367  14.278  0.6417  0.0248 -0.1336
15586TIP3    H168173   3.656   4.353  14.371 -1.2570  1.9602  0.5626
15586TIP3    H268174   3.650   4.461  14.265  1.8646 -0.3728 -2.0892
15587TIP3   OH268175   0.482   1.627  12.384  0.8508 -0.1852  0.3929
15587TIP3    H168176   0.479   1.690  12.312 -0.6795  0.4838  1.0041
15587TIP3    H268177   0.448   1.676  12.459  1.3054 -1.2301  1.2918
15588TIP3   OH268178   3.385   0.430  13.544  0.0369  0.2471  0.2558
15588TIP3    H168179   3.375   0.375  13.466 -0.5761 -0.4977  0.8445
15588TIP3    H268180   3.334   0.508  13.524  1.1007  0.7154 -0.6805
15589TIP3   OH268181   4.731   1.894  13.253 -0.5023  0.2900  0.0378
15589TIP3    H168182   4.731   1.813  13.203  2.4480 -0.0839  0.5008
15589TIP3    H268183   4.710   1.962  13.190 -0.6800 -0.6062 -0.8691
15590TIP3   OH268184   2.515   6.204  13.901 -0.1615  0.1617 -0.4293
15590TIP3    H168185   2.432   6.191  13.947  0.0315  1.1108  0.2076
15590TIP3    H268186   2.533   6.120  13.860 -1.3468 -0.1115 -0.4211
15591TIP3   OH268187   6.177   5.752   6.387 -0.3907  0.2430 -0.2731
15591TIP3    H168188   6.129   5.835   6.381  0.1065  0.5249 -0.3473
15591TIP3    H268189   6.132   5.704   6.456  0.6989  1.4877  1.3547
15592TIP3   OH268190   0.494   2.835   3.454  0.6625 -0.5177 -0.0579
15592TIP3    H168191   0.503   2.880   3.370  1.3357 -1.2162 -0.3640
15592TIP3    H268192   0.420   2.878   3.496  0.6052  0.1401 -0.8161
15593TIP3   OH268193   5.226   6.345  16.080  0.0519  0.5063  0.8035
15593TIP3    H168194   5.246   6.433  16.112 -0.3979  0.4911  1.1293
15593TIP3    H268195   5.170   6.307  16.148 -0.3193  0.2179  0.3384
15594TIP3   OH268196   1.953   2.329   4.973  0.5751 -0.2076  0.3850
15594TIP3    H168197   1.930   2.326   5.067  1.5400  2.8648  0.7822
15594TIP3    H268198   2.048   2.320   4.971  0.5610 -0.2140 -0.2932
15595TIP3   OH268199   5.187   1.977   0.551  0.1035 -0.2269  0.0227
15595TIP3    H168200   5.282   1.984   0.563  0.0033 -0.0000  0.6843
15595TIP3    H268201   5.158   2.068   0.538  0.0572 -0.3548 -0.7768
15596TIP3   OH268202   1.768   6.611  17.093 -0.3509  0.0267 -0.0591
15596TIP3    H168203   1.712   6.558  17.149  0.4562 -0.0808  0.6604
15596TIP3    H268204   1.797   6.683  17.148  1.1725 -0.5641 -0.0487
15597TIP3   OH268205   5.899   5.328   1.545  0.3044 -0.0591 -0.3266
15597TIP3    H168206   5.987   5.363   1.531  0.4406 -0.8260 -1.3874
15597TIP3    H268207   5.858   5.330   1.458 -1.1013  1.3009  0.3349
15598TIP3   OH268208   2.965   2.779  16.102 -0.4164  0.0556  0.0536
15598TIP3    H168209   2.944   2.780  16.195 -1.6239  0.4322 -0.2112
15598TIP3    H268210   3.046   2.829  16.095 -1.5162  1.9728  0.6347
15599TIP3   OH268211   6.495   1.353  16.913 -0.0510  0.2943  0.0762
15599TIP3    H168212   6.532   1.267  16.931  0.4582  0.5310  0.1766
15599TIP3    H268213   6.454   1.380  16.995 -0.9391 -0.2061 -0.1930
15600TIP3   OH268214   6.404   2.798   4.173 -0.5514  0.6616 -0.3607
15600TIP3    H168215   6.380   2.887   4.198 -2.6387  0.2526 -0.7799
15600TIP3    H268216   6.409   2.750   4.256 -1.0890  0.8002 -0.2434
15601TIP3   OH268217   1.577   0.429  12.762 -0.3266 -0.1066 -0.3980
15601TIP3    H168218   1.542   0.518  12.762 -0.8306 -0.3003  0.7026
15601TIP3    H268219   1.530   0.385  12.691 -0.3396  0.3987 -0.7054
15602TIP3   OH268220   2.692   4.777  16.551  0.0666  0.0808  0.1896
15602TIP3    H168221   2.684   4.683  16.540 -0.2224  0.3821 -2.4675
15602TIP3    H268222   2.770   4.802  16.501  0.6396  1.1618  1.5604
15603TIP3   OH268223   1.340   6.682  12.228 -0.3173  0.3855  0.6641
15603TIP3    H168224   1.413   6.665  12.287 -0.5885 -1.5173  0.4834
15603TIP3    H268225   1.316   6.596  12.194 -1.5324  1.1988 -0.5967
15604TIP3   OH268226   6.597   4.670   1.096 -0.0501  0.3362  0.1022
15604TIP3    H168227   6.635   4.605   1.155 -4.5323 -2.4211  0.2267
15604TIP3    H268228   6.657   4.673   1.021  2.6448 -0.4719  2.1690
15605TIP3   OH268229   4.188   4.290  17.017 -0.2629 -0.1380 -0.2011
15605TIP3    H168230   4.267   4.271  16.966 -0.3791  2.3297 -1.3737
15605TIP3    H268231   4.121   4.234  16.978  0.6195 -1.3493 -0.0052
15606TIP3   OH268232   4.465   0.138   4.005  0.4875 -0.5224  0.4461
15606TIP3    H168233   4.530   0.176   4.064  0.2326  0.9885 -0.2134
15606TIP3    H268234   4.505   0.144   3.918 -0.9981  1.5582 -0.1290
15607TIP3   OH268235   2.668   5.086  13.790  0.0099 -0.3842 -0.6845
15607TIP3    H168236   2.651   5.125  13.704 -1.6578 -0.2469 -0.3233
15607TIP3    H268237   2.583   5.049  13.816 -0.2840  2.0211  2.1058
15608TIP3   OH268238   0.046   2.384  15.963 -0.2860  0.0248  0.1237
15608TIP3    H168239   0.020   2.475  15.977 -2.4117  0.2136 -4.1475
15608TIP3    H268240  -0.036   2.336  15.955  0.7767 -1.6613 -1.0005
15609TIP3   OH268241   2.443   2.532  16.987 -0.1495 -0.0568 -0.2582
15609TIP3    H168242   2.414   2.441  16.986  0.4326 -0.2447 -0.0580
15609TIP3    H268243   2.432   2.562  16.897 -0.6930 -0.2079 -0.2476
15610TIP3   OH268244   5.211   0.518   5.225  0.0630 -0.0790  0.1447
15610TIP3    H168245   5.125   0.556   5.205  0.4146  1.3360  1.2671
15610TIP3    H268246   5.193   0.424   5.236 -1.2706  0.1422 -0.0154
15611TIP3   OH268247   3.420   2.992  15.392  0.5646 -0.4207 -0.1382
15611TIP3    H168248   3.488   2.997  15.324  0.7190  0.7889  0.0941
15611TIP3    H268249   3.343   3.032  15.352  0.6900  0.4068  0.4386
15612TIP3   OH268250   1.166   3.161  14.396  0.1068  0.5514  0.5367
15612TIP3    H168251   1.225   3.124  14.461  0.5166 -0.5303 -0.4370
15612TIP3    H268252   1.137   3.086  14.344  1.4886  1.6398 -1.9139
15613TIP3   OH268253   3.413   3.968   5.930  0.3553 -0.7499 -0.4087
15613TIP3    H168254   3.341   3.983   5.991  2.4165 -1.4993  2.3417
15613TIP3    H268255   3.413   4.045   5.873 -0.0262  1.2860  2.2337
15614TIP3   OH268256   0.382   2.694   5.861 -0.0078 -0.5984 -0.9476
15614TIP3    H168257   0.367   2.776   5.907  0.2419 -1.0421 -0.0628
15614TIP3    H268258   0.295   2.660   5.842 -0.1110  0.1730 -1.8609
15615TIP3   OH268259   3.329   4.678   3.144 -0.1593  0.0859  0.1563
15615TIP3    H168260   3.278   4.612   3.097  0.1386 -0.3997  0.5117
15615TIP3    H268261   3.373   4.629   3.214  1.7679  0.2587 -0.8941
15616TIP3   OH268262   3.223   5.869   1.494  0.1694 -0.4786  0.1834
15616TIP3    H168263   3.154   5.816   1.533 -2.2926  3.1371  0.9923
15616TIP3    H268264   3.183   5.956   1.483  3.7497  1.0169 -1.8330
15617TIP3   OH268265   1.952   6.110  13.258 -0.5321 -0.2861  0.2991
15617TIP3    H168266   1.911   6.107  13.344  0.1206 -1.7352  0.5852
15617TIP3    H268267   2.001   6.192  13.257  0.9024 -1.1000  2.0067
15618TIP3   OH268268   0.490   0.931  16.609 -0.0427  0.0346 -0.2172
15618TIP3    H168269   0.506   1.007  16.552  2.3093  0.9737  1.5782
15618TIP3    H268270   0.403   0.900  16.584 -0.0811  1.8858 -2.6132
15619TIP3   OH268271   2.358   1.148   5.982  0.3150  0.3812 -0.3862
15619TIP3    H168272   2.436   1.160   6.036 -0.5495 -1.6429  1.4156
15619TIP3    H268273   2.292   1.205   6.024  0.3305  0.7417 -0.8477
15620TIP3   OH268274   1.211   1.468  15.445  0.6426 -0.5791  0.2689
15620TIP3    H168275   1.132   1.519  15.462  1.1542  0.6742 -0.9678
15620TIP3    H268276   1.186   1.378  15.464 -0.9390 -0.1397  0.3627
15621TIP3   OH268277   6.364   4.223   1.853 -0.6451 -0.0351  0.3890
15621TIP3    H168278   6.361   4.187   1.764  0.0351 -1.1553  0.8253
15621TIP3    H268279   6.326   4.311   1.843 -0.2522 -0.0116 -1.0699
15622TIP3   OH268280   3.982   4.794  11.347  0.1314 -0.3964 -0.8398
15622TIP3    H168281   3.962   4.755  11.262 -0.3675 -0.2902 -0.7724
15622TIP3    H268282   3.966   4.887  11.335  0.2780 -0.3511 -0.6939
15623TIP3   OH268283   3.828   3.945   3.575  0.5387  0.6373  0.4809
15623TIP3    H168284   3.825   3.981   3.486 -1.9609 -0.2779  0.1403
15623TIP3    H268285   3.742   3.903   3.586  0.4233  1.6355  3.7078
15624TIP3   OH268286   4.376   2.132  10.863  0.2323 -0.0460  0.3146
15624TIP3    H168287   4.316   2.058  10.859 -0.5859  0.4957  2.1113
15624TIP3    H268288   4.323   2.205  10.895  1.6174  0.6823  0.9906
15625TIP3   OH268289   5.694   3.676   1.991 -0.0059  0.1824 -0.1906
15625TIP3    H168290   5.678   3.738   2.062 -0.6790  0.9754 -1.0174
15625TIP3    H268291   5.770   3.712   1.945  1.1102 -0.9169  0.7689
15626TIP3   OH268292   0.699   0.136  16.216 -0.0320  0.0145 -0.0144
15626TIP3    H168293   0.793   0.137  16.200  0.1267 -0.1828  0.8476
15626TIP3    H268294   0.685   0.208  16.278 -0.8160  1.6528 -2.0246
15627TIP3   OH268295   1.555   5.496   1.150  0.0671 -0.0921 -1.0349
15627TIP3    H168296   1.496   5.564   1.118  1.1216  1.0376 -0.5847
15627TIP3    H268297   1.609   5.473   1.075  1.2188  1.1624 -0.5927
15628TIP3   OH268298   6.548   4.186   5.681 -0.1307  0.0997  0.1154
15628TIP3    H168299   6.532   4.269   5.636  3.1329  1.5771  1.5125
15628TIP3    H268300   6.494   4.190   5.760  0.1124  0.9668  0.2425
15629TIP3   OH268301   4.334   5.181   5.838  0.1486 -0.0142  0.5461
15629TIP3    H168302   4.275   5.241   5.792 -1.6578 -0.9853  1.5233
15629TIP3    H268303   4.336   5.215   5.928  0.4638 -0.4517  0.7041
15630TIP3   OH268304   5.200   5.751   0.142  0.1261 -0.9331 -0.4505
15630TIP3    H168305   5.261   5.814   0.104 -0.4639 -0.7815 -1.1468
15630TIP3    H268306   5.164   5.703   0.066 -0.3726 -1.2444 -0.0229
15631TIP3   OH268307   3.684   3.874  15.055 -0.2462  0.6034  0.4852
15631TIP3    H168308   3.753   3.823  15.097  0.6082  0.8778 -0.5717
15631TIP3    H268309   3.730   3.934  14.997 -1.3690  0.9517 -0.0571
15632TIP3   OH268310   0.981   1.389  13.901  0.2742 -0.2633 -0.2217
15632TIP3    H168311   1.048   1.365  13.838  0.6043  1.2261 -0.4476
15632TIP3    H268312   0.971   1.484  13.891 -1.4197 -0.3764  0.2307
15633TIP3   OH268313   5.351   3.589  11.382  0.2860 -0.0571 -0.2235
15633TIP3    H168314   5.282   3.622  11.439 -1.5717  0.2468 -2.5928
15633TIP3    H268315   5.324   3.613  11.294  2.8053 -1.0373 -1.3216
15634TIP3   OH268316   4.163   3.277   5.203  0.4479  0.1075 -0.2937
15634TIP3    H168317   4.152   3.302   5.295 -0.3325 -0.4128 -0.2490
15634TIP3    H268318   4.202   3.190   5.206 -0.1601 -0.1682 -0.4623
15635TIP3   OH268319   6.455   4.923   4.711  0.5543 -0.1448  0.2829
15635TIP3    H168320   6.373   4.972   4.710 -0.1449 -1.2913 -0.2304
15635TIP3    H268321   6.471   4.906   4.804 -0.9716 -1.7928  0.2787
15636TIP3   OH268322   6.475   3.039  11.859  0.0732  0.0848 -0.4702
15636TIP3    H168323   6.526   2.990  11.795  0.4157 -0.3750  0.1379
15636TIP3    H268324   6.502   3.002  11.944  0.3835  1.3694  0.0064
15637TIP3   OH268325   1.090   2.312  14.451 -0.8678 -0.8144 -0.6605
15637TIP3    H168326   1.156   2.265  14.400 -0.3711 -0.6737 -0.1472
15637TIP3    H268327   1.053   2.375  14.389  0.1656 -0.2112 -0.6779
15638TIP3   OH268328   0.395   2.682  11.074 -0.4940 -0.2652 -0.2551
15638TIP3    H168329   0.470   2.721  11.119  0.1666  0.2622 -1.7421
15638TIP3    H268330   0.392   2.729  10.990 -1.6194 -1.2720 -0.7827
15639TIP3   OH268331   4.319   5.799   5.862  0.9377  1.0328 -0.4611
15639TIP3    H168332   4.302   5.814   5.955  0.3260 -1.9755 -0.0476
15639TIP3    H268333   4.232   5.788   5.823  1.2347  1.3580 -1.2339
15640TIP3   OH268334   4.987   1.874  10.797  0.0992  0.5864 -0.0790
15640TIP3    H168335   4.984   1.863  10.702  1.2523 -3.2182  0.2695
15640TIP3    H268336   4.899   1.853  10.827 -0.2790  1.8354 -0.2617
15641TIP3   OH268337   3.632   2.467   4.200  0.0891  0.3604  0.3343
15641TIP3    H168338   3.714   2.487   4.247  1.4766  3.0329 -3.0620
15641TIP3    H268339   3.643   2.376   4.172  2.9220  1.2933 -1.8775
15642TIP3   OH268340   2.348   1.949   0.918 -0.1635 -0.1404  0.1342
15642TIP3    H168341   2.380   1.859   0.913 -0.4877 -0.1941 -1.2042
15642TIP3    H268342   2.296   1.951   0.998 -0.0186 -1.1052  0.2606
15643TIP3   OH268343   5.711   6.454  13.341  0.2738 -0.1221 -0.0062
15643TIP3    H168344   5.709   6.360  13.323  0.3348  0.1234 -1.3732
15643TIP3    H268345   5.619   6.481  13.334  0.0729 -0.3107  1.7349
15644TIP3   OH268346   1.904   0.348   5.837 -0.2172 -0.0236 -0.0540
15644TIP3    H168347   1.849   0.345   5.916 -1.5098  1.6846 -0.8444
15644TIP3    H268348   1.904   0.258   5.805  0.6422 -0.8302  2.0883
15645TIP3   OH268349   0.911   0.229  12.368  0.4088 -0.9658  0.6354
15645TIP3    H168350   0.949   0.142  12.378 -0.0568 -1.2675 -0.1778
15645TIP3    H268351   0.939   0.258  12.281  2.7946  0.8186  1.9542
15646TIP3   OH268352   1.955   1.596  15.017 -0.1041 -0.2871  0.0731
15646TIP3    H168353   1.938   1.521  14.960  0.3967 -1.5656  1.5526
15646TIP3    H268354   1.873   1.609  15.065 -0.2709  0.2770 -0.3601
15647TIP3   OH268355   6.289   2.225   2.652  0.0444 -0.2792 -0.2429
15647TIP3    H168356   6.272   2.194   2.563 -1.3596  2.0748 -0.8535
15647TIP3    H268357   6.374   2.188   2.675  0.1468 -1.4145 -2.3403
15648TIP3   OH268358   0.238   2.119  16.783  0.3279 -0.0142 -0.4779
15648TIP3    H168359   0.304   2.187  16.797 -0.1024  0.1992  0.5128
15648TIP3    H268360   0.156   2.166  16.775 -0.1696 -0.4968  1.5518
15649TIP3   OH268361   2.518   3.215   5.800  0.0284 -0.1893 -0.4583
15649TIP3    H168362   2.445   3.155   5.815 -0.9394  0.9347 -0.5024
15649TIP3    H268363   2.568   3.176   5.729 -0.6769 -0.8539 -0.5956
15650TIP3   OH268364   0.129   1.014   0.255  0.0437  0.0262 -0.2259
15650TIP3    H168365   0.202   1.069   0.285  0.9011 -2.1022  1.7465
15650TIP3    H268366   0.138   0.933   0.305 -2.7166 -0.9263 -1.1753
15651TIP3   OH268367   4.731   5.898   0.256 -0.2786 -0.0308  0.6316
15651TIP3    H168368   4.642   5.924   0.234 -0.1587 -1.8286 -2.2615
15651TIP3    H268369   4.721   5.825   0.317 -0.8681 -1.7406 -1.4726
15652TIP3   OH268370   4.949   4.774   6.034 -0.2500  0.2189 -0.1023
15652TIP3    H168371   5.008   4.703   6.060  1.4862  2.2522  1.6241
15652TIP3    H268372   4.890   4.785   6.109 -0.0303  1.0950 -0.0565
15653TIP3   OH268373   0.082   0.590   1.488 -0.1302  0.0621  0.2137
15653TIP3    H168374   0.025   0.666   1.496  1.5041  1.2709  0.7765
15653TIP3    H268375   0.065   0.555   1.401 -0.9217  1.0479 -0.0292
15654TIP3   OH268376   4.953   0.464  14.850 -0.7295  0.1674 -0.6272
15654TIP3    H168377   5.003   0.416  14.916 -0.4267  0.3442 -0.7275
15654TIP3    H268378   4.998   0.548  14.843 -1.0827  0.3553 -0.6676
15655TIP3   OH268379   1.956   0.262  16.670  0.3176 -0.2187  0.6828
15655TIP3    H168380   2.051   0.257  16.672  0.1957 -2.7173  2.9411
15655TIP3    H268381   1.931   0.226  16.585  1.3370 -1.1607  0.7760
15656TIP3   OH268382   1.934   3.714  14.439  0.3062  0.5645 -0.8134
15656TIP3    H168383   1.955   3.673  14.355 -0.1164  0.4758 -0.8793
15656TIP3    H268384   1.840   3.699  14.449  0.8355 -1.9610  1.0418
15657TIP3   OH268385   1.556   5.966  16.031 -0.6998  0.0064  0.0235
15657TIP3    H168386   1.493   6.030  16.063 -0.5291 -1.1003  2.7295
15657TIP3    H268387   1.508   5.918  15.963 -1.8774  0.9067  0.1907
15658TIP3   OH268388   4.547   4.217  12.371 -0.3513  0.0075  0.2803
15658TIP3    H168389   4.597   4.276  12.428  1.0247  0.0557 -0.9572
15658TIP3    H268390   4.523   4.271  12.296  0.5208 -0.8789 -0.6405
15659TIP3   OH268391   0.613   0.472  11.767 -0.5244 -0.2086  0.0275
15659TIP3    H168392   0.612   0.553  11.818 -1.5581 -0.2893  0.1463
15659TIP3    H268393   0.571   0.408  11.824  1.6162 -1.2070  0.5354
15660TIP3   OH268394   5.921   1.774   0.893 -0.1369  0.2680  0.6436
15660TIP3    H168395   5.991   1.709   0.883 -1.8652 -1.9217  2.2694
15660TIP3    H268396   5.865   1.760   0.817 -0.1737  0.3096  0.6632
15661TIP3   OH268397   5.248   0.733  11.813  0.3390  0.4395 -0.4923
15661TIP3    H168398   5.159   0.705  11.792  1.2308 -1.9347 -1.2707
15661TIP3    H268399   5.281   0.772  11.732  0.5115 -0.0667 -0.6709
15662TIP3   OH268400   6.611   3.930  14.277 -0.3169 -0.3290 -0.5557
15662TIP3    H168401   6.563   3.997  14.326  0.5654 -1.4613  1.9596
15662TIP3    H268402   6.559   3.850  14.288  0.6384 -0.9162 -0.2295
15663TIP3   OH268403   2.130   2.993  14.721 -0.0021 -0.3383 -0.0871
15663TIP3    H168404   2.118   2.953  14.807 -0.4934 -0.5186 -0.2419
15663TIP3    H268405   2.200   2.942  14.681 -0.0186 -0.4804  0.0617
15664TIP3   OH268406   6.781   1.724   4.645  0.3327  0.1023 -0.5548
15664TIP3    H168407   6.706   1.674   4.678 -0.4213  1.6280  0.0886
15664TIP3    H268408   6.825   1.756   4.724  0.7123  0.6111 -0.9711
15665TIP3   OH268409   5.156   0.208  15.641 -0.6274  0.3536  0.3080
15665TIP3    H168410   5.232   0.150  15.646 -0.6530  0.5117  3.2573
15665TIP3    H268411   5.183   0.277  15.579  1.4415  0.1312  0.9099
15666TIP3   OH268412   3.812   3.579   6.002 -0.1809  0.0135  0.7432
15666TIP3    H168413   3.779   3.664   6.033 -1.3466 -0.3180  0.4389
15666TIP3    H268414   3.734   3.526   5.991  0.3514 -0.4088 -1.1587
15667TIP3   OH268415   0.712   3.660  12.806  0.1044 -0.3848  0.4775
15667TIP3    H168416   0.805   3.646  12.789  0.2418  0.4654  0.4803
15667TIP3    H268417   0.671   3.575  12.790  0.9561 -0.9119  1.0381
15668TIP3   OH268418   6.030   3.955  13.426 -0.4361 -0.3005  0.1685
15668TIP3    H168419   5.972   3.886  13.395  0.1514  0.3155 -2.4894
15668TIP3    H268420   6.111   3.910  13.450 -0.3197 -0.6426 -0.8263
15669TIP3   OH268421   2.512   0.420  12.978 -0.6262  0.3105 -0.1834
15669TIP3    H168422   2.590   0.419  12.923 -1.9155  0.8615 -2.0472
15669TIP3    H268423   2.440   0.437  12.918 -1.9746  1.8380  1.8054
15670TIP3   OH268424   3.460   5.556  14.207  0.0954 -0.5399  0.2477
15670TIP3    H168425   3.501   5.615  14.144 -0.5871  1.4451  1.5922
15670TIP3    H268426   3.366   5.572  14.196 -0.0818 -1.2183  0.7906
15671TIP3   OH268427   6.458   1.448  10.652 -0.0057 -0.1609 -0.0751
15671TIP3    H168428   6.481   1.541  10.652  0.2607 -0.2272 -0.0372
15671TIP3    H268429   6.479   1.418  10.740  2.1041 -0.7998 -0.7672
15672TIP3   OH268430   2.624   0.511  12.472  0.2214 -0.5060  0.4293
15672TIP3    H168431   2.559   0.446  12.445  0.8562 -1.6140  1.4947
15672TIP3    H268432   2.708   0.472  12.447  0.4672  1.1827 -1.4894
15673TIP3   OH268433   0.799   3.893   0.860  0.0423  0.3563 -1.1986
15673TIP3    H168434   0.833   3.878   0.771  0.5537  0.6983 -1.0617
15673TIP3    H268435   0.873   3.929   0.908 -0.4797  0.9900 -0.8574
15674TIP3   OH268436   2.427   6.106  11.716 -0.1607 -0.3151  0.1322
15674TIP3    H168437   2.510   6.068  11.686 -0.1854  0.2281 -0.6349
15674TIP3    H268438   2.440   6.120  11.810  0.0480 -1.6788  0.3183
15675TIP3   OH268439   3.592   0.216   6.132 -0.4097  0.6912  0.1850
15675TIP3    H168440   3.648   0.142   6.110 -1.0096  0.0206  0.8978
15675TIP3    H268441   3.503   0.185   6.117 -0.6496  1.4116  0.0763
15676TIP3   OH268442   3.502   3.569   0.323 -0.7373 -0.1030 -0.0878
15676TIP3    H168443   3.461   3.541   0.241  0.6826 -0.8060 -0.5911
15676TIP3    H268444   3.580   3.514   0.330 -0.2935  0.6715  1.2178
15677TIP3   OH268445   0.078   5.121  16.408 -0.1920  0.4047  0.2828
15677TIP3    H168446   0.011   5.185  16.429 -0.4423 -0.1573  1.2346
15677TIP3    H268447   0.155   5.173  16.383 -0.8488  1.0444 -0.4209
15678TIP3   OH268448   3.277   2.106   2.999  0.3222  0.0243 -0.5277
15678TIP3    H168449   3.197   2.153   2.975  0.2682 -0.2551 -0.8984
15678TIP3    H268450   3.329   2.103   2.919  0.5846 -0.0323 -0.3568
15679TIP3   OH268451   4.361   5.925  17.130 -0.4340 -0.6167 -0.2795
15679TIP3    H168452   4.383   6.013  17.100  0.4406 -0.0928  1.7706
15679TIP3    H268453   4.268   5.929  17.152 -0.0088  0.3459  1.4964
15680TIP3   OH268454   0.120   1.460  15.491  0.2006 -0.4236 -0.1770
15680TIP3    H168455   0.073   1.456  15.574 -0.7614 -0.6772 -0.7316
15680TIP3    H268456   0.192   1.397  15.501  1.6225  1.4116  1.4012
15681TIP3   OH268457   1.642   2.806   4.189 -0.2263  0.2067 -0.5898
15681TIP3    H168458   1.568   2.804   4.249 -0.7616 -1.3594 -1.2604
15681TIP3    H268459   1.629   2.729   4.133  2.2256 -0.4629 -0.3157
15682TIP3   OH268460   0.951   6.171  11.564  0.8684  0.4821 -0.1144
15682TIP3    H168461   0.966   6.132  11.478 -0.8052 -0.1676 -0.1394
15682TIP3    H268462   0.945   6.097  11.624  0.5042  0.8448  0.3068
15683TIP3   OH268463   4.360   5.090  15.044 -0.1794 -0.0767 -0.4394
15683TIP3    H168464   4.416   5.044  15.106  0.6241 -0.4585 -1.4229
15683TIP3    H268465   4.369   5.182  15.067 -1.8012 -0.3923  1.5507
15684TIP3   OH268466   3.168   5.609   0.159 -0.1804 -0.4693 -0.2882
15684TIP3    H168467   3.187   5.676   0.225 -1.8047  0.4405 -0.7113
15684TIP3    H268468   3.114   5.654   0.095 -0.9092 -2.0843 -0.8299
15685TIP3   OH268469   2.437   5.471   5.060  0.1756  0.0397  0.1763
15685TIP3    H168470   2.404   5.383   5.077 -0.7056  0.4354  0.5418
15685TIP3    H268471   2.501   5.459   4.990  0.8609 -1.0342  0.9725
15686TIP3   OH268472   3.222   2.187  13.433  0.1200 -0.3042 -0.6698
15686TIP3    H168473   3.286   2.138  13.484 -0.8462  0.0470  0.8866
15686TIP3    H268474   3.275   2.249  13.382  1.0723 -0.3846  0.2006
15687TIP3   OH268475   3.616   0.973  10.943 -0.0395  0.3089 -0.5528
15687TIP3    H168476   3.617   0.928  10.858 -1.0230 -0.7418 -0.0175
15687TIP3    H268477   3.692   1.031  10.940 -0.1264  0.3690 -2.2047
15688TIP3   OH268478   4.122   3.266   5.492 -0.2425 -0.4771  1.2340
15688TIP3    H168479   4.090   3.305   5.573  0.8581  0.5590  1.1740
15688TIP3    H268480   4.216   3.254   5.506 -0.0024 -0.0714  0.0199
15689TIP3   OH268481   2.826   5.575   6.399  0.2301 -0.5987  0.0538
15689TIP3    H168482   2.748   5.537   6.359  0.2554  0.3999 -0.9673
15689TIP3    H268483   2.898   5.553   6.339  0.5161 -0.3546  0.3024
15690TIP3   OH268484   0.448   4.939   5.816 -0.3845 -0.5725  0.0272
15690TIP3    H168485   0.527   4.991   5.829 -1.3627  0.7279  0.9233
15690TIP3    H268486   0.458   4.865   5.875  0.3939 -0.6694 -0.2305
15691TIP3   OH268487   1.993   2.347   6.118 -0.0182  0.0091 -0.2702
15691TIP3    H168488   1.947   2.426   6.143  0.3158  0.4945 -1.1516
15691TIP3    H268489   2.064   2.339   6.181 -0.7262 -0.2091  0.5010
15692TIP3   OH268490   5.932   5.267   5.938  0.0747  0.1073  0.1455
15692TIP3    H168491   5.936   5.208   6.013  0.0917 -1.1938 -0.8726
15692TIP3    H268492   5.872   5.337   5.966  0.1600 -0.3100  1.3984
15693TIP3   OH268493   2.626   1.801   5.717  0.0590 -0.6179  0.4736
15693TIP3    H168494   2.530   1.804   5.715  0.0563 -1.0370 -0.0661
15693TIP3    H268495   2.647   1.728   5.775  0.0577 -0.5264  0.5917
15694TIP3   OH268496   0.492   2.228  16.838  0.4437  0.3852  0.1232
15694TIP3    H168497   0.551   2.153  16.828  0.7917  0.5485  0.9781
15694TIP3    H268498   0.491   2.246  16.932  0.6544  1.7027 -0.1269
15695TIP3   OH268499   2.471   2.933   2.380 -0.2557 -0.0214  0.4186
15695TIP3    H168500   2.504   2.847   2.405  0.1563 -0.0515 -0.2194
15695TIP3    H268501   2.448   2.924   2.288 -1.3173  0.2235  0.6488
15696TIP3   OH268502   1.395   1.012   3.102  0.5373  0.2164 -0.4619
15696TIP3    H168503   1.361   0.924   3.119 -0.1829  0.5729 -0.0335
15696TIP3    H268504   1.489   1.005   3.120  0.2631 -0.1266  0.9098
15697TIP3   OH268505   2.213   1.565  12.575  0.1899 -0.6162 -0.0308
15697TIP3    H168506   2.202   1.660  12.569 -1.9895 -0.8203  0.2913
15697TIP3    H268507   2.284   1.553  12.638  1.5285  0.8102 -1.2214
15698TIP3   OH268508   2.160   5.228  11.509 -0.2838  0.4729  0.0035
15698TIP3    H168509   2.168   5.145  11.555 -0.5932  0.1107 -0.5876
15698TIP3    H268510   2.228   5.284  11.546  0.7271 -0.4429 -0.4614
15699TIP3   OH268511   0.059   2.935  11.802 -0.0517 -0.4440 -0.2518
15699TIP3    H168512  -0.030   2.913  11.774 -0.2391  0.1967 -0.1778
15699TIP3    H268513   0.116   2.882  11.746 -0.4550 -0.0298 -1.0741
15700TIP3   OH268514   2.516   4.829  11.056 -0.4481 -0.1583 -0.0412
15700TIP3    H168515   2.509   4.890  11.129  1.5705  1.3810 -1.0494
15700TIP3    H268516   2.444   4.853  10.997  0.7268  1.7608 -0.7449
15701TIP3   OH268517   2.591   1.624   5.376  0.5354  0.0262  0.5262
15701TIP3    H168518   2.673   1.624   5.326  0.5505 -1.8173  0.5115
15701TIP3    H268519   2.618   1.611   5.467  0.3110  0.1548  0.6118
15702TIP3   OH268520   2.657   2.725  14.711  0.6515  0.3156 -0.4308
15702TIP3    H168521   2.738   2.675  14.696 -0.1219 -0.3725 -2.4405
15702TIP3    H268522   2.590   2.677  14.663 -1.2854  0.0636  2.4385
15703TIP3   OH268523   5.857   0.684   3.781  0.1433  0.1618 -0.0608
15703TIP3    H168524   5.941   0.679   3.827  0.3644 -1.8860 -0.6478
15703TIP3    H268525   5.856   0.772   3.743  1.5332  0.5887  0.8325
15704TIP3   OH268526   3.926   1.259   5.410 -0.4718 -0.1636  0.0110
15704TIP3    H168527   4.020   1.276   5.415 -0.4310 -0.4596  0.2643
15704TIP3    H268528   3.919   1.164   5.404 -0.7365 -0.1145 -0.5074
15705TIP3   OH268529   4.523   1.970   0.468 -0.0758  0.1547  0.1228
15705TIP3    H168530   4.533   1.913   0.544 -3.3483 -1.3938 -0.4782
15705TIP3    H268531   4.457   2.034   0.494  0.7449  1.2749 -0.5224
15706TIP3   OH268532   3.219   1.227  10.269  0.0409  0.7544 -0.7293
15706TIP3    H168533   3.238   1.183  10.186 -1.0915  2.2587 -1.8250
15706TIP3    H268534   3.131   1.262  10.258 -0.3700  0.4309  1.3642
15707TIP3   OH268535   2.275   0.453   2.740  0.5408  0.1177  0.2848
15707TIP3    H168536   2.286   0.498   2.657  0.1244 -2.0899 -1.0052
15707TIP3    H268537   2.193   0.486   2.776 -0.3162 -0.3811 -1.1661
15708TIP3   OH268538   0.049   6.342  13.922  0.4904  0.3843  0.7164
15708TIP3    H168539   0.096   6.358  14.004  0.1248  2.6078  0.5411
15708TIP3    H268540  -0.043   6.355  13.945  0.3900  1.0191 -0.0222
15709TIP3   OH268541   3.300   6.329  11.671 -0.3107  0.3632  0.0585
15709TIP3    H168542   3.395   6.322  11.664 -0.3470 -0.4310  0.3203
15709TIP3    H268543   3.285   6.416  11.710  0.2696  0.7602 -0.5975
15710TIP3   OH268544   3.015   4.651  10.538  0.0974 -0.3308 -0.2548
15710TIP3    H168545   3.037   4.717  10.604  2.2645  0.9535 -2.1955
15710TIP3    H268546   2.922   4.663  10.522 -0.2828 -0.1205  1.9615
15711TIP3   OH268547   6.599   2.223  15.247 -0.1295  0.3354  0.2595
15711TIP3    H168548   6.555   2.305  15.224  1.4130  1.6708  1.9025
15711TIP3    H268549   6.541   2.183  15.312  0.5598  1.6142  1.6992
15712TIP3   OH268550   5.202   0.908  15.219 -0.2262  0.1792 -0.8792
15712TIP3    H168551   5.191   0.894  15.313 -0.8926  1.0735 -0.8199
15712TIP3    H268552   5.183   0.823  15.179  0.2696 -0.2541 -0.1951
15713TIP3   OH268553   3.209   6.582  16.895  0.9094  0.2764  0.2622
15713TIP3    H168554   3.297   6.586  16.858  1.3479  0.8920  1.3507
15713TIP3    H268555   3.219   6.614  16.985 -0.5170  0.8381  0.2288
15714TIP3   OH268556   1.173   4.773   5.445  0.1667 -0.2246 -0.2733
15714TIP3    H168557   1.223   4.762   5.364 -0.7914  1.2362 -1.0925
15714TIP3    H268558   1.211   4.709   5.506  0.8710 -1.3768 -1.8806
15715TIP3   OH268559   1.299   0.955   1.190 -0.3422 -0.3198 -0.3416
15715TIP3    H168560   1.302   1.050   1.181 -0.1757 -0.5452 -2.8810
15715TIP3    H268561   1.241   0.940   1.265  0.4227  1.7799  0.7262
15716TIP3   OH268562   3.958   6.462   0.164 -0.0315 -0.3240  0.2856
15716TIP3    H168563   3.899   6.520   0.115 -0.4978  0.3382  1.5985
15716TIP3    H268564   4.006   6.414   0.096 -1.4060 -0.1981 -0.8168
15717TIP3   OH268565   0.043   6.296   4.146  0.2743  0.5573 -0.1879
15717TIP3    H168566   0.005   6.349   4.076  0.1762  1.0150  0.2168
15717TIP3    H268567   0.115   6.348   4.180  2.0248 -0.7835 -1.7142
15718TIP3   OH268568   1.473   3.964   0.107 -0.2082  0.3512 -0.1758
15718TIP3    H168569   1.479   3.935   0.016  0.4214  2.8612 -0.9669
15718TIP3    H268570   1.529   4.041   0.111 -0.6130  0.5425  2.2465
15719TIP3   OH268571   4.367   0.971  11.850  0.1068  0.1359 -0.1940
15719TIP3    H168572   4.378   0.897  11.910  0.6342  0.8224  0.5722
15719TIP3    H268573   4.273   0.976  11.835  0.1649 -1.4809 -1.2716
15720TIP3   OH268574   6.018   5.560   1.251  0.0211  0.3953  0.1674
15720TIP3    H168575   6.016   5.468   1.224 -0.1238  0.9439 -1.8168
15720TIP3    H268576   6.040   5.608   1.170 -1.5780  2.2337  0.7859
15721TIP3   OH268577   1.365   1.496  12.187 -0.3554  0.3272 -0.3577
15721TIP3    H168578   1.423   1.570  12.171  0.2488 -0.7272 -3.2725
15721TIP3    H268579   1.399   1.457  12.268  1.3511  1.2743 -0.5906
15722TIP3   OH268580   0.313   3.069  11.103 -0.1900 -0.1614  0.1876
15722TIP3    H168581   0.237   3.110  11.145 -0.8554 -0.4528 -0.6985
15722TIP3    H268582   0.294   3.075  11.009  0.5130 -0.9569 -0.0111
15723TIP3   OH268583   6.260   5.724   3.172  0.1416  0.1685 -0.3548
15723TIP3    H168584   6.198   5.651   3.174 -1.1180  1.2436  1.4784
15723TIP3    H268585   6.318   5.709   3.247 -0.1766  1.0706  0.0815
15724TIP3   OH268586   1.092   3.964   4.709  0.3514 -0.1803  0.5313
15724TIP3    H168587   1.184   3.939   4.717  0.3428 -0.6470 -0.7790
15724TIP3    H268588   1.071   3.950   4.617 -0.7866  0.7849  0.6327
15725TIP3   OH268589   3.473   2.399   3.882  0.6149 -0.7831  0.0193
15725TIP3    H168590   3.481   2.477   3.936  0.7875 -1.6168  1.2391
15725TIP3    H268591   3.379   2.379   3.882  0.6162 -0.7887  0.0115
15726TIP3   OH268592   0.677   6.785   5.450 -0.2632 -0.0953 -0.0190
15726TIP3    H168593   0.672   6.824   5.363  0.8849 -0.8387 -0.4243
15726TIP3    H268594   0.666   6.859   5.510 -0.4123  0.5105 -0.7878
15727TIP3   OH268595   6.458   5.845   5.655  0.2570  0.5676 -0.1273
15727TIP3    H168596   6.516   5.912   5.690  2.0891  0.2024 -2.3563
15727TIP3    H268597   6.517   5.777   5.622 -1.5252 -1.5821  0.9705
15728TIP3   OH268598   3.780   5.831  15.100  0.2610  0.5398 -0.3457
15728TIP3    H168599   3.756   5.924  15.090 -0.9394  0.3097  0.2546
15728TIP3    H268600   3.763   5.812  15.193 -0.5524 -0.5571 -0.7110
15729TIP3   OH268601   0.839   5.187  14.087 -0.4051 -0.2073  0.3240
15729TIP3    H168602   0.779   5.213  14.157  0.0264  0.1039  0.5836
15729TIP3    H268603   0.914   5.246  14.097 -0.1139 -0.5056 -0.0787
15730TIP3   OH268604   5.271   2.172   2.090  0.1307 -0.4933  0.2137
15730TIP3    H168605   5.327   2.145   2.017 -2.1557 -1.9720 -1.0295
15730TIP3    H268606   5.290   2.108   2.159  0.2303 -0.7754 -0.0737
15731TIP3   OH268607   1.854   6.354   6.606 -0.0853 -0.7529 -0.5474
15731TIP3    H168608   1.927   6.309   6.649 -0.1216 -0.3746 -0.0830
15731TIP3    H268609   1.891   6.390   6.525  0.0225 -1.3299 -0.7556
15732TIP3   OH268610   4.463   0.749  11.309 -0.0900 -0.0125 -0.0644
15732TIP3    H168611   4.429   0.688  11.244  0.3456  1.1023 -1.3627
15732TIP3    H268612   4.510   0.694  11.371 -1.4507 -1.2122 -0.0698
15733TIP3   OH268613   3.630   0.989   1.925  0.1560 -0.3543 -0.2375
15733TIP3    H168614   3.650   1.048   1.852  0.8053 -0.2371  0.0256
15733TIP3    H268615   3.540   1.008   1.948  0.5747  1.0523  0.3088
15734TIP3   OH268616   1.887   1.172   0.931  0.0902  0.4265 -0.5882
15734TIP3    H168617   1.892   1.167   1.026 -0.6199 -0.7811 -0.6041
15734TIP3    H268618   1.843   1.091   0.905  0.6485  0.5515 -1.9702
15735TIP3   OH268619   0.086   0.140   5.926 -0.9108 -0.7228 -0.4995
15735TIP3    H168620   0.090   0.128   6.021 -1.2787 -2.5567 -0.6922
15735TIP3    H268621   0.163   0.193   5.905 -0.8849 -0.2076  0.8272
15736TIP3   OH268622   6.433   0.885   2.398 -0.3272  0.4250 -0.0174
15736TIP3    H168623   6.489   0.909   2.472  1.0330  0.0610 -0.9126
15736TIP3    H268624   6.370   0.957   2.391  1.0821  1.6713 -0.0460
15737TIP3   OH268625   1.208   6.370   3.252 -0.0368 -0.2540 -0.5203
15737TIP3    H168626   1.173   6.343   3.167  0.3139 -0.6546 -0.5368
15737TIP3    H268627   1.297   6.400   3.233 -0.1959  0.3000 -0.4012
15738TIP3   OH268628   5.004   0.846  10.701 -0.1593  0.1918 -0.4266
15738TIP3    H168629   5.051   0.777  10.749 -0.7096 -0.6048 -1.0277
15738TIP3    H268630   4.997   0.918  10.764  1.7324  0.2738 -0.2622
15739TIP3   OH268631   1.382   2.894   3.598  0.4013  0.2388 -0.2745
15739TIP3    H168632   1.320   2.828   3.567 -0.4371  0.4506  0.9114
15739TIP3    H268633   1.357   2.974   3.553 -0.9625  0.6024  1.0738
15740TIP3   OH268634   3.798   1.555   2.594  0.1853 -0.0477  0.4503
15740TIP3    H168635   3.776   1.622   2.658  1.0742 -0.2878  1.0177
15740TIP3    H268636   3.748   1.478   2.622  0.9808 -0.3084  1.1716
15741TIP3   OH268637   0.640   1.472   1.877  0.6308 -0.4478  0.1440
15741TIP3    H168638   0.666   1.474   1.785  1.8118 -0.1426  0.4821
15741TIP3    H268639   0.586   1.550   1.888  1.7975  0.3861  0.0813
15742TIP3   OH268640   5.456   4.657   2.050  0.5590  0.1461 -0.2542
15742TIP3    H168641   5.448   4.568   2.018 -0.8570 -0.2275  1.0735
15742TIP3    H268642   5.546   4.663   2.084  0.2104 -1.1959  0.9134
15743TIP3   OH268643   5.390   5.496   1.206 -0.1941 -0.5426  0.2136
15743TIP3    H168644   5.453   5.520   1.274  1.0294 -0.4191 -0.9527
15743TIP3    H268645   5.385   5.574   1.150 -2.2962 -0.0960  0.9495
15744TIP3   OH268646   1.950   1.907  13.225  1.0124  0.1961  0.2522
15744TIP3    H168647   1.971   1.948  13.309  0.1866 -0.4478  0.7854
15744TIP3    H268648   1.886   1.967  13.186  0.1137 -0.3520  0.8494
15745TIP3   OH268649   4.944   5.154  13.727 -0.0800 -0.0101 -0.3425
15745TIP3    H168650   4.867   5.115  13.768 -1.3535  1.5059 -1.2763
15745TIP3    H268651   4.944   5.119  13.638 -0.1615  0.6426 -0.6003
15746TIP3   OH268652   2.179   0.630  16.509 -0.0717 -0.2909  0.2392
15746TIP3    H168653   2.092   0.590  16.516  0.3592 -1.1736  0.6234
15746TIP3    H268654   2.214   0.628  16.598 -0.4146  1.8290  0.4475
15747TIP3   OH268655   1.685   5.019  15.378 -0.0784  0.3093 -0.1282
15747TIP3    H168656   1.757   5.061  15.330 -0.2736  0.9406  0.1232
15747TIP3    H268657   1.726   4.947  15.425  1.0168  2.6424  2.6612
15748TIP3   OH268658   5.085   1.399  14.184 -0.3612 -0.4484  0.1399
15748TIP3    H168659   5.062   1.441  14.267 -1.2054 -0.4751 -0.0705
15748TIP3    H268660   5.011   1.341  14.165  1.1221 -2.6274  0.8160
15749TIP3   OH268661   4.218   3.244  12.376 -0.2790 -0.1389 -0.2920
15749TIP3    H168662   4.270   3.242  12.296  1.1193 -1.3704  0.6271
15749TIP3    H268663   4.238   3.329  12.415 -0.7604  0.3524 -1.0950
15750TIP3   OH268664   3.604   5.880  15.306 -0.0372  0.4232 -0.1828
15750TIP3    H168665   3.543   5.948  15.277 -0.5779 -0.8936 -2.2429
15750TIP3    H268666   3.629   5.906  15.395 -3.1061  1.3397  0.4657
15751TIP3   OH268667   6.136   3.100  16.768  0.3469 -0.6321  0.1479
15751TIP3    H168668   6.182   3.131  16.846  1.5802  0.8362 -1.1344
15751TIP3    H268669   6.193   3.033  16.731  1.1830  0.7565 -1.1066
15752TIP3   OH268670   2.019   1.189  16.411 -0.6992 -0.0058 -0.2271
15752TIP3    H168671   2.005   1.263  16.353  0.2614 -0.0808 -0.5610
15752TIP3    H268672   2.089   1.139  16.369 -2.0746 -1.6894 -0.5808
15753TIP3   OH268673   5.815   2.820  15.527  0.3846  0.1914  0.1500
15753TIP3    H168674   5.753   2.797  15.458 -1.0534  0.5111  1.3238
15753TIP3    H268675   5.782   2.778  15.606  0.5577  1.9806  1.2229
15754TIP3   OH268676   1.045   2.483   3.187 -0.0157  0.6245 -0.2779
15754TIP3    H168677   1.032   2.491   3.092  0.4389 -1.5971 -0.5658
15754TIP3    H268678   0.959   2.500   3.225 -0.3233  0.9912 -1.1308
15755TIP3   OH268679   2.824   5.956   0.182  0.4398  0.4462 -0.6765
15755TIP3    H168680   2.743   5.905   0.177  2.1204 -2.2213 -2.3446
15755TIP3    H268681   2.833   5.996   0.095  1.6482 -0.5463 -1.0360
15756TIP3   OH268682   3.005   1.609  13.129  0.4419  0.6841  0.0510
15756TIP3    H168683   3.017   1.704  13.136  1.6529  0.4313  1.6779
15756TIP3    H268684   3.094   1.573  13.133  0.1114 -0.4660 -1.9274
15757TIP3   OH268685   4.120   5.660  16.525 -0.6063 -0.3455  0.1211
15757TIP3    H168686   4.139   5.740  16.572  0.8811 -0.1576 -0.7684
15757TIP3    H268687   4.191   5.652  16.461 -0.7149 -2.3773  0.2155
15758TIP3   OH268688   3.776   3.747  12.991  0.6928  0.1144  0.4427
15758TIP3    H168689   3.764   3.738  13.086  0.7195 -2.1826  0.2597
15758TIP3    H268690   3.868   3.773  12.981  0.8507 -0.2091  1.0182
15759TIP3   OH268691   1.813   5.840  11.383 -0.2970 -0.3455 -0.1854
15759TIP3    H168692   1.864   5.814  11.307  1.1584  0.0228  0.6462
15759TIP3    H268693   1.830   5.772  11.448  1.5591  1.3242  1.1341
15760TIP3   OH268694   3.326   0.245  17.121  0.4460  0.3283 -0.1925
15760TIP3    H168695   3.395   0.214  17.062  0.1135 -0.7155 -0.0452
15760TIP3    H268696   3.269   0.169  17.133  0.8490  0.3266  1.9664
15761TIP3   OH268697   0.036   2.525   4.671 -0.0514 -0.6425 -0.3044
15761TIP3    H168698   0.013   2.602   4.722  2.1530 -1.0652  1.4076
15761TIP3    H268699  -0.044   2.502   4.624 -1.1418  1.7913  0.3194
15762TIP3   OH268700   0.906   0.699   1.886 -0.1513 -0.1378 -0.2920
15762TIP3    H168701   0.869   0.638   1.821  1.0273 -0.2827 -0.8431
15762TIP3    H268702   1.000   0.699   1.867  0.1698 -0.0218  1.2957
15763TIP3   OH268703   2.264   5.404   4.245 -0.4001  0.3714 -0.0192
15763TIP3    H168704   2.210   5.325   4.249  0.5930 -0.3302 -0.2900
15763TIP3    H268705   2.306   5.400   4.159  0.9056  0.3582  0.6183
15764TIP3   OH268706   1.946   2.560  12.755  0.0744  0.2221 -0.1473
15764TIP3    H168707   2.002   2.555  12.677 -0.0014 -2.5322 -0.0734
15764TIP3    H268708   1.939   2.654  12.773  0.3786  0.9168 -3.2452
15765TIP3   OH268709   2.536   4.594  13.829  0.2287 -0.2517  0.6281
15765TIP3    H168710   2.541   4.623  13.920 -0.0297  0.4658  0.4166
15765TIP3    H268711   2.463   4.643  13.792  2.0638  1.6193 -0.7162
15766TIP3   OH268712   3.860   3.739  14.658  0.1122  0.2823 -0.3673
15766TIP3    H168713   3.926   3.777  14.601 -0.4481  1.3166 -0.3466
15766TIP3    H268714   3.898   3.656  14.687  1.9503  1.4779  0.7051
15767TIP3   OH268715   2.552   0.888   6.447  0.1557  0.7612 -0.4399
15767TIP3    H168716   2.639   0.885   6.489 -0.4400  0.1195  0.7626
15767TIP3    H268717   2.516   0.973   6.474 -0.1973  0.3803  0.2995
15768TIP3   OH268718   4.882   0.717   2.320 -0.0449 -0.2551 -0.0220
15768TIP3    H168719   4.830   0.640   2.298  0.7099 -0.1941 -2.1105
15768TIP3    H268720   4.972   0.693   2.299  0.1236  1.3973 -1.3398
15769TIP3   OH268721   4.765   4.861  16.121  0.0598  0.0055  0.3591
15769TIP3    H168722   4.748   4.903  16.205 -0.3422 -1.6488  1.1334
15769TIP3    H268723   4.706   4.905  16.059  0.0659  0.9583  1.0318
15770TIP3   OH268724   1.026   5.993   6.300  0.0355  0.1235 -0.1556
15770TIP3    H168725   0.940   5.953   6.294  0.6720 -1.2749 -0.0018
15770TIP3    H268726   1.088   5.923   6.277  0.9305  2.2546 -4.9413
15771TIP3   OH268727   3.330   5.817   0.924  0.5244 -0.2000  0.4311
15771TIP3    H168728   3.265   5.817   0.994  1.0793 -1.3898  0.9480
15771TIP3    H268729   3.280   5.835   0.844 -0.1559  0.8087  1.0740
15772TIP3   OH268730   3.710   5.766   2.891  0.4949 -0.0769 -0.0361
15772TIP3    H168731   3.689   5.858   2.875 -0.9279 -0.5990 -1.2619
15772TIP3    H268732   3.672   5.719   2.817  0.4937 -1.7389  0.9948
15773TIP3   OH268733   5.971   1.064  11.122  0.8497 -0.1268  0.1174
15773TIP3    H168734   5.966   1.070  11.026  1.0338  1.3167  0.1865
15773TIP3    H268735   6.053   1.108  11.145  0.8048 -0.4671  0.9393
15774TIP3   OH268736   2.584   1.635   0.130  0.3422  0.0955  0.2969
15774TIP3    H168737   2.568   1.621   0.223 -0.1156 -0.7463  0.0945
15774TIP3    H268738   2.679   1.645   0.123  0.5705 -1.7387  0.6006
15775TIP3   OH268739   4.419   0.967  15.503  0.0047 -0.5040 -0.0330
15775TIP3    H168740   4.422   1.044  15.447 -2.6272 -0.4458 -0.1694
15775TIP3    H268741   4.455   0.896  15.450  3.3089  0.7520  0.4098
15776TIP3   OH268742   0.697   5.834  16.754 -0.5745  0.1351  0.5966
15776TIP3    H168743   0.716   5.755  16.703 -1.3363  0.8686 -0.8353
15776TIP3    H268744   0.782   5.874  16.770 -0.4849  0.8790 -1.6873
15777TIP3   OH268745   4.627   3.470   4.239 -0.3008 -0.2774  0.3190
15777TIP3    H168746   4.673   3.395   4.201  1.3247  2.1044 -2.6954
15777TIP3    H268747   4.695   3.519   4.285 -1.0507  0.1296  1.0145
15778TIP3   OH268748   6.695   0.398  12.679  0.6107  0.2807 -0.1681
15778TIP3    H168749   6.748   0.451  12.619 -0.0192 -0.2776 -1.2276
15778TIP3    H268750   6.629   0.459  12.712  0.8811  0.5576 -0.1261
15779TIP3   OH268751   0.218   0.695  15.704  0.2793  0.6363  0.9482
15779TIP3    H168752   0.200   0.634  15.632  0.2029  1.7498 -0.0018
15779TIP3    H268753   0.300   0.737  15.679 -0.1250  1.5498  1.1428
15780TIP3   OH268754   4.864   1.316  16.882  0.0107 -0.0852 -0.9105
15780TIP3    H168755   4.844   1.364  16.962 -1.4557  1.1479 -2.0005
15780TIP3    H268756   4.898   1.382  16.822  0.0087 -0.7931 -1.7015
15781TIP3   OH268757   0.107   6.395   2.378  0.3526 -1.0537 -0.2855
15781TIP3    H168758   0.133   6.458   2.311 -0.5909 -0.9667 -0.5883
15781TIP3    H268759   0.179   6.393   2.440  0.5285  0.0852 -0.4517
15782TIP3   OH268760   0.146   3.303  16.531  0.2740 -0.5220  0.2146
15782TIP3    H168761   0.114   3.328  16.618 -0.9350 -0.7587 -0.1521
15782TIP3    H268762   0.238   3.283  16.544  0.4330  0.7970  1.1768
15783TIP3   OH268763   6.683   2.787   2.277 -0.1210 -0.3089 -0.1719
15783TIP3    H168764   6.749   2.823   2.219  0.8724  0.2356  1.2663
15783TIP3    H268765   6.702   2.694   2.282  1.0509 -0.0291  0.8543
15784TIP3   OH268766   1.594   6.295  15.756 -0.1501  0.0489  0.0640
15784TIP3    H168767   1.556   6.377  15.725 -1.3222 -0.0437  1.1851
15784TIP3    H268768   1.547   6.227  15.707  1.3096  0.0596 -1.3731
15785TIP3   OH268769   4.709   3.162  15.542 -0.0320 -0.1676  0.3937
15785TIP3    H168770   4.663   3.097  15.489  1.5328 -0.0554 -1.1277
15785TIP3    H268771   4.652   3.239  15.539 -1.0295 -0.8810  0.7356
15786TIP3   OH268772   4.972   6.242   2.072 -0.2461  0.2664  0.1775
15786TIP3    H168773   5.052   6.293   2.058  0.1261  0.3006  2.1626
15786TIP3    H268774   5.002   6.152   2.082 -0.3430  0.3678  1.5985
15787TIP3   OH268775   0.644   0.350   0.182 -0.2416 -0.5436  0.0687
15787TIP3    H168776   0.705   0.320   0.115 -0.3334 -1.0405  0.2068
15787TIP3    H268777   0.641   0.279   0.246  1.0151  0.5509  1.3837
15788TIP3   OH268778   3.818   4.986   4.964 -0.3189  0.0122 -0.3509
15788TIP3    H168779   3.837   4.985   5.058 -2.1001 -0.6060  0.0190
15788TIP3    H268780   3.727   5.014   4.958 -0.3402 -0.3223 -1.8743
15789TIP3   OH268781   6.270   1.493  14.469 -0.2616 -0.0687  0.5811
15789TIP3    H168782   6.329   1.425  14.503 -0.2824 -0.7741 -0.7450
15789TIP3    H268783   6.296   1.504  14.378 -0.5670  1.3946  0.6685
15790TIP3   OH268784   2.018   1.955   0.246  0.7040 -0.3015  0.0536
15790TIP3    H168785   2.046   1.867   0.273 -0.8094 -0.8592 -0.1115
15790TIP3    H268786   1.928   1.963   0.280  0.5716  0.9011 -0.5564
15791TIP3   OH268787   2.841   3.066  16.020 -0.0792 -0.6830  0.5050
15791TIP3    H168788   2.926   3.024  16.002 -0.9507 -2.7906  1.1841
15791TIP3    H268789   2.863   3.146  16.068  1.5264 -1.0892  0.4662
15792TIP3   OH268790   6.731   6.250  16.565  0.3473 -0.5350  0.3502
15792TIP3    H168791   6.673   6.174  16.568 -0.6823  0.2640  1.0352
15792TIP3    H268792   6.766   6.250  16.476 -0.7245 -1.0163 -0.0827
15793TIP3   OH268793   2.162   6.216  11.627  0.7007  0.1014 -0.2263
15793TIP3    H168794   2.127   6.167  11.552 -0.1334 -1.6452  1.2394
15793TIP3    H268795   2.248   6.178  11.642  0.7617  0.2706 -0.1544
15794TIP3   OH268796   3.550   3.930  13.392  0.0380 -0.2074  0.1874
15794TIP3    H168797   3.536   3.913  13.299 -2.6239 -0.3437  0.5737
15794TIP3    H268798   3.538   3.845  13.434  1.8586 -0.2681  0.6049
15795TIP3   OH268799   3.840   3.110  16.404 -0.3428  0.0672  0.1822
15795TIP3    H168800   3.876   3.124  16.492 -1.4523 -1.1380  0.8358
15795TIP3    H268801   3.916   3.087  16.351  0.2346  0.0913  0.9807
15796TIP3   OH268802   4.748   0.545  15.032  0.2822 -0.6421  0.3896
15796TIP3    H168803   4.775   0.493  15.108  1.0745  0.5380  0.9210
15796TIP3    H268804   4.794   0.505  14.959 -2.6873 -3.6252 -0.0136
15797TIP3   OH268805   4.292   3.326   4.253  0.1642  0.1805 -0.0625
15797TIP3    H168806   4.251   3.262   4.195 -1.3731  1.2933 -0.2193
15797TIP3    H268807   4.367   3.279   4.290  0.5401 -0.8944 -2.1056
15798TIP3   OH268808   0.400   3.722   5.066 -0.4409 -0.4420  0.2402
15798TIP3    H168809   0.394   3.772   5.148  1.7901 -1.8436  1.2979
15798TIP3    H268810   0.494   3.719   5.047 -0.9004 -0.6808 -2.0479
15799TIP3   OH268811   4.586   0.667   2.262  0.0796  0.5903 -0.1466
15799TIP3    H168812   4.607   0.574   2.270 -0.5707  0.2476 -2.1937
15799TIP3    H268813   4.502   0.676   2.309 -0.2881 -0.0292 -0.6680
15800TIP3   OH268814   6.527   1.252   5.949 -0.2619  0.1731 -0.4781
15800TIP3    H168815   6.575   1.335   5.959  1.8125 -0.7289 -2.5182
15800TIP3    H268816   6.527   1.214   6.037 -0.0004  1.6584  0.1914
15801TIP3   OH268817   2.479   4.774  14.334  0.5997 -0.1022 -0.1969
15801TIP3    H168818   2.550   4.821  14.378  0.2362 -0.1725  0.4706
15801TIP3    H268819   2.431   4.731  14.405  1.7145 -2.5733 -0.8897
15802TIP3   OH268820   0.342   6.503  13.200 -0.0621  0.4167 -0.0379
15802TIP3    H168821   0.270   6.445  13.226 -1.3468  1.8417 -0.3399
15802TIP3    H268822   0.381   6.532  13.282 -2.0449  2.3428  0.2903
15803TIP3   OH268823   6.468   5.284  16.611 -0.5763 -0.0715 -0.0888
15803TIP3    H168824   6.466   5.269  16.706 -0.5300  1.0921  0.1081
15803TIP3    H268825   6.561   5.291  16.590 -0.6256  3.2503  0.4085
15804TIP3   OH268826   2.575   3.595  13.240 -0.4339 -0.2084 -0.1713
15804TIP3    H168827   2.514   3.536  13.196 -2.1674 -1.2725  3.4436
15804TIP3    H268828   2.638   3.537  13.283  0.8772  0.7585 -0.7633
15805TIP3   OH268829   1.640   4.099   4.542 -0.3065  0.0745 -0.0827
15805TIP3    H168830   1.562   4.053   4.574 -0.7157  0.4713 -0.4973
15805TIP3    H268831   1.605   4.171   4.490  0.3732 -1.3408 -2.5549
15806TIP3   OH268832   5.998   4.658   0.123  0.2098  0.1956 -0.0192
15806TIP3    H168833   5.998   4.662   0.028 -2.0177 -0.9607 -0.0976
15806TIP3    H268834   6.009   4.749   0.151  2.0921  0.3956 -1.3563
15807TIP3   OH268835   6.144   4.201  14.626 -1.0592  0.2658  0.4168
15807TIP3    H168836   6.118   4.250  14.548  0.2222  0.8765  0.3590
15807TIP3    H268837   6.113   4.254  14.699 -0.6469  0.6007  0.3444
15808TIP3   OH268838   1.874   3.228  12.854  0.0377 -0.4381  0.3483
15808TIP3    H168839   1.836   3.304  12.897 -0.0449  0.1194 -0.7188
15808TIP3    H268840   1.869   3.247  12.761 -0.0929 -1.7956  0.0613
15809TIP3   OH268841   5.224   1.527   3.079  0.2558  0.1270  0.0231
15809TIP3    H168842   5.245   1.614   3.045  1.2115  0.3932  1.2646
15809TIP3    H268843   5.155   1.543   3.143 -0.6596 -0.2236 -0.8653
15810TIP3   OH268844   3.230   2.674   3.996 -0.2932 -0.3523 -0.2015
15810TIP3    H168845   3.182   2.652   4.076  0.7062  0.0141  0.5129
15810TIP3    H268846   3.321   2.653   4.016  0.0375  0.2142 -1.0648
15811TIP3   OH268847   0.684   3.096  12.886  0.2261 -0.1298  0.1422
15811TIP3    H168848   0.625   3.053  12.824  0.5607  0.2049 -0.4157
15811TIP3    H268849   0.631   3.107  12.965  0.2891 -1.9552  0.4413
15812TIP3   OH268850   1.246   3.311  15.834 -0.4671 -0.1265  0.5977
15812TIP3    H168851   1.196   3.242  15.790 -0.3201  1.0189 -1.4223
15812TIP3    H268852   1.181   3.379  15.853 -0.1921  0.1508  0.5433
15813TIP3   OH268853   1.190   2.008   4.965  0.0785  0.3724  0.0843
15813TIP3    H168854   1.176   2.102   4.972 -3.0549 -0.1345  1.6022
15813TIP3    H268855   1.138   1.982   4.888 -0.2399 -0.3147  0.5275
15814TIP3   OH268856   3.377   6.152  15.998  0.0136 -0.1560 -0.4866
15814TIP3    H168857   3.436   6.198  16.058  1.4889  0.6774 -2.5092
15814TIP3    H268858   3.430   6.138  15.919 -1.3575 -2.6903 -1.0123
15815TIP3   OH268859   6.215   2.914   2.538  0.0430  0.5343  0.5101
15815TIP3    H168860   6.267   2.953   2.468  0.5382  0.4015  0.8055
15815TIP3    H268861   6.144   2.977   2.553 -1.0211 -0.1826 -1.2280
15816TIP3   OH268862   6.412   2.463   5.382  1.0840 -0.1476  0.1248
15816TIP3    H168863   6.422   2.552   5.416  2.4933 -1.0577  2.1573
15816TIP3    H268864   6.335   2.429   5.427  0.3639  0.1398 -0.8811
15817TIP3   OH268865   2.156   5.924  14.651 -0.0605  0.0744  0.0429
15817TIP3    H168866   2.197   5.962  14.729 -1.3739  0.1623  0.7015
15817TIP3    H268867   2.222   5.866  14.614  0.5732  0.0587  1.2099
15818TIP3   OH268868   0.350   5.273  12.514 -0.3204  0.2918  0.0630
15818TIP3    H168869   0.302   5.192  12.531  0.2139 -0.2990 -1.1269
15818TIP3    H268870   0.416   5.277  12.583  0.7639 -1.2031 -0.8318
15819TIP3   OH268871   5.709   6.009   1.548  0.3691 -0.0065  0.1101
15819TIP3    H168872   5.614   6.022   1.545  0.4062  0.5160  1.0317
15819TIP3    H268873   5.732   6.018   1.641  1.2708 -0.4862 -0.0586
15820TIP3   OH268874   1.557   5.433  11.731 -0.2177 -0.6000 -0.3989
15820TIP3    H168875   1.646   5.453  11.761 -0.1420 -0.0867 -0.9386
15820TIP3    H268876   1.532   5.510  11.679 -1.3728 -0.2968  0.5841
15821TIP3   OH268877   2.414   5.850   4.906 -0.3348  0.4094 -0.2516
15821TIP3    H168878   2.410   5.755   4.919  0.5539  0.4634  0.4497
15821TIP3    H268879   2.427   5.886   4.993 -0.4684  1.1679 -0.5416
15822TIP3   OH268880   2.860   0.033  12.717  0.1588  0.3150  0.2543
15822TIP3    H168881   2.885   0.093  12.788  2.7705  0.4870 -0.7389
15822TIP3    H268882   2.890  -0.053  12.747  1.2784  0.3886 -0.6034
15823TIP3   OH268883   0.589   6.198  14.828 -0.1812 -0.1177 -0.0118
15823TIP3    H168884   0.652   6.211  14.899 -0.5628  0.9999  0.1263
15823TIP3    H268885   0.628   6.243  14.753 -1.8521  2.5712  0.6630
15824TIP3   OH268886   3.333   2.117   4.811  0.1398 -0.0659 -0.3075
15824TIP3    H168887   3.245   2.080   4.803 -0.6729  1.5145  0.8933
15824TIP3    H268888   3.390   2.052   4.772 -1.5266 -1.3224 -0.7192
15825TIP3   OH268889   3.525   0.375   2.189  0.5004  0.4541 -0.1765
15825TIP3    H168890   3.434   0.351   2.207  1.2341 -1.9219  0.4347
15825TIP3    H268891   3.547   0.326   2.110  1.4251  0.5967 -0.0089
15826TIP3   OH268892   1.670   5.507  15.363 -0.0720  0.4636  0.6317
15826TIP3    H168893   1.647   5.522  15.272 -0.3073 -1.2153  0.3878
15826TIP3    H268894   1.592   5.464  15.400  0.0542  1.0573  1.6009
15827TIP3   OH268895   3.039   2.898   3.935  0.1670 -0.2576 -0.4662
15827TIP3    H168896   3.019   2.868   3.847  0.0599 -0.5623 -0.3398
15827TIP3    H268897   3.091   2.827   3.973 -0.8644 -0.7051  0.1501
15828TIP3   OH268898   3.046   6.756   2.615  0.5375 -0.0099 -0.5810
15828TIP3    H168899   3.057   6.803   2.698  0.1101  1.6272 -1.4236
15828TIP3    H268900   3.071   6.666   2.635 -2.5057 -0.3368  2.0780
15829TIP3   OH268901   4.478   1.569   3.988 -0.5822 -0.0261  0.1169
15829TIP3    H168902   4.570   1.593   3.991  0.5097 -4.1489  3.3840
15829TIP3    H268903   4.437   1.622   4.056 -0.1987  0.0881  0.2594
15830TIP3   OH268904   2.842   5.535   1.401 -0.1052  0.0549  0.0241
15830TIP3    H168905   2.841   5.467   1.468  0.5007 -0.4179 -0.4466
15830TIP3    H268906   2.899   5.501   1.332 -0.9084  0.4376 -0.8393
15831TIP3   OH268907   3.021   3.117   4.136 -0.2099  0.3144  0.1382
15831TIP3    H168908   2.968   3.141   4.060 -0.1356  0.4626  0.1318
15831TIP3    H268909   3.071   3.041   4.107 -1.9432 -1.1163  0.8232
15832TIP3   OH268910   2.419   0.373   0.560 -0.0033  0.2276 -0.2200
15832TIP3    H168911   2.362   0.307   0.600  1.4548 -1.0056 -0.1095
15832TIP3    H268912   2.501   0.326   0.542  1.6009  2.3754  1.2295
15833TIP3   OH268913   2.739   6.652   5.333 -0.4881  0.2961  0.0047
15833TIP3    H168914   2.816   6.669   5.388 -1.0314  2.6841  0.0997
15833TIP3    H268915   2.690   6.585   5.380  1.1224 -0.6736  0.3377
15834TIP3   OH268916   3.651   2.693  12.841  0.3946  0.4532  0.1313
15834TIP3    H168917   3.730   2.729  12.801  1.1089  0.0963  1.2179
15834TIP3    H268918   3.661   2.710  12.935 -0.7963  0.3707  0.2896
15835TIP3   OH268919   4.481   0.583   3.244 -0.2712  0.4273  0.0496
15835TIP3    H168920   4.472   0.633   3.324  0.4519  0.5763  0.0318
15835TIP3    H268921   4.525   0.642   3.183 -1.6609  0.6520 -0.7570
15836TIP3   OH268922   5.282   0.011   0.282 -0.0108  0.3653  0.5549
15836TIP3    H168923   5.295  -0.077   0.246  2.2883  0.9484 -0.1111
15836TIP3    H268924   5.198   0.006   0.327 -0.4128 -1.8794 -0.3710
15837TIP3   OH268925   2.811   1.632   4.010  0.7032  0.6738 -0.5400
15837TIP3    H168926   2.860   1.592   4.082 -2.4269 -0.3129  1.1343
15837TIP3    H268927   2.795   1.560   3.949 -2.7269 -0.1560  1.2444
15838TIP3   OH268928   2.806   2.808  13.466 -0.3596  0.3951 -0.1396
15838TIP3    H168929   2.749   2.861  13.411 -0.1601 -0.0180 -0.7596
15838TIP3    H268930   2.891   2.852  13.463 -0.6095  0.9413  0.6807
15839TIP3   OH268931   5.480   0.490  17.206  0.3316  0.4359 -0.1190
15839TIP3    H168932   5.395   0.445  17.204 -0.7478  2.4119  0.1754
15839TIP3    H268933   5.485   0.535  17.122  0.7303  0.9884  0.1996
15840TIP3   OH268934   0.523   1.966  10.989 -0.2929  0.2560  0.2391
15840TIP3    H168935   0.527   2.049  10.940  1.4684  0.0581  0.0340
15840TIP3    H268936   0.484   1.905  10.927  0.5632  0.3653 -0.4077
15841TIP3   OH268937   3.293   6.349  13.682 -0.4958  0.4359  0.2547
15841TIP3    H168938   3.291   6.443  13.666  1.4527  0.5746  0.6544
15841TIP3    H268939   3.329   6.340  13.770 -1.3176 -0.6672  0.4982
15842TIP3   OH268940   3.752   3.223   4.356 -0.0881  0.1575  0.1864
15842TIP3    H168941   3.794   3.174   4.285 -2.4708 -0.4307 -0.8485
15842TIP3    H268942   3.769   3.315   4.334 -0.4853 -0.0297 -0.9417
15843TIP3   OH268943   2.969   1.936   1.856 -0.1645  0.0541 -0.1565
15843TIP3    H168944   2.966   1.916   1.762  3.1566 -2.2751  0.1692
15843TIP3    H268945   2.932   1.859   1.899 -2.0925  1.2952  0.4872
15844TIP3   OH268946   3.370   5.510  11.729  0.1238 -0.4160 -0.5810
15844TIP3    H168947   3.369   5.600  11.762 -0.8532 -1.0733  1.2311
15844TIP3    H268948   3.283   5.499  11.689  0.4368 -0.3975 -1.2791
15845TIP3   OH268949   6.552   6.302  15.368  0.8006 -0.3970 -0.3583
15845TIP3    H168950   6.498   6.354  15.308  0.0138 -0.7469  0.0283
15845TIP3    H268951   6.488   6.250  15.418  1.2189  1.8511  2.6844
15846TIP3   OH268952   3.578   0.832   2.774 -0.2152 -0.2698 -0.1985
15846TIP3    H168953   3.644   0.766   2.757 -0.0019 -0.6797  2.0414
15846TIP3    H268954   3.515   0.789   2.832 -2.2517  0.2402 -1.9546
15847TIP3   OH268955   1.519   5.810   4.927  0.5789  0.1388 -0.3255
15847TIP3    H168956   1.431   5.819   4.892 -0.3283  0.2805  1.9236
15847TIP3    H268957   1.513   5.739   4.991  1.7582  1.0228  0.8067
15848TIP3   OH268958   3.996   6.508   0.426  0.0345  0.1776 -0.6647
15848TIP3    H168959   3.992   6.604   0.426  0.2104  0.2481 -3.4757
15848TIP3    H268960   3.980   6.484   0.335  0.2940 -2.4638 -0.0555
15849TIP3   OH268961   2.306   1.916  16.326 -0.1617 -0.2488 -0.0873
15849TIP3    H168962   2.294   1.910  16.421  2.4421  0.0162  0.3049
15849TIP3    H268963   2.302   1.825  16.296 -0.6554 -0.3686  0.3419
15850TIP3   OH268964   4.545   4.375  14.274 -0.0590 -0.2896  0.1380
15850TIP3    H168965   4.629   4.397  14.233  0.3570 -0.6517  0.7994
15850TIP3    H268966   4.554   4.284  14.300 -0.4226 -0.1429  0.7882
15851TIP3   OH268967   1.928   3.934  14.147 -0.0865 -0.0089 -0.0149
15851TIP3    H168968   1.838   3.905  14.135 -0.7607  1.1675  1.9323
15851TIP3    H268969   1.947   3.917  14.239  0.8466  2.0071  0.1962
15852TIP3   OH268970   3.805   3.579  15.654  0.0153 -0.2937  0.6887
15852TIP3    H168971   3.712   3.573  15.676 -0.6404  2.4010 -1.1305
15852TIP3    H268972   3.806   3.622  15.568  3.0269  1.5525  1.6124
15853TIP3   OH268973   1.573   4.623  15.652  0.0362 -0.0904  0.4217
15853TIP3    H168974   1.563   4.604  15.559 -1.4290 -0.5998  0.6713
15853TIP3    H268975   1.518   4.700  15.667  0.5881  0.2361  0.7827
15854TIP3   OH268976   6.689   5.404  15.597 -0.3251  0.5450 -0.7463
15854TIP3    H168977   6.726   5.396  15.509 -0.0859  1.9098 -0.7915
15854TIP3    H268978   6.748   5.352  15.653 -0.2766 -0.0378 -1.3325
15855TIP3   OH268979   3.647   1.886  13.523  0.0607 -1.0327  0.1541
15855TIP3    H168980   3.619   1.805  13.565 -0.2498 -1.8316 -1.5563
15855TIP3    H268981   3.578   1.949  13.545 -0.7784 -1.7920 -0.2491
15856TIP3   OH268982   2.665   5.408   3.281 -0.2867  0.4926  0.6112
15856TIP3    H168983   2.606   5.433   3.210 -1.5747  1.9978  2.1347
15856TIP3    H268984   2.747   5.386   3.239 -1.1249  1.0533 -1.3474
15857TIP3   OH268985   1.205   1.339  11.448  0.3827 -0.5780  0.1277
15857TIP3    H168986   1.174   1.316  11.360 -0.6344 -0.1698  0.3771
15857TIP3    H268987   1.212   1.434  11.447  0.2975 -0.5678  0.5174
15858TIP3   OH268988   1.106   0.256   4.171 -0.0282 -0.1561  0.4212
15858TIP3    H168989   1.165   0.238   4.098 -0.5177  3.6440 -0.9827
15858TIP3    H268990   1.019   0.231   4.139 -0.2416  1.5035 -0.3057
15859TIP3   OH268991   0.011   6.709   2.372  0.0481 -0.1059 -0.2220
15859TIP3    H168992  -0.057   6.714   2.305 -1.3539 -0.8178  1.1290
15859TIP3    H268993   0.051   6.796   2.371 -2.9301  1.3660  1.0649
15860TIP3   OH268994   0.904   2.992   3.401 -0.2552  0.2111  0.0510
15860TIP3    H168995   0.844   3.064   3.421 -1.5166 -0.1619 -2.1167
15860TIP3    H268996   0.987   3.035   3.380 -0.1602  0.8284  1.6285
15861TIP3   OH268997   1.301   1.233  15.033 -0.9407  0.1905 -0.9823
15861TIP3    H168998   1.338   1.247  14.946  2.2758 -1.3540  0.0596
15861TIP3    H268999   1.302   1.138  15.045  0.4120  0.4740  1.4328
15862TIP3   OH269000   5.508   4.067  15.008 -1.1738  0.3835  0.0596
15862TIP3    H169001   5.595   4.098  14.982 -0.5002  0.8537  2.6924
15862TIP3    H269002   5.475   4.021  14.931  2.2937 -1.6744 -0.3099
15863TIP3   OH269003   6.291   1.101  12.093  0.3557  0.8909  0.0698
15863TIP3    H169004   6.383   1.109  12.066  0.8263 -0.9584  0.9805
15863TIP3    H269005   6.283   1.160  12.167  1.1846  0.1171  0.7987
15864TIP3   OH269006   2.356   5.536   0.367  0.4138  0.0254 -0.0764
15864TIP3    H169007   2.288   5.499   0.423  1.5921 -0.5948  0.9568
15864TIP3    H269008   2.359   5.628   0.393  1.4766 -0.4178  1.4325
15865TIP3   OH269009   4.394   1.167  14.458 -0.3267 -0.0677 -0.3550
15865TIP3    H169010   4.347   1.094  14.498 -1.2662  0.3662 -0.6333
15865TIP3    H269011   4.380   1.155  14.364 -0.9221  0.7401 -0.3779
15866TIP3   OH269012   5.493   2.814   5.344  0.4081 -0.2574 -0.1188
15866TIP3    H169013   5.457   2.881   5.401  0.0582 -0.7935  0.3013
15866TIP3    H269014   5.420   2.756   5.325  0.6497 -0.3893 -0.6718
15867TIP3   OH269015   1.200   1.924  11.081  0.2012  0.3289 -0.0045
15867TIP3    H169016   1.227   1.977  11.006 -2.3707  2.1283  0.2839
15867TIP3    H269017   1.183   1.987  11.151  0.2125 -1.1348  1.3595
15868TIP3   OH269018   3.631   0.045   4.007 -0.0878  0.2849  1.2397
15868TIP3    H169019   3.652   0.105   3.935  0.1076 -0.8763  0.3195
15868TIP3    H269020   3.537   0.030   4.000  0.0736 -0.4688  0.7380
15869TIP3   OH269021   1.621   3.582   3.163  0.2916  0.1558  0.1828
15869TIP3    H169022   1.603   3.675   3.171  0.3535  0.1437  0.4878
15869TIP3    H269023   1.638   3.553   3.253  0.2993 -0.1425  0.0871
15870TIP3   OH269024   3.498   3.655   4.564 -0.4492  0.8186 -0.1798
15870TIP3    H169025   3.499   3.604   4.645 -0.3850  2.8045  1.1284
15870TIP3    H269026   3.580   3.633   4.521 -1.2031 -1.4768 -0.5256
15871TIP3   OH269027   1.443   3.541  14.356  0.7187 -0.1638  0.0952
15871TIP3    H169028   1.389   3.618  14.336 -0.4658 -0.7397  1.0082
15871TIP3    H269029   1.395   3.468  14.318  0.3539 -0.8001  1.7286
15872TIP3   OH269030   3.713   1.653   3.210  0.3675  0.4368 -0.1326
15872TIP3    H169031   3.761   1.700   3.279  0.9540  2.3124 -1.7588
15872TIP3    H269032   3.781   1.609   3.159 -0.0130 -0.4210  0.0839
15873TIP3   OH269033   3.456   6.051  12.195  0.0514 -0.7229  0.0896
15873TIP3    H169034   3.365   6.026  12.184  0.7182 -2.2618 -2.0835
15873TIP3    H269035   3.506   5.980  12.156  2.1301  1.1785 -0.8539
15874TIP3   OH269036   3.435   2.780  15.569 -0.2246  0.2609  0.0077
15874TIP3    H169037   3.445   2.857  15.512 -0.4597 -0.3705 -0.8847
15874TIP3    H269038   3.400   2.712  15.512 -0.4297 -0.3881  0.9011
15875TIP3   OH269039   2.272   0.390   1.137 -0.0898  0.4320  0.2311
15875TIP3    H169040   2.275   0.414   1.045  0.1537 -0.2350  0.0626
15875TIP3    H269041   2.202   0.325   1.143 -2.5375  3.0298  1.1266
15876TIP3   OH269042   0.816   1.256  16.442  0.4633  0.0696  0.4245
15876TIP3    H169043   0.772   1.341  16.433  0.2401  0.1352  2.0788
15876TIP3    H269044   0.851   1.239  16.355 -0.4170  1.3527 -0.2088
15877TIP3   OH269045   1.528   1.606  12.469  0.1258  0.5972  0.2400
15877TIP3    H169046   1.545   1.698  12.451  0.2059  0.3564 -0.9541
15877TIP3    H269047   1.435   1.594  12.452  0.5568 -0.0243 -1.8064
15878TIP3   OH269048   3.125   2.497   0.356  0.2373  0.5557 -0.4175
15878TIP3    H169049   3.164   2.509   0.442 -0.5464 -0.7566  0.1368
15878TIP3    H269050   3.031   2.492   0.373  0.1574 -0.7777 -1.2318
15879TIP3   OH269051   0.207   1.122  13.795 -0.1819  0.9718  0.4234
15879TIP3    H169052   0.234   1.099  13.884  2.2322  0.0176 -0.5018
15879TIP3    H269053   0.205   1.217  13.794  0.2499  0.9978  1.3805
15880TIP3   OH269054   6.514   0.714  16.703 -0.3551  0.2283 -0.1176
15880TIP3    H169055   6.542   0.780  16.766  1.5266  0.0377 -0.7176
15880TIP3    H269056   6.451   0.660  16.751  0.6988  0.3684  1.4633
15881TIP3   OH269057   3.638   0.310   1.096  0.1124 -0.9157  0.1502
15881TIP3    H169058   3.713   0.302   1.037 -0.4923  0.0501 -0.7851
15881TIP3    H269059   3.563   0.322   1.037 -0.2378  2.1282  1.1365
15882TIP3   OH269060   1.770   2.077  13.874 -0.6840 -0.1568  0.8457
15882TIP3    H169061   1.813   2.088  13.959 -1.8393  1.9957  1.1675
15882TIP3    H269062   1.680   2.106  13.888 -1.1093 -0.5335 -0.9315
15883TIP3   OH269063   1.149   2.329  15.465  0.0203  0.3073  0.1260
15883TIP3    H169064   1.077   2.278  15.501 -1.2870  1.3637 -0.9619
15883TIP3    H269065   1.199   2.359  15.541 -2.1490  1.7170  1.0221
15884TIP3   OH269066   0.090   3.824  15.388 -0.7305  0.2179 -0.5727
15884TIP3    H169067   0.108   3.915  15.363 -1.6439  1.1850  2.1765
15884TIP3    H269068   0.176   3.783  15.393 -0.1740  1.4634  0.1184
15885TIP3   OH269069   0.362   2.112  13.572  0.8886  0.3440 -0.0252
15885TIP3    H169070   0.449   2.114  13.533 -0.1472  2.1752 -2.2880
15885TIP3    H269071   0.321   2.034  13.535  0.8643  0.5657 -0.4590
15886TIP3   OH269072   0.587   2.254  16.378  0.1241  0.7815 -0.0464
15886TIP3    H169073   0.506   2.300  16.401  0.3434  0.1493  2.1700
15886TIP3    H269074   0.559   2.165  16.358  0.1309  0.8686 -0.4322
15887TIP3   OH269075   3.379   5.496   6.115 -0.3028  0.1229  0.2630
15887TIP3    H169076   3.434   5.557   6.066  0.8586  1.0329  2.6287
15887TIP3    H269077   3.298   5.490   6.064  1.2052  0.3267 -2.2138
15888TIP3   OH269078   5.225   6.148   0.280 -0.3565 -0.3888  0.3713
15888TIP3    H169079   5.210   6.201   0.202  1.5380 -0.3446  0.0328
15888TIP3    H269080   5.146   6.094   0.288 -2.4732  2.6713  0.9111
15889TIP3   OH269081   4.152   1.125   0.373  0.0281 -0.6284 -0.5561
15889TIP3    H169082   4.134   1.106   0.466 -0.4655 -0.5360 -0.6276
15889TIP3    H269083   4.194   1.210   0.374  0.8370 -1.0256 -0.3497
15890TIP3   OH269084   0.788   1.191  12.399  0.3848 -0.5440  0.3081
15890TIP3    H169085   0.769   1.119  12.338 -2.2094  1.4624 -1.4044
15890TIP3    H269086   0.703   1.232  12.414  1.9402  2.9227  0.2182
15891TIP3   OH269087   2.251   5.897   5.413 -0.1431 -0.5719  0.3361
15891TIP3    H169088   2.313   5.874   5.482  0.1874 -2.3043 -0.5115
15891TIP3    H269089   2.191   5.823   5.409 -1.0251  0.1576 -0.2780
15892TIP3   OH269090   1.472   2.552  11.859  0.2038 -0.4561 -0.0483
15892TIP3    H169091   1.428   2.633  11.885  0.9564  0.3627 -1.2722
15892TIP3    H269092   1.403   2.486  11.860 -0.2506  0.0082  1.7590
15893TIP3   OH269093   2.905   6.670   1.705 -0.1563 -0.2168  0.4256
15893TIP3    H169094   2.853   6.633   1.776 -0.1943 -1.8004 -0.4264
15893TIP3    H269095   2.849   6.737   1.666 -1.1783 -1.2252  0.1502
15894TIP3   OH269096   1.600   4.775  16.830  0.1867 -0.2393  0.8675
15894TIP3    H169097   1.690   4.798  16.854 -0.2870  0.9648  1.5146
15894TIP3    H269098   1.602   4.768  16.735  1.1593 -1.0796  0.9376
15895TIP3   OH269099   0.122   5.233  12.952 -0.5649  0.2652  0.4149
15895TIP3    H169100   0.207   5.272  12.933  0.7273 -2.0806  1.1770
15895TIP3    H269101   0.129   5.142  12.922 -1.8680 -0.7019  2.8372
15896TIP3   OH269102   6.626   0.281   3.847  0.4680  0.2761 -0.2166
15896TIP3    H169103   6.628   0.232   3.929  0.0314 -0.0068 -0.3760
15896TIP3    H269104   6.631   0.373   3.874 -0.6430  0.2329  0.1751
15897TIP3   OH269105   5.295   0.374  16.719  0.0573  0.2549  0.3861
15897TIP3    H169106   5.349   0.391  16.641 -0.0733 -0.7810  0.0571
15897TIP3    H269107   5.206   0.369  16.685  0.1553 -1.6218  0.3789
15898TIP3   OH269108   0.502   2.580   5.086  0.1544 -0.1272  0.4840
15898TIP3    H169109   0.543   2.621   5.162  3.0569 -1.0317 -0.5148
15898TIP3    H269110   0.572   2.528   5.046 -1.5912 -0.5520 -2.1795
15899TIP3   OH269111   3.672   0.854  16.533  0.0590  0.1364  0.2698
15899TIP3    H169112   3.702   0.765  16.551 -1.7148 -0.9218 -1.7339
15899TIP3    H269113   3.576   0.846  16.530 -0.0264  1.6463 -2.1640
15900TIP3   OH269114   3.593   2.311  13.627  0.5200  0.2024 -0.1746
15900TIP3    H169115   3.585   2.404  13.602  0.5409  0.2562  0.0180
15900TIP3    H269116   3.607   2.313  13.721 -1.2659 -0.0674  0.1227
15901TIP3   OH269117   1.258   1.340  17.151 -0.3528 -0.2455 -0.4964
15901TIP3    H169118   1.200   1.357  17.226 -0.6529 -2.0634 -0.2932
15901TIP3    H269119   1.221   1.392  17.080  1.3530  3.4519  1.2194
15902TIP3   OH269120   3.114   2.171  15.924 -0.0451 -0.1383  0.8172
15902TIP3    H169121   3.129   2.264  15.906  0.8106 -0.6422 -1.1655
15902TIP3    H269122   3.167   2.154  16.002  1.2937  0.6274  0.1092
15903TIP3   OH269123   5.296   3.972  11.561  0.5402 -0.1626 -0.9148
15903TIP3    H169124   5.239   4.048  11.549  0.2673 -0.0146  1.1315
15903TIP3    H269125   5.381   4.010  11.587  0.1639 -0.5736  0.9585
15904TIP3   OH269126   1.911   3.241  16.062 -0.1283 -0.1540  0.4631
15904TIP3    H169127   1.930   3.288  16.142  2.0615 -0.2614  0.0439
15904TIP3    H269128   1.937   3.150  16.080  1.4689  0.0391 -0.6954
15905TIP3   OH269129   5.956   4.009  11.242  0.0585  0.4347  0.8489
15905TIP3    H169130   5.928   4.091  11.200  0.6723 -0.3511 -1.1635
15905TIP3    H269131   5.897   3.943  11.206  1.5007 -0.4911  0.1393
15906TIP3   OH269132   5.791   0.907  14.398 -0.2599 -0.2206  0.0954
15906TIP3    H169133   5.857   0.841  14.378 -0.2218 -0.2314  0.2602
15906TIP3    H269134   5.840   0.989  14.403  0.0647 -0.5121  2.2566
15907TIP3   OH269135   2.963   4.331   0.022  0.0471 -0.3346 -0.1635
15907TIP3    H169136   2.957   4.359  -0.070  0.0559  2.5548  0.6506
15907TIP3    H269137   2.873   4.337   0.054  0.2547 -0.0477  0.3653
15908TIP3   OH269138   0.254   3.630  13.275  0.2597 -0.0122 -0.5688
15908TIP3    H169139   0.191   3.599  13.340  0.8864  2.4655  1.2733
15908TIP3    H269140   0.200   3.668  13.206 -0.3750 -1.7880 -1.0885
15909TIP3   OH269141   4.067   5.927   3.778 -0.3652 -0.5128  0.0853
15909TIP3    H169142   4.153   5.929   3.736 -0.3374  2.3339  0.1962
15909TIP3    H269143   4.087   5.931   3.872 -0.6331  1.2133  0.0748
15910TIP3   OH269144   6.644   3.325  11.969 -0.2614 -0.2855 -0.1828
15910TIP3    H169145   6.718   3.377  12.003  0.5471 -0.4693 -1.6384
15910TIP3    H269146   6.575   3.338  12.034  0.9800  0.0538  1.1029
15911TIP3   OH269147   5.270   2.157  15.182  0.0688 -0.5018  0.3815
15911TIP3    H169148   5.264   2.073  15.136 -0.5698 -0.0566 -0.3521
15911TIP3    H269149   5.342   2.203  15.139  0.2390 -0.5572  0.6048
15912TIP3   OH269150   6.418   3.011  13.413  0.4433  0.3501  0.0240
15912TIP3    H169151   6.475   2.936  13.431 -1.7275 -1.2715  0.3868
15912TIP3    H269152   6.350   3.005  13.480 -1.4828  0.8208 -1.8534
15913TIP3   OH269153   6.243   1.966   0.768 -0.1008  0.4023  0.2322
15913TIP3    H169154   6.165   1.998   0.721  0.4620  0.8921 -0.3686
15913TIP3    H269155   6.257   2.031   0.837 -0.5408  0.0239  0.6892
15914TIP3   OH269156   2.300   3.236   1.631 -0.0085 -1.1332  0.0443
15914TIP3    H169157   2.222   3.182   1.634  0.8164 -2.3898 -0.6381
15914TIP3    H269158   2.355   3.203   1.702  0.5112 -1.2345 -0.3970
15915TIP3   OH269159   5.206   3.237  14.642 -0.4833 -0.3382 -0.5407
15915TIP3    H169160   5.281   3.265  14.589  0.9927  0.7359  2.0194
15915TIP3    H269161   5.131   3.279  14.602  0.7859  1.5421 -1.0062
15916TIP3   OH269162   3.464   4.293   5.147 -0.1744  0.7818 -0.1386
15916TIP3    H169163   3.517   4.237   5.089 -0.8094  0.1086 -0.0797
15916TIP3    H269164   3.377   4.255   5.143 -0.1078  0.3996  1.6672
15917TIP3   OH269165   0.479   0.615  15.911  0.1955  0.4702 -0.5527
15917TIP3    H169166   0.456   0.682  15.847  2.6909  0.0260 -1.9876
15917TIP3    H269167   0.474   0.532  15.863  0.4245 -0.0517  0.2968
15918TIP3   OH269168   3.581   4.536   5.445 -0.2683 -0.1551  0.4825
15918TIP3    H169169   3.491   4.519   5.472 -0.7428  0.9226 -0.3971
15918TIP3    H269170   3.631   4.463   5.483 -1.6168 -1.2235  0.2567
15919TIP3   OH269171   1.949   3.526   0.697  0.3731  0.3015 -0.0956
15919TIP3    H169172   2.003   3.448   0.708 -1.3957 -1.0512 -0.6743
15919TIP3    H269173   1.941   3.536   0.602 -3.4672 -1.7936 -0.0969
15920TIP3   OH269174   4.397   4.743   5.260 -0.1517 -0.0513  0.2913
15920TIP3    H169175   4.340   4.666   5.264 -0.2975  0.1124  1.5961
15920TIP3    H269176   4.481   4.710   5.227 -0.3977 -0.6633  0.2859
15921TIP3   OH269177   1.116   5.541  11.397 -0.7630 -0.1583 -0.2261
15921TIP3    H169178   1.044   5.597  11.370 -1.2786 -0.2143  0.9889
15921TIP3    H269179   1.138   5.490  11.319 -1.9782 -0.0754 -0.6318
15922TIP3   OH269180   1.865   5.780   5.651 -0.2997 -0.0424  0.3621
15922TIP3    H169181   1.859   5.758   5.744 -0.5255  0.8297  0.5547
15922TIP3    H269182   1.794   5.842   5.636  0.6372  0.9338 -0.0660
15923TIP3   OH269183   1.290   2.405   1.252  0.2961  0.4585 -0.3597
15923TIP3    H169184   1.283   2.416   1.347  3.1716  1.0481 -0.1616
15923TIP3    H269185   1.270   2.492   1.216  3.2400  1.3800  0.0221
15924TIP3   OH269186   6.370   5.221  12.768 -0.1032 -0.2684  0.1338
15924TIP3    H169187   6.275   5.230  12.761 -0.0742  0.9588  1.2257
15924TIP3    H269188   6.402   5.236  12.678 -0.9492 -0.9720 -0.2931
15925TIP3   OH269189   0.379   5.831  14.045 -0.0926  0.1535  0.1005
15925TIP3    H169190   0.288   5.859  14.059 -0.1249  0.2679 -0.3379
15925TIP3    H269191   0.389   5.754  14.101 -0.4356  0.1956  0.2191
15926TIP3   OH269192   4.371   0.896  14.328  0.3551  0.6396 -0.1513
15926TIP3    H169193   4.449   0.848  14.298 -0.8633 -0.9665 -0.8629
15926TIP3    H269194   4.338   0.939  14.249  0.3026  1.0134  0.0768
15927TIP3   OH269195   1.534   6.726  14.366 -0.0000  0.7302  0.1857
15927TIP3    H169196   1.553   6.803  14.420  0.4578  0.7445  0.0024
15927TIP3    H269197   1.508   6.658  14.428 -2.6652  1.6942  0.2260
15928TIP3   OH269198   6.534   2.027  15.709  0.1407  0.5346 -0.5674
15928TIP3    H169199   6.557   1.945  15.666 -0.3744  0.0489  0.0612
15928TIP3    H269200   6.443   2.042  15.684  0.1168  0.7157 -0.3698
15929TIP3   OH269201   6.188   1.108  14.291  0.0267 -0.1420 -0.0306
15929TIP3    H169202   6.259   1.170  14.278 -0.3046 -0.2437 -2.7000
15929TIP3    H269203   6.229   1.022  14.283 -0.0451 -0.2345  0.5619
15930TIP3   OH269204   2.380   3.547  16.518  0.3743 -0.1126  0.2743
15930TIP3    H169205   2.322   3.546  16.594 -0.0184 -2.0910 -0.0164
15930TIP3    H269206   2.457   3.596  16.548 -0.9012  1.4225  1.0670
15931TIP3   OH269207   6.383   0.416  13.140  0.1716  0.0799 -0.1071
15931TIP3    H169208   6.462   0.405  13.088  0.3490 -0.2402  0.2244
15931TIP3    H269209   6.311   0.414  13.077  0.5265  1.9643 -0.5808
15932TIP3   OH269210   3.509   5.007  11.583 -0.6247  0.1917 -0.5815
15932TIP3    H169211   3.442   4.958  11.631 -1.4571  1.9214  0.0343
15932TIP3    H269212   3.547   5.066  11.648 -0.7101  1.4731 -1.6922
15933TIP3   OH269213   5.115   2.058   6.258 -0.9444 -0.6688  0.1790
15933TIP3    H169214   5.056   1.993   6.222 -0.1320 -1.1893 -0.2295
15933TIP3    H269215   5.177   2.076   6.187  0.0071 -0.8913  0.9486
15934TIP3   OH269216   1.616   5.248   3.496  0.3057 -0.0914  0.5583
15934TIP3    H169217   1.696   5.228   3.447  0.4968  0.3182  0.7031
15934TIP3    H269218   1.558   5.175   3.477  0.6189 -0.2601  0.2393
15935TIP3   OH269219   3.754   1.031  11.878  0.5226  0.2233  0.0832
15935TIP3    H169220   3.677   1.025  11.822  1.7040  0.5893 -1.6279
15935TIP3    H269221   3.788   0.941  11.881  0.7747  0.3032 -0.2715
15936TIP3   OH269222   1.122   6.659  10.931 -0.2320 -1.1809  1.3321
15936TIP3    H169223   1.149   6.590  10.991  0.2487 -0.4657  1.9562
15936TIP3    H269224   1.175   6.644  10.852 -1.1510 -2.3549  0.9308
15937TIP3   OH269225   2.962   1.226  16.234 -0.2124  0.3075 -0.0616
15937TIP3    H169226   3.027   1.229  16.304 -0.5931  1.3114  0.2559
15937TIP3    H269227   3.011   1.198  16.157  0.1547 -1.0697  0.6560
15938TIP3   OH269228   3.660   4.042   4.425  0.1550 -0.2383 -0.0785
15938TIP3    H169229   3.729   4.009   4.482  1.0652 -1.2630 -1.7417
15938TIP3    H269230   3.667   4.137   4.431 -0.0308 -0.3305  1.8215
15939TIP3   OH269231   4.403   4.348  15.754 -0.8612 -0.1362 -0.2791
15939TIP3    H169232   4.419   4.314  15.841  1.1024 -0.3575 -0.6911
15939TIP3    H269233   4.394   4.443  15.767  2.2178  0.2048 -0.1085
15940TIP3   OH269234   1.681   1.469  14.403 -0.7876  0.1787  0.6392
15940TIP3    H169235   1.746   1.434  14.341 -0.8368  0.3018  0.5193
15940TIP3    H269236   1.628   1.529  14.351  0.3551  1.7357  1.2343
15941TIP3   OH269237   1.119   4.570   2.576  0.1920  0.3899 -0.0740
15941TIP3    H169238   1.073   4.502   2.626  0.8129 -0.0032 -0.0386
15941TIP3    H269239   1.049   4.622   2.537 -0.3381 -2.1532 -2.7037
15942TIP3   OH269240   2.061   0.647   5.987 -0.0843 -0.4135 -0.0035
15942TIP3    H169241   2.109   0.585   6.041  0.0400 -0.1092  0.2355
15942TIP3    H269242   2.127   0.708   5.955 -0.1403 -0.6536 -0.5860
15943TIP3   OH269243   6.294   3.218   0.663  0.2587  0.2074 -0.0869
15943TIP3    H169244   6.307   3.292   0.604 -0.4551  0.8161  0.5154
15943TIP3    H269245   6.284   3.258   0.749 -0.8568 -0.5412  0.1344
15944TIP3   OH269246   3.170   0.822   3.421  0.8589  0.2255  0.3244
15944TIP3    H169247   3.225   0.900   3.427  0.7000  0.5163 -1.5164
15944TIP3    H269248   3.168   0.802   3.327  0.6472 -1.8175  0.7372
15945TIP3   OH269249   4.160   1.056  12.917 -0.5229 -0.2566 -0.2913
15945TIP3    H169250   4.202   1.141  12.933 -0.0943 -0.7730  1.4482
15945TIP3    H269251   4.180   1.036  12.826  0.1585  1.0852 -0.4540
15946TIP3   OH269252   4.725   6.022   1.504  0.6754  0.1347 -0.6514
15946TIP3    H169253   4.676   5.942   1.488  0.4664  0.3379 -1.0337
15946TIP3    H269254   4.735   6.062   1.418  0.9772  0.4019 -0.4934
15947TIP3   OH269255   3.543   5.195   0.875  0.0638  0.2724 -0.2584
15947TIP3    H169256   3.452   5.223   0.882  0.1841  0.2201  1.7391
15947TIP3    H269257   3.593   5.263   0.920  1.0184  0.3042 -1.3566
15948TIP3   OH269258   4.357   4.864  14.011 -0.1367 -0.5109  0.5200
15948TIP3    H169259   4.307   4.783  14.024 -0.3709 -0.5486 -0.5730
15948TIP3    H269260   4.296   4.923  13.966 -0.3067  0.6446  2.2343
15949TIP3   OH269261   2.595   0.605   5.399 -0.2021  0.2939  0.1639
15949TIP3    H169262   2.659   0.534   5.392  0.7140  1.1137  0.2880
15949TIP3    H269263   2.511   0.559   5.412  0.4910 -0.7518  1.0826
15950TIP3   OH269264   0.940   4.995   1.813  0.2289 -0.3583  0.5407
15950TIP3    H169265   0.926   5.082   1.776  2.4754  1.0670  2.8485
15950TIP3    H269266   0.921   4.935   1.741  0.5210  2.1229 -1.6781
15951TIP3   OH269267   4.303   6.147  14.577 -0.4999 -0.8617  0.7834
15951TIP3    H169268   4.223   6.100  14.551 -1.4823  1.4557 -0.5117
15951TIP3    H269269   4.371   6.112  14.520 -1.8657  1.4187 -2.3702
15952TIP3   OH269270   5.797   2.384  16.685  0.1761  0.3684  0.1938
15952TIP3    H169271   5.824   2.475  16.674  0.1654  0.3745  0.2164
15952TIP3    H269272   5.731   2.370  16.617  1.5754 -0.1876 -1.0879
15953TIP3   OH269273   2.916   3.200  10.581 -0.2923  0.2509  0.3708
15953TIP3    H169274   2.967   3.213  10.501 -0.1996 -0.7667  0.2553
15953TIP3    H269275   2.881   3.286  10.602 -1.7955  0.2083 -1.7659
15954TIP3   OH269276   6.578   4.452   5.292 -0.1267 -0.6605  0.3053
15954TIP3    H169277   6.547   4.449   5.383 -1.4979 -1.9855 -0.1899
15954TIP3    H269278   6.600   4.362   5.271 -0.3373 -0.4446 -0.8682
15955TIP3   OH269279   6.674   2.649   5.464  0.6092 -0.3786  0.1679
15955TIP3    H169280   6.723   2.730   5.452 -1.6668  0.7202 -2.2079
15955TIP3    H269281   6.583   2.676   5.467 -0.1502 -2.7868  0.1582
15956TIP3   OH269282   1.423   3.460  12.191  0.0883 -0.0914  0.3226
15956TIP3    H169283   1.381   3.547  12.191  1.6053  0.6618  1.6826
15956TIP3    H269284   1.426   3.435  12.098 -1.4641  0.7553  0.0204
15957TIP3   OH269285   0.071   4.357  16.157 -0.1623  0.0846 -0.8570
15957TIP3    H169286   0.006   4.363  16.227  0.8263 -0.8970  0.1582
15957TIP3    H269287   0.084   4.263  16.144 -0.2033  0.2568 -2.2526
15958TIP3   OH269288   5.027   2.015  11.125  0.0834 -0.1330  0.0366
15958TIP3    H169289   5.118   2.042  11.112  0.2599 -0.1455  1.1711
15958TIP3    H269290   4.997   1.989  11.038  1.2052 -0.2397 -0.3290
15959TIP3   OH269291   1.865   4.724  12.558  0.1271 -0.1738  0.1456
15959TIP3    H169292   1.774   4.698  12.549  0.6245 -3.5106  3.7765
15959TIP3    H269293   1.907   4.694  12.477 -1.8408  1.1212 -1.4077
15960TIP3   OH269294   4.443   5.696   0.563 -0.1574 -0.2167  0.4966
15960TIP3    H169295   4.392   5.623   0.600 -1.6018  1.2647  1.4900
15960TIP3    H269296   4.442   5.680   0.468  0.2005 -1.8935  0.7542
15961TIP3   OH269297   4.268   1.299   1.583 -0.1117  0.4031  0.8174
15961TIP3    H169298   4.222   1.216   1.567  0.7857  0.0313  0.0757
15961TIP3    H269299   4.360   1.273   1.592  0.0106  1.1848  1.8430
15962TIP3   OH269300   1.292   0.615  13.303 -0.1219 -0.2651  0.2634
15962TIP3    H169301   1.361   0.586  13.243  0.0207 -1.5740  1.0321
15962TIP3    H269302   1.335   0.618  13.389 -0.9478 -0.8694  0.7098
15963TIP3   OH269303   4.734   1.210   0.515 -0.6782  0.0308 -0.0521
15963TIP3    H169304   4.822   1.175   0.502 -0.9952 -0.6503 -0.4114
15963TIP3    H269305   4.676   1.136   0.498 -1.2612  0.0668  1.6716
15964TIP3   OH269306   4.011   4.460   4.338  0.2402 -0.8014 -0.1908
15964TIP3    H169307   4.079   4.523   4.313  0.2264 -0.6508  0.1413
15964TIP3    H269308   4.059   4.388   4.378  0.1042 -0.0794  1.2870
15965TIP3   OH269309   6.147   5.553  11.108  0.1552 -0.2014 -0.0675
15965TIP3    H169310   6.170   5.519  11.021 -0.9478 -0.8873 -0.1143
15965TIP3    H269311   6.220   5.609  11.133  1.0891 -1.0301 -0.8847
15966TIP3   OH269312   4.436   1.529   5.781 -0.6330  0.1749  0.0292
15966TIP3    H169313   4.427   1.443   5.823 -2.2965 -0.3641 -1.3592
15966TIP3    H269314   4.372   1.584   5.826  0.0012  0.5290  0.5032
15967TIP3   OH269315   3.654   3.706  10.181 -0.7186  0.1427 -0.8783
15967TIP3    H169316   3.617   3.700  10.093  1.5741 -0.0184 -1.8838
15967TIP3    H269317   3.631   3.623  10.223  0.3610 -0.8962 -2.2627
15968TIP3   OH269318   4.877   3.487   4.350 -0.0477  0.4130  0.2002
15968TIP3    H169319   4.863   3.396   4.376 -0.7358  0.2836 -0.6177
15968TIP3    H269320   4.962   3.486   4.305  0.3195  0.3281  0.8785
15969TIP3   OH269321   6.010   2.905  10.564  0.1464  0.3901  0.0348
15969TIP3    H169322   6.062   2.846  10.619 -0.5892 -0.1371  0.1640
15969TIP3    H269323   6.039   2.993  10.589  2.3006  0.0676 -1.1742
15970TIP3   OH269324   1.681   3.669  14.482 -0.7825  0.0212 -0.1524
15970TIP3    H169325   1.616   3.600  14.494 -0.6814 -0.1447 -0.5541
15970TIP3    H269326   1.639   3.731  14.422 -0.2503 -0.5127 -1.1004
15971TIP3   OH269327   6.483   2.221   3.349  0.2631 -0.0218 -0.1483
15971TIP3    H169328   6.512   2.235   3.259 -1.9654 -0.1350 -0.9301
15971TIP3    H269329   6.439   2.136   3.346 -0.1559  0.1558  0.9513
15972TIP3   OH269330   1.427   2.013   1.250  0.4446  0.3545  0.1932
15972TIP3    H169331   1.444   1.983   1.340  1.6927 -1.1303 -0.5024
15972TIP3    H269332   1.485   2.088   1.239  0.7595  0.1519  0.4335
15973TIP3   OH269333   2.377   3.270  16.479 -0.3335  0.4024 -0.5356
15973TIP3    H169334   2.400   3.238  16.566  1.4828  0.9500 -0.7784
15973TIP3    H269335   2.391   3.365  16.484  0.3937  0.3637 -1.5891
15974TIP3   OH269336   6.142   3.997  15.160 -0.5342 -0.1241  0.1203
15974TIP3    H169337   6.109   3.954  15.082  0.1482  3.3472 -2.1945
15974TIP3    H269338   6.225   3.953  15.180 -0.3678 -0.5721 -1.5383
15975TIP3   OH269339   3.710   0.530  14.987  0.0322 -0.6795 -0.3190
15975TIP3    H169340   3.769   0.605  14.973 -0.1602 -0.1797  1.3962
15975TIP3    H269341   3.676   0.510  14.900  1.7789 -0.1827 -1.1466
15976TIP3   OH269342   6.486   3.857   1.942  0.5188  0.2429 -0.9014
15976TIP3    H169343   6.408   3.815   1.906  0.9139 -1.4477  0.1321
15976TIP3    H269344   6.559   3.819   1.892  0.9078 -0.5682  0.2642
15977TIP3   OH269345   6.060   3.232  14.329 -0.9994 -0.2586  0.2286
15977TIP3    H169346   6.105   3.300  14.379 -2.7339  2.4495 -1.7941
15977TIP3    H269347   5.969   3.238  14.358 -2.1135  1.5685 -3.3169
15978TIP3   OH269348   5.005   6.706  13.346  0.0368  0.7015  0.1541
15978TIP3    H169349   5.086   6.666  13.316 -0.3926 -0.2752  0.2948
15978TIP3    H269350   4.957   6.726  13.265  0.8703  2.2693  0.0206
15979TIP3   OH269351   3.995   0.541  12.148 -0.4512  0.3251 -0.0526
15979TIP3    H169352   3.951   0.589  12.218 -0.0742 -0.9735  1.0916
15979TIP3    H269353   3.933   0.473  12.123  0.9403 -1.6760  1.7408
15980TIP3   OH269354   2.187   0.804  17.023  0.0738 -0.3285 -0.2268
15980TIP3    H169355   2.205   0.801  16.929 -0.0628 -0.5924 -0.2442
15980TIP3    H269356   2.153   0.716  17.044 -2.6680  0.6313 -0.4977
15981TIP3   OH269357   4.642   1.480   1.126 -0.1985 -0.0869  0.0223
15981TIP3    H169358   4.726   1.491   1.082 -0.7978 -0.6354 -1.3167
15981TIP3    H269359   4.578   1.480   1.055 -1.3377  0.3772  1.0295
15982TIP3   OH269360   5.805   1.932   5.152 -0.1784 -0.0063 -0.1824
15982TIP3    H169361   5.871   1.901   5.090  1.0386 -0.1077  1.1297
15982TIP3    H269362   5.752   1.994   5.101  0.4785 -0.4618 -1.4561
15983TIP3   OH269363   3.370   3.887   0.044  0.3681 -0.3348 -0.3720
15983TIP3    H169364   3.345   3.832   0.119 -0.0151 -0.2377 -0.4292
15983TIP3    H269365   3.409   3.965   0.083  0.1095 -0.2550 -0.2693
15984TIP3   OH269366   4.909   3.385   6.010 -0.0287  0.1211  0.2564
15984TIP3    H169367   4.995   3.374   6.052 -0.9324 -0.0449  2.1187
15984TIP3    H269368   4.928   3.384   5.916  2.1617  1.3278  0.6525
15985TIP3   OH269369   4.413   4.408   3.120 -0.3321 -0.3508  0.4920
15985TIP3    H169370   4.354   4.446   3.055 -2.9867 -2.4667  1.5391
15985TIP3    H269371   4.421   4.476   3.187 -0.7950  0.3297 -0.1255
15986TIP3   OH269372   2.906   6.672  11.680 -0.2092  0.1562  0.3560
15986TIP3    H169373   2.948   6.758  11.690 -0.2495 -0.0630  2.4993
15986TIP3    H269374   2.976   6.616  11.644  1.1225  0.0400  2.9906
15987TIP3   OH269375   3.898   1.135   1.556  0.1224  0.2379  0.1176
15987TIP3    H169376   3.870   1.154   1.466  0.2046  0.7250  0.1905
15987TIP3    H269377   3.901   1.221   1.598 -0.6973 -0.0730  0.8152
15988TIP3   OH269378   5.986   3.718  16.718 -0.3086  0.0879  0.5806
15988TIP3    H169379   6.010   3.643  16.664  0.2679 -0.2975  1.3545
15988TIP3    H269380   5.896   3.700  16.745  0.2676 -0.9968  1.8505
15989TIP3   OH269381   5.490   1.932  15.707 -0.1861  0.5503 -0.2865
15989TIP3    H169382   5.492   1.862  15.772 -2.0311 -0.7588 -1.6015
15989TIP3    H269383   5.556   1.906  15.643  0.1272  0.7553 -0.0513
15990TIP3   OH269384   5.138   2.112  16.999  0.1110  0.8138 -0.0030
15990TIP3    H169385   5.075   2.064  16.945 -0.6672  0.6615  1.0284
15990TIP3    H269386   5.223   2.073  16.977 -0.4712 -0.8572  0.6272
15991TIP3   OH269387   3.090   1.083  13.239  0.5471 -0.5995 -0.6430
15991TIP3    H169388   3.046   1.154  13.190  0.4436 -0.6422 -0.6128
15991TIP3    H269389   3.044   1.080  13.323  1.9389  0.7104  0.1855
15992TIP3   OH269390   4.822   5.080  12.713  0.2719 -0.0300  0.4867
15992TIP3    H169391   4.816   5.135  12.791  1.2796 -1.1090  1.3536
15992TIP3    H269392   4.858   4.997  12.745 -0.6952 -1.0091 -0.8745
15993TIP3   OH269393   2.844   2.226   3.193  0.1073 -0.6474  0.4725
15993TIP3    H169394   2.927   2.210   3.148 -0.7924 -1.0999 -1.0894
15993TIP3    H269395   2.845   2.168   3.269  0.2823 -2.3091 -0.7708
15994TIP3   OH269396   5.625   6.757  13.500 -0.4411  0.2695 -0.6266
15994TIP3    H169397   5.605   6.733  13.410 -2.5180  1.3071 -0.4756
15994TIP3    H269398   5.608   6.851  13.504  1.5587  0.6271  0.3676
15995TIP3   OH269399   4.920   4.596   4.630  0.5053  0.1309 -0.2686
15995TIP3    H169400   5.014   4.615   4.636  0.8204 -1.4266  0.1560
15995TIP3    H269401   4.883   4.636   4.709  1.0568 -0.5164  0.3328
15996TIP3   OH269402   3.942   6.601  14.165 -0.1579 -0.1544 -0.6751
15996TIP3    H169403   3.891   6.681  14.180 -1.9064 -1.2665 -0.5344
15996TIP3    H269404   4.014   6.607  14.227 -2.0417 -0.1613  1.6136
15997TIP3   OH269405   0.028   5.012   4.808 -0.2694  0.6029 -0.1099
15997TIP3    H169406   0.065   5.092   4.845  0.5953 -0.2111  0.7884
15997TIP3    H269407   0.026   4.950   4.880  0.1472 -0.5610 -1.0750
15998TIP3   OH269408   4.611   3.545  13.336  0.2958  0.1957 -0.2188
15998TIP3    H169409   4.598   3.454  13.364 -0.2824  0.2410 -0.3430
15998TIP3    H269410   4.558   3.553  13.257  2.7553 -0.2614 -1.9943
15999TIP3   OH269411   3.493   1.035  11.615  0.0575  0.3911  0.0291
15999TIP3    H169412   3.583   1.005  11.600  0.4286  1.3324  0.3227
15999TIP3    H269413   3.457   1.047  11.528 -0.8786 -3.1185 -0.1496
16000TIP3   OH269414   2.923   1.554  12.552  0.1965  0.0561 -0.3767
16000TIP3    H169415   3.005   1.604  12.557  0.3356 -0.3006  1.5100
16000TIP3    H269416   2.951   1.462  12.558 -0.2337 -0.1382 -1.3140
16001TIP3   OH269417   5.593   6.690  10.398 -0.0096  0.2416  0.0809
16001TIP3    H169418   5.652   6.744  10.450  0.5285 -0.8957  0.6692
16001TIP3    H269419   5.646   6.615  10.371 -0.9476 -0.3751 -0.0867
16002TIP3   OH269420   6.757   2.218   1.907 -0.1099  0.1655  0.1557
16002TIP3    H169421   6.836   2.178   1.871 -0.1491  1.1395 -1.0299
16002TIP3    H269422   6.774   2.312   1.904 -0.0042  0.2690  2.9518
16003TIP3   OH269423   4.165   3.769  17.163  0.0657 -0.1622 -0.3164
16003TIP3    H169424   4.138   3.731  17.246 -1.0939  0.2282 -0.5021
16003TIP3    H269425   4.237   3.828  17.186  0.4381 -0.8315  0.2614
16004TIP3   OH269426   2.678   4.839   3.964 -0.0499 -0.0729  0.2481
16004TIP3    H169427   2.771   4.851   3.947  0.0888 -0.7761  0.4774
16004TIP3    H269428   2.675   4.768   4.028 -0.7356  0.0604  0.3666
16005TIP3   OH269429   3.930   3.178  13.191  0.1786 -0.6350  0.2206
16005TIP3    H169430   3.901   3.089  13.171  0.9463 -0.4919 -1.6921
16005TIP3    H269431   3.970   3.172  13.277  0.0053 -2.0961  0.1998
16006TIP3   OH269432   0.904   3.880   1.185  0.1788 -0.2530  0.2385
16006TIP3    H169433   0.938   3.935   1.115 -0.9118  0.7681  0.4734
16006TIP3    H269434   0.862   3.807   1.141 -1.0595  0.7113 -0.2220
16007TIP3   OH269435   3.472   6.677  12.048  0.3306 -0.1398 -0.3433
16007TIP3    H169436   3.428   6.755  12.014  0.8040  0.6353  0.8161
16007TIP3    H269437   3.435   6.665  12.136 -1.2077 -2.3792 -1.2346
16008TIP3   OH269438   5.813   0.507  14.248  0.1390  0.6299 -0.1208
16008TIP3    H169439   5.877   0.476  14.313  0.0973 -0.7116 -0.7079
16008TIP3    H269440   5.855   0.584  14.208  0.8905  0.4478  0.2989
16009TIP3   OH269441   4.349   0.941   0.287 -0.7094  0.4542  0.2500
16009TIP3    H169442   4.412   1.002   0.325 -0.9118  1.0295 -0.3210
16009TIP3    H269443   4.270   0.994   0.271 -1.3872 -0.2914  1.0887
16010TIP3   OH269444   0.881   2.792  13.802 -0.5167 -0.5688  0.6222
16010TIP3    H169445   0.941   2.866  13.818 -1.4746  0.2513  0.4947
16010TIP3    H269446   0.932   2.731  13.750  0.7174 -0.5766  1.8034
16011TIP3   OH269447   4.071   2.776   1.210 -0.5623 -0.0831 -0.1597
16011TIP3    H169448   4.034   2.704   1.159 -1.8183 -0.5593  1.3618
16011TIP3    H269449   4.009   2.787   1.283  1.6118  0.0012  1.7157
16012TIP3   OH269450   6.214   0.209   0.750 -0.6235 -0.7656  0.1189
16012TIP3    H169451   6.285   0.191   0.689  0.2329  1.1360  0.4908
16012TIP3    H269452   6.254   0.202   0.837 -1.3574 -1.5812  0.3935
16013TIP3   OH269453   3.763   6.521  10.626 -0.2812  0.1259  0.1281
16013TIP3    H169454   3.786   6.613  10.629  0.5196 -0.0268 -0.8892
16013TIP3    H269455   3.737   6.499  10.715  1.0250  0.9547  0.7241
16014TIP3   OH269456   2.118   3.975  12.228 -0.1935 -0.2081 -0.3812
16014TIP3    H169457   2.172   3.908  12.185 -0.4834 -0.1509 -0.8291
16014TIP3    H269458   2.038   3.978  12.177 -0.1096  0.6182 -0.4666
16015TIP3   OH269459   5.402   3.158  14.371  0.7660 -0.2031  0.2740
16015TIP3    H169460   5.372   3.074  14.406 -0.0864 -0.1819 -0.4192
16015TIP3    H269461   5.494   3.162  14.397  0.3537 -0.5390  1.8652
16016TIP3   OH269462   0.990   6.633   4.162 -0.2705  0.2393 -0.3608
16016TIP3    H169463   0.942   6.568   4.110 -3.0055 -0.2528  2.5619
16016TIP3    H269464   0.937   6.713   4.155 -0.7917  0.1055  1.7472
16017TIP3   OH269465   4.006   5.409  11.904  0.4026 -0.0467  0.3969
16017TIP3    H169466   4.015   5.321  11.942  1.8815 -0.2765 -0.4460
16017TIP3    H269467   3.947   5.454  11.963  1.3009 -0.9480  2.0399
16018TIP3   OH269468   4.320   0.039   6.146  0.2385  0.1152 -0.1540
16018TIP3    H169469   4.241  -0.004   6.179  0.7883 -0.8218 -0.0554
16018TIP3    H269470   4.360   0.078   6.224 -0.0955  0.5489 -0.1966
16019TIP3   OH269471   0.809   3.872   5.869 -0.3030 -0.2151 -0.3917
16019TIP3    H169472   0.885   3.831   5.910  0.3525 -0.5235 -1.8735
16019TIP3    H269473   0.844   3.918   5.793 -1.2667  1.7191  0.2984
16020TIP3   OH269474   5.385   3.082  16.893 -0.4716  0.4708 -0.5108
16020TIP3    H169475   5.396   3.135  16.971  0.5918  1.3482 -1.2336
16020TIP3    H269476   5.337   3.138  16.832 -0.3524  0.2002 -0.8589
16021TIP3   OH269477   1.135   5.138  11.380  0.2794 -0.2925  0.3273
16021TIP3    H169478   1.074   5.191  11.431  0.2060 -0.6472  0.6097
16021TIP3    H269479   1.155   5.192  11.303 -1.3574 -0.6728 -0.3858
16022TIP3   OH269480   6.374   5.237   1.244 -0.6800 -0.1159  0.1983
16022TIP3    H169481   6.355   5.321   1.202 -0.7223 -0.2606 -0.0717
16022TIP3    H269482   6.384   5.259   1.337  2.5699  0.7146 -0.2857
16023TIP3   OH269483   0.454   0.590  16.536  0.6090  0.6366 -0.6072
16023TIP3    H169484   0.533   0.625  16.577 -0.0975  2.6116 -0.9045
16023TIP3    H269485   0.396   0.569  16.610 -0.1145  2.8702 -0.5250
16024TIP3   OH269486   4.465   4.333  16.043 -0.2488  0.4036 -0.3117
16024TIP3    H169487   4.430   4.411  16.087 -0.0265  0.4062 -0.1382
16024TIP3    H269488   4.558   4.331  16.067  0.1802  1.1581 -1.9048
16025TIP3   OH269489   2.537   4.367   3.968  0.2064  0.3005  0.0216
16025TIP3    H169490   2.489   4.448   3.954 -1.3212 -0.7289 -0.8548
16025TIP3    H269491   2.624   4.383   3.932  0.8473  2.4863  2.4107
16026TIP3   OH269492   6.225   5.195   3.510 -0.1869  0.0613  1.2017
16026TIP3    H169493   6.274   5.265   3.467 -0.6764 -0.5234 -0.3485
16026TIP3    H269494   6.285   5.162   3.577  0.4192  1.3045  1.2923
16027TIP3   OH269495   4.935   5.192  17.016  0.7548  0.2558  0.3328
16027TIP3    H169496   4.977   5.114  17.052 -0.3312 -1.8354 -2.7037
16027TIP3    H269497   4.850   5.196  17.059 -0.4114 -2.0508 -1.6409
16028TIP3   OH269498   0.516   6.611  14.678 -0.2472 -0.6006 -0.0549
16028TIP3    H169499   0.576   6.537  14.673 -0.6194 -0.7499 -4.0662
16028TIP3    H269500   0.573   6.688  14.670 -0.2208 -0.6019  0.1225
16029TIP3   OH269501   0.211   1.439  15.064  0.5261  0.2176 -0.3350
16029TIP3    H169502   0.233   1.378  14.993 -0.4906 -0.0103 -0.4593
16029TIP3    H269503   0.296   1.468  15.098  1.0155 -0.5550 -0.8900
16030TIP3   OH269504   6.428   5.493  11.898  0.3464 -0.1560  0.4436
16030TIP3    H169505   6.441   5.415  11.953  1.9096 -1.3464 -1.5411
16030TIP3    H269506   6.388   5.459  11.818 -0.9039  1.4028  0.3997
16031TIP3   OH269507   2.878   6.425  14.447  0.3915 -0.6806 -0.1916
16031TIP3    H169508   2.848   6.349  14.398  0.6642 -1.7510  1.2571
16031TIP3    H269509   2.973   6.417  14.447  0.4023 -0.5463  0.2873
16032TIP3   OH269510   1.238   1.678  12.938 -0.1490  0.2375 -0.2215
16032TIP3    H169511   1.318   1.628  12.954  0.2005  1.3803  1.7759
16032TIP3    H269512   1.167   1.613  12.949  0.3730 -0.1903  0.6965
16033TIP3   OH269513   4.124   5.869  13.548 -0.1001  0.3188  0.0210
16033TIP3    H169514   4.044   5.901  13.507  0.8692  0.4832 -1.7837
16033TIP3    H269515   4.112   5.775  13.554 -0.3363  0.3149 -0.4697
16034TIP3   OH269516   4.346   5.096  10.657 -0.3622 -0.0402  0.9509
16034TIP3    H169517   4.428   5.142  10.639  0.1897 -1.4841 -0.3594
16034TIP3    H269518   4.280   5.146  10.608 -0.1789  0.7695  1.5120
16035TIP3   OH269519   3.176   2.359  16.294  0.3162 -0.5273 -0.0298
16035TIP3    H169520   3.265   2.383  16.266 -0.5283  1.1866 -1.3267
16035TIP3    H269521   3.185   2.343  16.388  1.9462 -0.0580 -0.0816
16036TIP3   OH269522   5.247   0.169   2.545  0.4565 -0.2348 -0.1846
16036TIP3    H169523   5.244   0.220   2.464  1.1089 -2.2790 -1.5247
16036TIP3    H269524   5.338   0.173   2.573  0.7078 -1.4544 -0.8156
16037TIP3   OH269525   6.416   0.166  13.513 -0.6510 -1.0213  0.5209
16037TIP3    H169526   6.397   0.207  13.598  0.4307  2.0142 -0.6391
16037TIP3    H269527   6.384   0.076  13.522 -1.1489 -0.5609  3.9136
16038TIP3   OH269528   3.291   0.216   1.393  0.4920  0.9426  0.0763
16038TIP3    H169529   3.250   0.299   1.419  0.2727  0.4111  1.4670
16038TIP3    H269530   3.231   0.148   1.424  0.5044  0.2481 -1.3594
16039TIP3   OH269531   3.805   4.263   5.341 -0.0970 -0.0709  0.5835
16039TIP3    H169532   3.773   4.189   5.393 -0.4808 -0.9846 -0.9257
16039TIP3    H269533   3.761   4.254   5.256  1.1769  0.9029 -0.2021
16040TIP3   OH269534   6.016   5.322   1.096  0.2923 -0.3325 -0.3814
16040TIP3    H169535   6.079   5.368   1.041  0.3279  1.4558  1.1121
16040TIP3    H269536   5.959   5.276   1.034  1.2090  0.4617 -1.8372
16041TIP3   OH269537   0.690   0.235   5.580 -0.4067 -0.1842  0.3284
16041TIP3    H169538   0.745   0.301   5.622 -0.9125  0.6876 -0.3427
16041TIP3    H269539   0.609   0.282   5.557 -0.4234 -0.8002 -0.9539
16042TIP3   OH269540   3.583   6.769  12.435  0.1233  0.0524  0.0619
16042TIP3    H169541   3.490   6.768  12.410 -0.3253  1.5443  1.5982
16042TIP3    H269542   3.594   6.690  12.487 -0.1977 -0.3405 -0.4626
16043TIP3   OH269543   1.337   5.995   3.966  0.6355  0.2619  0.8375
16043TIP3    H169544   1.344   5.938   3.889 -2.5242  0.5886  0.2392
16043TIP3    H269545   1.423   6.037   3.972  1.0774 -0.0380 -2.3331
16044TIP3   OH269546   2.903   3.063   0.201  0.3317  0.1711  0.6022
16044TIP3    H169547   2.813   3.061   0.231  0.7347  1.2112  1.9431
16044TIP3    H269548   2.945   2.988   0.243  0.5850  0.8994  1.6906
16045TIP3   OH269549   1.532   1.256  17.169 -0.7370 -0.3672  0.2256
16045TIP3    H169550   1.583   1.297  17.099  0.0910 -1.4881  0.1697
16045TIP3    H269551   1.441   1.278  17.149 -0.3363  1.0927 -0.0287
16046TIP3   OH269552   4.734   3.649  11.558  0.1637  0.1593  0.0459
16046TIP3    H169553   4.740   3.708  11.633 -1.1416 -1.0314  1.1139
16046TIP3    H269554   4.809   3.591  11.567  0.0727  0.0918  0.3564
16047TIP3   OH269555   6.227   3.322  16.193 -0.2181 -0.5289  0.0387
16047TIP3    H169556   6.275   3.404  16.205 -0.0881 -0.7268  0.9021
16047TIP3    H269557   6.134   3.347  16.200 -0.2005 -0.3278 -0.4897
16048TIP3   OH269558   2.718   1.782  13.018 -0.0315  0.3401  0.1492
16048TIP3    H169559   2.804   1.777  12.977 -0.0428  0.3666  0.1227
16048TIP3    H269560   2.665   1.832  12.956 -0.5460 -1.2025 -0.6985
16049TIP3   OH269561   4.744   4.898   1.498  0.6964 -0.5534 -0.1057
16049TIP3    H169562   4.710   4.810   1.514 -1.5870  0.3226  0.0550
16049TIP3    H269563   4.770   4.897   1.406  0.8907 -1.4399 -0.0526
16050TIP3   OH269564   3.037   6.512   3.535 -0.1634  0.5397 -0.0193
16050TIP3    H169565   3.065   6.444   3.474 -2.5739 -0.9375  0.4396
16050TIP3    H269566   3.038   6.593   3.484 -0.7103 -0.4245 -1.5821
16051TIP3   OH269567   4.913   0.646   4.840  0.2843 -0.2455 -1.1675
16051TIP3    H169568   4.979   0.707   4.808  0.9504 -0.2779  0.1410
16051TIP3    H269569   4.962   0.574   4.879 -0.4932 -0.0847  0.1692
16052TIP3   OH269570   4.282   2.807   3.622 -0.5081 -0.5088 -0.9694
16052TIP3    H169571   4.333   2.882   3.590 -1.3105 -1.0408 -3.6020
16052TIP3    H269572   4.330   2.777   3.699  1.5497  0.8142 -1.6892
16053TIP3   OH269573   1.169   2.905  12.846 -0.0669  0.1950  0.5455
16053TIP3    H169574   1.095   2.915  12.906  0.6835  0.7670  1.3769
16053TIP3    H269575   1.243   2.881  12.902  0.8933  1.7955 -0.0021
16054TIP3   OH269576   2.139   2.988  13.259 -0.0808 -0.1167  0.2851
16054TIP3    H169577   2.163   3.077  13.235  2.0886 -0.0140  2.6063
16054TIP3    H269578   2.158   2.982  13.352  2.2065 -3.7143 -0.2771
16055TIP3   OH269579   3.014   1.474   0.169 -0.0766  0.4063  0.0665
16055TIP3    H169580   3.075   1.401   0.156  1.5529  1.4578  1.6134
16055TIP3    H269581   2.929   1.432   0.181  0.7897 -1.2349  0.6390
16056TIP3   OH269582   3.542   2.162   3.797 -0.1219 -0.0369  0.3854
16056TIP3    H169583   3.575   2.117   3.875 -3.0353 -0.0407  1.6745
16056TIP3    H269584   3.529   2.252   3.824  1.2313  0.5478 -0.8453
16057TIP3   OH269585   1.014   3.635  14.932 -0.2050  0.1496  0.1128
16057TIP3    H169586   0.953   3.581  14.882 -0.8549  1.3528 -0.3971
16057TIP3    H269587   0.983   3.724  14.921  1.4676  0.7468  0.1112
16058TIP3   OH269588   6.459   6.478  14.774  0.0112  0.0341  0.0998
16058TIP3    H169589   6.524   6.422  14.818 -0.4680 -0.6381 -0.0394
16058TIP3    H269590   6.378   6.427  14.778 -0.6955  1.1952  0.9647
16059TIP3   OH269591   4.037   0.106  13.267  0.1542  0.4960 -0.0124
16059TIP3    H169592   4.079   0.035  13.315 -0.3430  0.3807  0.2567
16059TIP3    H269593   4.068   0.097  13.177 -0.8333 -0.7879 -0.2399
16060TIP3   OH269594   3.463   1.835  13.893  0.2337  0.2720 -0.0679
16060TIP3    H169595   3.474   1.766  13.827  2.2525  0.6121 -0.1383
16060TIP3    H269596   3.397   1.893  13.857 -0.4984 -0.9028 -0.6407
16061TIP3   OH269597   2.971   1.302   3.148 -0.7242 -0.6848  0.3584
16061TIP3    H169598   3.019   1.356   3.211 -3.1532 -1.4353  2.9653
16061TIP3    H269599   2.921   1.364   3.095  0.7714 -0.0995 -0.4161
16062TIP3   OH269600   2.414   1.842   0.124 -0.7012  0.3118 -0.2692
16062TIP3    H169601   2.474   1.774   0.155 -0.6123  0.2162 -0.6494
16062TIP3    H269602   2.343   1.795   0.081 -0.0600  0.4980 -1.5524
16063TIP3   OH269603   2.000   1.585   1.928  0.3242 -0.5129  0.3697
16063TIP3    H169604   2.053   1.593   2.008  1.4786  2.5574 -0.6400
16063TIP3    H269605   1.979   1.675   1.904 -0.5349 -1.4223 -2.4380
16064TIP3   OH269606   0.636   3.867   0.550 -0.6899 -0.2307  0.1293
16064TIP3    H169607   0.704   3.919   0.592 -0.0377 -0.4813 -0.5971
16064TIP3    H269608   0.576   3.932   0.513  0.0052  0.0073 -0.5917
16065TIP3   OH269609   3.169   2.600  12.970 -0.0577 -0.7052  0.2226
16065TIP3    H169610   3.106   2.610  12.899  0.7615 -0.7408 -0.5111
16065TIP3    H269611   3.153   2.512  13.004 -0.3135 -0.7602 -0.0374
16066TIP3   OH269612   5.609   3.759   5.296  0.0886 -0.3881  0.1261
16066TIP3    H169613   5.644   3.832   5.243 -0.1947 -0.0564  0.3938
16066TIP3    H269614   5.676   3.745   5.363 -1.0260  1.3492  1.6540
16067TIP3   OH269615   2.373   0.158   4.203  0.2330  0.0227 -0.2082
16067TIP3    H169616   2.449   0.146   4.147 -0.5163 -0.8231 -1.0659
16067TIP3    H269617   2.299   0.133   4.147 -0.6398  0.5411  0.7094
16068TIP3   OH269618   5.802   0.187  15.079 -0.3744  0.1009 -0.4877
16068TIP3    H169619   5.812   0.156  15.169 -1.9963 -1.7234 -0.9276
16068TIP3    H269620   5.719   0.234  15.079 -0.0025  0.7766 -0.8861
16069TIP3   OH269621   6.693   0.375   0.002 -0.3076 -0.1828 -0.1434
16069TIP3    H169622   6.788   0.372   0.008 -0.2677  0.3881 -0.4105
16069TIP3    H269623   6.662   0.351   0.090  0.1275  1.8691  0.5911
16070TIP3   OH269624   3.487   0.986   4.046 -0.5136 -0.5188 -0.3326
16070TIP3    H169625   3.576   1.018   4.061 -0.7868 -0.0693  0.3701
16070TIP3    H269626   3.442   1.060   4.003 -1.3439  0.3445  1.9254
16071TIP3   OH269627   4.380   2.178  14.429  0.0383 -0.1623 -0.3988
16071TIP3    H169628   4.380   2.246  14.497  0.2339  1.5052 -2.0414
16071TIP3    H269629   4.367   2.226  14.347 -0.1313 -2.1470 -1.5508
16072TIP3   OH269630   1.353   4.592   5.652  0.4404  0.1467 -0.3184
16072TIP3    H169631   1.344   4.502   5.620  1.0428 -0.5054  1.3181
16072TIP3    H269632   1.446   4.601   5.672  0.1776  0.7515  0.6413
16073TIP3   OH269633   2.009   4.752  16.188 -0.2258 -0.0908 -0.1569
16073TIP3    H169634   1.943   4.685  16.172  0.4487 -0.7138 -0.3741
16073TIP3    H269635   2.024   4.791  16.102  0.9454 -1.1380 -0.4417
16074TIP3   OH269636   2.473   6.429  13.141  0.5530  0.0755  0.0055
16074TIP3    H169637   2.397   6.449  13.195 -0.0370 -1.4912 -0.2121
16074TIP3    H269638   2.537   6.497  13.163 -0.8178  1.2790  0.3458
16075TIP3   OH269639   3.453   6.437   5.112 -0.3212  0.4867  0.0169
16075TIP3    H169640   3.398   6.382   5.057 -0.8946  1.4321 -0.3838
16075TIP3    H269641   3.399   6.515   5.128  1.1585  1.7577 -0.9889
16076TIP3   OH269642   2.347   2.822  13.201  0.6469  0.6211  0.5309
16076TIP3    H169643   2.391   2.873  13.133 -0.1877  1.3372  0.5305
16076TIP3    H269644   2.265   2.868  13.217 -0.0697 -0.6599  0.6079
16077TIP3   OH269645   1.218   2.925  15.211  0.4480 -0.8601 -0.3039
16077TIP3    H169646   1.276   2.982  15.261 -0.9658 -1.0747  1.6334
16077TIP3    H269647   1.214   2.844  15.263 -1.9893 -0.6469 -0.1133
16078TIP3   OH269648   1.508   6.287  16.001  0.3367  0.1966  0.3831
16078TIP3    H169649   1.549   6.254  15.921  0.7565 -0.3341  0.8077
16078TIP3    H269650   1.559   6.365  16.023 -0.2154  0.7319 -0.2446
16079TIP3   OH269651   3.724   6.281   3.033 -0.7088  0.1120  0.0356
16079TIP3    H169652   3.684   6.326   3.108  0.3893  1.4309 -0.1392
16079TIP3    H269653   3.786   6.345   2.998 -0.5907 -0.8167 -1.4809
16080TIP3   OH269654   2.686   4.587  15.366 -0.0882 -0.2391 -0.5730
16080TIP3    H169655   2.653   4.641  15.438 -1.4759  0.2804 -1.5857
16080TIP3    H269656   2.771   4.625  15.344 -0.4094  0.6417 -0.3157
16081TIP3   OH269657   3.701   4.717   0.068  1.1065 -0.2072 -0.6797
16081TIP3    H169658   3.634   4.765   0.116  2.7754  1.2887  0.1780
16081TIP3    H269659   3.702   4.630   0.109  0.7993  0.2614  0.3339
16082TIP3   OH269660   6.459   3.861   3.424 -0.1232 -0.3381  0.1895
16082TIP3    H169661   6.388   3.915   3.391 -0.6011  0.6444  2.7300
16082TIP3    H269662   6.538   3.893   3.380 -1.3126 -2.0102 -3.3028
16083TIP3   OH269663   3.534   5.750   3.530 -0.2630 -0.0035  0.2222
16083TIP3    H169664   3.512   5.835   3.567 -0.0372  0.1265  0.0561
16083TIP3    H269665   3.591   5.709   3.596 -0.2127  0.0537  0.2143
16084TIP3   OH269666   1.665   6.403  14.692  0.1878 -0.2994 -0.1843
16084TIP3    H169667   1.628   6.315  14.681 -0.4079  0.1112 -1.5635
16084TIP3    H269668   1.710   6.399  14.777 -1.4619 -1.3371  0.6679
16085TIP3   OH269669   1.006   2.055  12.116  0.0749 -0.3171  0.4102
16085TIP3    H169670   0.996   2.013  12.201 -0.8526  0.0919  0.5060
16085TIP3    H269671   1.053   2.136  12.134 -2.0860  0.8845  0.8782
16086TIP3   OH269672   4.373   3.496   3.659  0.7157  0.7916 -0.6436
16086TIP3    H169673   4.328   3.537   3.732  0.0540  0.2828 -0.7617
16086TIP3    H269674   4.303   3.466   3.601  1.1467 -1.0307 -0.2745
16087TIP3   OH269675   2.222   4.287  11.270  0.3193 -0.4006  0.0877
16087TIP3    H169676   2.277   4.276  11.193 -1.6892 -0.2792 -1.4058
16087TIP3    H269677   2.271   4.348  11.326  1.3586  0.2715 -1.5147
16088TIP3   OH269678   2.429   4.601   6.802 -0.1528  0.3091  0.6820
16088TIP3    H169679   2.382   4.593   6.886 -0.8405  0.0433  0.2774
16088TIP3    H269680   2.366   4.646   6.745  1.2559  2.8452  1.0452
16089TIP3   OH269681   3.381   5.897  16.454 -0.1762  0.2231 -0.7412
16089TIP3    H169682   3.393   5.937  16.368  0.6713 -0.2697 -0.8561
16089TIP3    H269683   3.453   5.835  16.462 -0.1041  0.4499  0.4340
16090TIP3   OH269684   3.968   0.892  16.927 -0.2252 -0.2387 -0.0823
16090TIP3    H169685   3.949   0.828  16.995  0.2759  1.6101  1.8458
16090TIP3    H269686   3.884   0.933  16.908  0.1225  1.3390  1.6321
16091TIP3   OH269687   4.275   4.889  10.828  0.0602 -0.0132 -0.0936
16091TIP3    H169688   4.289   4.925  10.740 -0.8920 -0.0644 -0.2724
16091TIP3    H269689   4.192   4.842  10.821 -1.4107  2.2121  1.5137
16092TIP3   OH269690   6.742   1.035  13.170 -0.5791  0.0616  0.0816
16092TIP3    H169691   6.773   1.009  13.083 -0.6172 -1.3321  0.4791
16092TIP3    H269692   6.709   1.124  13.157  1.1664  0.5982 -0.9159
16093TIP3   OH269693   1.383   4.035  11.452 -0.0744 -0.7028 -0.2525
16093TIP3    H169694   1.465   4.076  11.481  0.7627 -2.3132 -0.2978
16093TIP3    H269695   1.401   3.941  11.454 -2.1857 -1.1097  0.4876
16094TIP3   OH269696   1.095   2.322   4.355 -0.6936 -0.0320 -0.2375
16094TIP3    H169697   1.036   2.392   4.327  1.3651  1.2200 -1.5870
16094TIP3    H269698   1.105   2.266   4.278  2.4047  1.5945 -1.1019
16095TIP3   OH269699   6.224   1.405   2.978 -0.2372 -0.4499 -0.0550
16095TIP3    H169700   6.214   1.500   2.986  0.4403 -0.3509 -0.3383
16095TIP3    H269701   6.246   1.391   2.885  2.3079 -0.6229  0.5156
16096TIP3   OH269702   3.239   5.642  14.716  0.1226  0.2852 -0.2559
16096TIP3    H169703   3.306   5.620  14.781  0.5348  1.0247 -0.4138
16096TIP3    H269704   3.216   5.559  14.675 -1.6190 -0.4890  2.2308
16097TIP3   OH269705   4.605   4.317   5.725  0.0157 -0.0792  0.1000
16097TIP3    H169706   4.661   4.359   5.660 -0.4587  0.2557 -0.1003
16097TIP3    H269707   4.662   4.301   5.800  0.1014  1.3480  0.3554
16098TIP3   OH269708   0.727   6.653  13.213 -0.0557 -0.5592  0.3414
16098TIP3    H169709   0.650   6.647  13.155  0.1757 -1.1615  0.0962
16098TIP3    H269710   0.801   6.659  13.153  0.0067  1.3813  0.5613
16099TIP3   OH269711   2.843   3.440   0.746 -0.7537 -0.2214  0.2068
16099TIP3    H169712   2.904   3.494   0.697 -0.3096 -1.8306 -1.0323
16099TIP3    H269713   2.816   3.496   0.820  2.3489  0.4478  0.9099
16100TIP3   OH269714   3.430   1.494  12.536  0.4934 -0.2029  0.1848
16100TIP3    H169715   3.357   1.512  12.595  1.2742 -0.0949  1.1413
16100TIP3    H269716   3.406   1.414  12.491  0.3924 -0.9367  1.5163
16101TIP3   OH269717   1.741   6.266   2.966 -0.1406  0.0179 -0.0497
16101TIP3    H169718   1.806   6.202   2.936 -0.8029 -0.3543 -0.7060
16101TIP3    H269719   1.659   6.217   2.969 -0.9698  1.1891 -2.0588
16102TIP3   OH269720   1.349   6.421  14.938 -0.1615 -0.3497  0.3848
16102TIP3    H169721   1.260   6.456  14.940  0.6796  1.8466  0.6750
16102TIP3    H269722   1.359   6.383  14.851 -1.3382 -0.5116  0.3195
16103TIP3   OH269723   4.605   6.562  13.427 -0.1417 -0.0642 -0.0983
16103TIP3    H169724   4.652   6.479  13.413 -0.7496 -0.2184 -1.2442
16103TIP3    H269725   4.601   6.602  13.340 -1.6248  0.2215  0.0894
16104TIP3   OH269726   1.328   0.430  15.897  0.3170 -0.2636 -0.1928
16104TIP3    H169727   1.281   0.513  15.901 -0.0582 -0.4782 -0.1582
16104TIP3    H269728   1.348   0.419  15.804 -1.4488 -1.1443 -0.4913
16105TIP3   OH269729   6.641   3.704  16.686  0.6093 -0.4284 -0.3931
16105TIP3    H169730   6.626   3.665  16.772 -0.6149 -1.6610 -1.1568
16105TIP3    H269731   6.671   3.632  16.631  1.4116  0.3583 -1.0153
16106TIP3   OH269732   5.113   0.072  14.367  0.4586  0.5508  0.4190
16106TIP3    H169733   5.097   0.159  14.331 -0.0252  2.2865  4.4515
16106TIP3    H269734   5.030   0.047  14.406  0.9748 -1.1310  0.4654
16107TIP3   OH269735   0.624   2.850   4.528 -0.1464 -0.0723  0.0809
16107TIP3    H169736   0.558   2.832   4.595  1.6162  0.2509  1.9782
16107TIP3    H269737   0.618   2.776   4.467 -1.7326 -0.4140  0.6431
16108TIP3   OH269738   1.559   3.558  11.087 -0.4774  0.1934  0.1353
16108TIP3    H169739   1.558   3.574  11.181 -1.4832 -3.4298  0.7906
16108TIP3    H269740   1.467   3.552  11.062 -0.1887 -0.4799 -0.7921
16109TIP3   OH269741   0.609   2.201  12.299  0.1283 -0.0753 -0.0546
16109TIP3    H169742   0.633   2.120  12.344  0.2671  0.4164  0.7593
16109TIP3    H269743   0.690   2.251  12.294 -0.7180  1.6972  2.9415
16110TIP3   OH269744   6.591   0.429  15.179 -0.1160  0.4009 -0.5706
16110TIP3    H169745   6.520   0.379  15.219 -0.3987  1.6695  0.5778
16110TIP3    H269746   6.661   0.366  15.164 -0.9965 -0.5984 -0.4785
16111TIP3   OH269747   4.157   0.430  14.670  0.0428 -0.2211  0.2943
16111TIP3    H169748   4.216   0.449  14.596  1.1719 -1.2959  0.8938
16111TIP3    H269749   4.150   0.334  14.670 -2.0942 -0.0773 -0.0509
16112TIP3   OH269750   5.297   5.696   1.037  0.6590 -0.0989  1.1124
16112TIP3    H169751   5.311   5.785   1.069 -0.2472  0.5593 -0.2339
16112TIP3    H269752   5.357   5.688   0.963 -1.5789  0.5822 -0.8329
16113TIP3   OH269753   0.223   3.318  17.130 -0.1071  0.1029 -1.1703
16113TIP3    H169754   0.280   3.262  17.076 -0.1125 -2.5185  1.4221
16113TIP3    H269755   0.150   3.262  17.154 -0.2512  1.3160  1.3176
16114TIP3   OH269756   3.639   3.485   0.057  0.2000 -0.1170  0.0027
16114TIP3    H169757   3.684   3.520  -0.020  0.5129 -3.3430 -1.3312
16114TIP3    H269758   3.554   3.529   0.057  0.4523  0.3905 -1.7766
16115TIP3   OH269759   6.257   0.393   2.592 -0.0540 -0.8466 -0.3498
16115TIP3    H169760   6.187   0.451   2.623  0.4741  0.5975 -1.7887
16115TIP3    H269761   6.338   0.441   2.612  0.4670 -1.9162  0.1150
16116TIP3   OH269762   0.699   4.986  15.681  0.5828 -0.1422  0.1470
16116TIP3    H169763   0.681   4.930  15.757 -0.5557 -0.7824 -0.6011
16116TIP3    H269764   0.618   4.988  15.632  1.3741  0.1355 -1.1696
16117TIP3   OH269765   1.895   4.789  16.434 -0.0727 -0.4159 -0.2932
16117TIP3    H169766   1.925   4.801  16.344  0.5851  1.1313  0.1121
16117TIP3    H269767   1.966   4.740  16.476 -0.2581 -0.9016 -0.5402
16118TIP3   OH269768   0.185   1.726  15.662  0.1501  0.0614 -0.0970
16118TIP3    H169769   0.105   1.745  15.711 -1.0617 -1.5603 -1.4072
16118TIP3    H269770   0.248   1.699  15.729 -0.8670 -0.1598  0.7887
16119TIP3   OH269771   1.337   2.522   6.528 -0.4105  0.3623  0.1206
16119TIP3    H169772   1.424   2.489   6.552 -1.0555 -0.8378  0.8514
16119TIP3    H269773   1.355   2.598   6.473  1.1075  0.3236  0.5290
16120TIP3   OH269774   4.141   3.426  14.928  0.2548 -0.5124 -0.0412
16120TIP3    H169775   4.168   3.334  14.923  3.2945  0.1959  2.0135
16120TIP3    H269776   4.133   3.444  15.022 -2.8785  0.6662 -0.4722
16121TIP3   OH269777   6.518   1.062   5.482  0.1136 -0.4257  0.0429
16121TIP3    H169778   6.498   1.081   5.573 -1.6998 -2.1997  0.0432
16121TIP3    H269779   6.439   1.084   5.434  0.4769 -1.0755 -0.8802
16122TIP3   OH269780   5.827   2.334   2.587  0.3768  0.2573  0.5720
16122TIP3    H169781   5.759   2.401   2.583 -0.1854 -0.2094  2.0726
16122TIP3    H269782   5.808   2.277   2.513  0.3021  1.2247 -0.1636
16123TIP3   OH269783   0.775   3.643  13.328 -0.0139 -0.2671 -0.2367
16123TIP3    H169784   0.723   3.710  13.373  0.4143  1.3375 -2.0379
16123TIP3    H269785   0.711   3.592  13.278 -0.2258 -0.4954  0.2700
16124TIP3   OH269786   3.052   0.994   5.831  0.6134  0.2873  0.4404
16124TIP3    H169787   3.036   1.040   5.913 -0.9742 -0.3927  0.5155
16124TIP3    H269788   3.094   0.912   5.857 -1.3401 -0.6450  0.7090
16125TIP3   OH269789   1.019   1.906   0.988 -0.2547 -0.0567 -0.1676
16125TIP3    H169790   1.061   1.983   0.949  0.1306  0.0900  0.5259
16125TIP3    H269791   0.995   1.851   0.913  0.4337  0.2357 -0.6074
16126TIP3   OH269792   6.241   3.485   2.351  0.4391  0.0238 -0.3356
16126TIP3    H169793   6.234   3.547   2.424 -0.8188 -2.0104  1.3405
16126TIP3    H269794   6.334   3.461   2.348  0.6483  0.7771  0.0312
16127TIP3   OH269795   3.999   5.346   4.060 -0.1362  0.1563 -0.2393
16127TIP3    H169796   3.983   5.412   3.993  0.1886  0.1671 -0.3055
16127TIP3    H269797   4.087   5.365   4.093  0.0012 -0.3048 -0.3311
16128TIP3   OH269798   3.401   4.306   2.839  0.0911 -0.3943 -0.1231
16128TIP3    H169799   3.328   4.273   2.788 -0.6589  0.3349  0.4678
16128TIP3    H269800   3.454   4.229   2.860  0.3699 -0.7089 -1.9304
16129TIP3   OH269801   0.645   2.375   4.920  0.5886  0.1337  0.3281
16129TIP3    H169802   0.610   2.364   4.832  0.4235  1.0078  0.2758
16129TIP3    H269803   0.728   2.421   4.907  0.6022  0.1929  0.6215
16130TIP3   OH269804   0.034   5.739   1.060  0.3492 -0.1217 -0.0777
16130TIP3    H169805  -0.031   5.681   1.021  0.9468  0.6853 -2.3083
16130TIP3    H269806   0.023   5.726   1.155 -2.7097 -0.3394 -0.4084
16131TIP3   OH269807   2.870   3.929   1.945 -0.1471 -0.4502  0.0495
16131TIP3    H169808   2.807   3.889   2.005  0.1054  0.4711  0.9639
16131TIP3    H269809   2.843   4.021   1.941  0.1204 -0.4095 -0.8994
16132TIP3   OH269810   0.868   3.402   5.883  0.6284  0.1336 -0.5211
16132TIP3    H169811   0.899   3.445   5.802  0.9779  0.5781 -0.1546
16132TIP3    H269812   0.774   3.415   5.882  0.8591  1.9881  0.1914
16133TIP3   OH269813   0.647   4.554  11.181  0.4218 -0.0355  0.2037
16133TIP3    H169814   0.699   4.583  11.256  1.5942 -0.5516 -0.4044
16133TIP3    H269815   0.708   4.507  11.125 -1.2905 -3.1909  0.8442
16134TIP3   OH269816   6.360   5.268  12.259 -0.1069 -0.1921  0.5740
16134TIP3    H169817   6.268   5.251  12.282  0.4597 -0.8112  2.4419
16134TIP3    H269818   6.365   5.248  12.166 -2.0939  0.7769  0.2306
16135TIP3   OH269819   0.998   0.279   5.716 -0.0183 -0.2051  0.4962
16135TIP3    H169820   0.992   0.219   5.641 -1.0123  0.2182  0.2285
16135TIP3    H269821   0.942   0.239   5.783 -0.6046  0.3648  0.3525
16136TIP3   OH269822   2.504   2.633  13.909 -0.6220  0.3758  0.0744
16136TIP3    H169823   2.446   2.568  13.869  0.5578 -0.0099 -1.0341
16136TIP3    H269824   2.591   2.614  13.872  0.4972  0.0858  2.6958
16137TIP3   OH269825   5.641   3.968   2.673 -0.7294  0.2512 -0.8328
16137TIP3    H169826   5.575   3.915   2.718 -1.0105  0.0702 -1.4635
16137TIP3    H269827   5.595   4.048   2.648 -0.1818  1.0193  0.5551
16138TIP3   OH269828   2.995   4.304  15.446 -0.0398  0.0564 -0.1424
16138TIP3    H169829   2.968   4.346  15.528  0.7629 -0.5312  0.4268
16138TIP3    H269830   2.913   4.292  15.397 -0.5320  0.3193  0.6120
16139TIP3   OH269831   0.893   0.182  15.552 -0.1223 -0.6145 -0.1312
16139TIP3    H169832   0.877   0.276  15.560  0.1875 -0.6065  0.4054
16139TIP3    H269833   0.887   0.164  15.458 -1.3837 -0.2757 -0.1231
16140TIP3   OH269834   2.683   3.591  13.619  0.3089  0.2515  0.0791
16140TIP3    H169835   2.759   3.564  13.567  1.3729  0.8497  1.2857
16140TIP3    H269836   2.709   3.574  13.709 -0.8074  0.9202  0.5298
16141TIP3   OH269837   3.807   0.040   3.484  0.0703  0.0547 -0.4864
16141TIP3    H169838   3.877  -0.024   3.471  2.0158  2.0320 -0.2055
16141TIP3    H269839   3.756   0.037   3.404  2.1222  0.4640 -1.8483
16142TIP3   OH269840   5.502   6.263  12.702 -0.2126  0.7687  0.0001
16142TIP3    H169841   5.585   6.246  12.746  0.9346  0.0373 -2.3224
16142TIP3    H269842   5.458   6.178  12.699 -0.1049  0.7311 -0.5884
16143TIP3   OH269843   4.503   0.809  12.331  0.2138 -0.6363  0.3792
16143TIP3    H169844   4.497   0.723  12.371  1.0604 -2.6974 -3.6326
16143TIP3    H269845   4.418   0.823  12.289  0.5403 -0.1492 -0.1431
16144TIP3   OH269846   0.026   5.489   1.515  0.3208 -0.0769 -0.2586
16144TIP3    H169847  -0.005   5.434   1.587  1.5438 -0.9940 -0.4221
16144TIP3    H269848  -0.005   5.445   1.436  0.5219 -0.0308 -0.3620
16145TIP3   OH269849   0.316   1.377   1.640 -0.2579  0.1769  0.2188
16145TIP3    H169850   0.278   1.428   1.711 -2.6120 -1.0758 -0.1054
16145TIP3    H269851   0.336   1.292   1.678 -0.1122  0.0003 -0.2400
16146TIP3   OH269852   3.974   5.413  10.607 -0.4651  0.7343 -0.3800
16146TIP3    H169853   4.020   5.497  10.619  2.6695 -0.9794  0.3500
16146TIP3    H269854   3.883   5.433  10.627  0.3308  3.8057  0.5836
16147TIP3   OH269855   6.285   0.902  14.166  0.0594  0.1823  0.5350
16147TIP3    H169856   6.346   0.828  14.174 -0.0125 -0.0760 -1.0626
16147TIP3    H269857   6.267   0.907  14.072 -0.1821  2.0494  0.6655
16148TIP3   OH269858   6.189   6.060  14.854  0.6352 -0.3131 -0.2094
16148TIP3    H169859   6.129   6.086  14.783 -0.5331 -0.5487  0.6759
16148TIP3    H269860   6.239   6.139  14.873 -0.5010  0.3327  0.1180
16149TIP3   OH269861   0.935   3.585   3.735  0.3415 -0.0315 -0.7942
16149TIP3    H169862   0.901   3.520   3.673 -0.8620  1.2666 -1.5362
16149TIP3    H269863   0.865   3.651   3.741  0.9719  0.5078  0.9792
16150TIP3   OH269864   1.650   0.831   1.426 -0.4010 -0.1712 -0.1558
16150TIP3    H169865   1.634   0.765   1.358 -0.1504  0.8390 -1.2068
16150TIP3    H269866   1.564   0.869   1.443 -0.5595 -0.8134  0.5098
16151TIP3   OH269867   6.355   4.075  14.760  0.0846 -0.3062 -0.3241
16151TIP3    H169868   6.292   4.108  14.697  1.0174  2.0301 -0.1033
16151TIP3    H269869   6.321   4.103  14.845  0.5029 -0.5883 -0.0606
16152TIP3   OH269870   6.411   5.331   3.381 -0.5134 -0.1794  0.0884
16152TIP3    H169871   6.503   5.320   3.404 -0.2863 -0.6845 -0.9907
16152TIP3    H269872   6.392   5.423   3.397  0.0533 -0.1803  0.7646
16153TIP3   OH269873   3.718   4.968  13.234 -0.3567  0.0529 -0.7816
16153TIP3    H169874   3.691   5.041  13.290  0.4543 -0.8187  0.7636
16153TIP3    H269875   3.673   4.892  13.270 -1.9288 -0.1080 -2.9469
16154TIP3   OH269876   5.254   3.978  13.030  0.1061  0.1305 -0.9105
16154TIP3    H169877   5.255   4.074  13.031 -1.3656  0.1841  1.9691
16154TIP3    H269878   5.161   3.956  13.035  0.4498 -1.4737 -1.4244
16155TIP3   OH269879   4.051   1.408  12.386  0.5977 -0.3362 -0.1927
16155TIP3    H169880   4.006   1.426  12.304 -1.5448  0.2106  1.0655
16155TIP3    H269881   4.012   1.468  12.449  1.3733 -1.5483  1.5067
16156TIP3   OH269882   2.209   0.811   0.958 -0.6614  0.2785 -0.8150
16156TIP3    H169883   2.116   0.801   0.938 -0.4866 -0.0937 -1.4734
16156TIP3    H269884   2.247   0.725   0.937  0.0727  0.8663 -1.9780
16157TIP3   OH269885   0.333   5.216  13.245  0.3554 -0.4346 -0.3519
16157TIP3    H169886   0.398   5.285  13.231  0.7155 -0.5217  0.8219
16157TIP3    H269887   0.382   5.135  13.234  0.0345 -0.5120 -1.2675
16158TIP3   OH269888   0.458   3.403  15.604 -0.0110 -0.6597 -0.0136
16158TIP3    H169889   0.423   3.315  15.588 -1.4331 -0.7577  3.3289
16158TIP3    H269890   0.502   3.396  15.689  1.3598  1.4597 -0.5150
16159TIP3   OH269891   3.996   1.954   0.313  0.1755  0.0430  0.0065
16159TIP3    H169892   4.029   2.034   0.272  0.0504  0.4128  0.6328
16159TIP3    H269893   4.037   1.951   0.399 -0.9044  0.1753  0.5411
16160TIP3   OH269894   4.214   1.886  15.234  0.5859  0.3582 -0.4325
16160TIP3    H169895   4.135   1.922  15.196  0.3282  0.3865  0.1259
16160TIP3    H269896   4.278   1.888  15.163  0.9613  3.1533 -0.0602
16161TIP3   OH269897   6.050   5.309  15.084 -0.3164 -0.2277 -0.1744
16161TIP3    H169898   5.964   5.279  15.114  0.1863 -1.6152 -0.1218
16161TIP3    H269899   6.072   5.252  15.012  0.9641 -0.4424  0.3813
16162TIP3   OH269900   3.929   4.871  16.475 -0.8088 -0.1199  0.0789
16162TIP3    H169901   3.858   4.828  16.523  0.1821 -0.5201  1.2132
16162TIP3    H269902   3.972   4.800  16.428  0.0471 -0.2017  0.9605
16163TIP3   OH269903   1.576   2.645  12.252 -0.3232  0.0560  0.0719
16163TIP3    H169904   1.642   2.712  12.235  0.8385 -1.5037 -1.7288
16163TIP3    H269905   1.493   2.687  12.232  0.2652  1.4311  0.4593
16164TIP3   OH269906   3.479   3.455   2.952 -1.1284  0.4474 -0.1204
16164TIP3    H169907   3.529   3.516   3.007 -0.9332 -1.2144  1.5940
16164TIP3    H269908   3.388   3.464   2.982 -1.4691  1.5069 -1.4075
16165TIP3   OH269909   4.946   3.315  13.645 -0.0745  0.1699  0.3582
16165TIP3    H169910   4.888   3.266  13.703  1.1230 -0.8404  0.7307
16165TIP3    H269911   4.978   3.387  13.698 -1.3770  1.0399 -0.0082
16166TIP3   OH269912   4.935   1.863   0.599  0.3753 -0.3979 -0.2478
16166TIP3    H169913   4.924   1.820   0.684  1.0194 -1.6340 -0.7774
16166TIP3    H269914   5.028   1.886   0.596 -0.0532  1.5200  0.2384
16167TIP3   OH269915   3.145   3.754  12.099  0.2496  0.7337  0.5272
16167TIP3    H169916   3.062   3.737  12.143  0.0207  0.5991  0.0457
16167TIP3    H269917   3.211   3.710  12.153 -0.4272 -2.6765 -1.2854
16168TIP3   OH269918   5.363   4.498  11.820  0.1402 -0.0637  0.1982
16168TIP3    H169919   5.295   4.500  11.888 -0.1956 -0.7202 -0.1080
16168TIP3    H269920   5.393   4.589  11.814  0.2376 -0.0094  1.2808
16169TIP3   OH269921   2.983   5.197   3.438  0.4490  0.1248  0.2802
16169TIP3    H169922   2.927   5.124   3.465 -1.3990  0.8138 -1.5398
16169TIP3    H269923   2.948   5.224   3.353  0.9899  3.2680  1.0017
16170TIP3   OH269924   2.492   5.066  17.031  0.0969  0.1489 -0.0438
16170TIP3    H169925   2.558   5.135  17.037  0.7509 -0.3654 -1.1417
16170TIP3    H269926   2.486   5.047  16.938  0.5123 -1.8343  0.3082
16171TIP3   OH269927   1.989   3.220  16.520 -0.3163 -0.0387  0.0948
16171TIP3    H169928   1.996   3.125  16.526 -1.3348 -0.2041 -1.2828
16171TIP3    H269929   1.900   3.240  16.548 -0.9219  0.2749 -1.9760
16172TIP3   OH269930   4.985   3.516  12.705  0.2523  0.4001 -0.0096
16172TIP3    H169931   4.926   3.444  12.687  0.4110  0.5692 -1.2898
16172TIP3    H269932   4.995   3.517  12.800 -2.5216  0.9678  0.2977
16173TIP3   OH269933   2.416   6.244  16.774  0.2385 -0.3350  0.2473
16173TIP3    H169934   2.378   6.332  16.769 -1.0147 -0.9633 -1.7160
16173TIP3    H269935   2.373   6.203  16.849  0.1181  0.3937  0.5762
16174TIP3   OH269936   6.530   1.129   4.131  0.2742  0.0649  0.1340
16174TIP3    H169937   6.616   1.125   4.089  0.0684  0.6855 -0.3464
16174TIP3    H269938   6.547   1.169   4.217  0.1782  1.9974 -0.7263
16175TIP3   OH269939   1.453   0.287  11.570 -0.3633  0.0937 -0.0595
16175TIP3    H169940   1.497   0.250  11.494  0.6179  1.2464 -0.0648
16175TIP3    H269941   1.371   0.324  11.535  0.2168  0.8721 -0.6086
16176TIP3   OH269942   1.052   0.538  11.838 -0.0031 -0.0737  0.0930
16176TIP3    H169943   1.079   0.479  11.908 -0.3329 -0.6351 -0.2532
16176TIP3    H269944   1.006   0.482  11.775  0.5630  0.3694 -0.7270
16177TIP3   OH269945   3.485   5.516   0.402  0.2825 -0.1517  0.2327
16177TIP3    H169946   3.546   5.518   0.476 -1.3442 -0.1361  1.5840
16177TIP3    H269947   3.498   5.429   0.364  0.9352 -0.2606  0.6780
16178TIP3   OH269948   0.276   0.039  13.371  0.3312  0.0662 -0.0059
16178TIP3    H169949   0.280   0.067  13.279  1.1504 -1.7102 -0.5299
16178TIP3    H269950   0.261  -0.056  13.367 -0.3367  0.0699  1.7131
16179TIP3   OH269951   6.313   0.177   4.359  0.3874  0.4052  0.1333
16179TIP3    H169952   6.246   0.239   4.328  1.9704  2.5063  0.7689
16179TIP3    H269953   6.385   0.188   4.297  0.5810 -1.0488  0.0855
16180TIP3   OH269954   4.571   0.350   0.384 -0.1125 -0.2661  0.0690
16180TIP3    H169955   4.530   0.281   0.435 -1.9035  1.9032  1.7106
16180TIP3    H269956   4.576   0.315   0.295 -1.8381 -2.1394  0.6775
16181TIP3   OH269957   2.833   4.981   3.510 -0.2161 -0.7196  0.1317
16181TIP3    H169958   2.849   4.989   3.604 -0.7374  0.8916  0.0980
16181TIP3    H269959   2.739   5.000   3.501 -0.2588 -1.3185 -0.6652
16182TIP3   OH269960   2.446   2.270   0.658  0.1880  0.1894  0.4232
16182TIP3    H169961   2.492   2.251   0.576 -0.8055 -0.2961 -0.0316
16182TIP3    H269962   2.360   2.228   0.647 -0.1715  0.6503  1.4645
16183TIP3   OH269963   5.076   3.618  15.664  0.9991 -0.2307  0.8276
16183TIP3    H169964   5.022   3.662  15.598  0.8201  2.2320  2.5458
16183TIP3    H269965   5.107   3.539  15.621 -1.5147 -0.1733 -1.2200
16184TIP3   OH269966   3.683   4.985   1.878  0.1645  0.4859  0.2514
16184TIP3    H169967   3.643   4.899   1.895  0.9951 -0.3969 -2.0532
16184TIP3    H269968   3.777   4.968   1.883  0.3091  1.7232  1.8270
16185TIP3   OH269969   5.937   0.255  14.089  0.2312  0.5606  0.3371
16185TIP3    H169970   5.934   0.297  14.003 -1.5630 -1.2988 -0.5275
16185TIP3    H269971   5.849   0.266  14.124  0.0648 -1.4662  0.5879
16186TIP3   OH269972   2.055   2.904  13.555  0.6468  0.6528  0.2433
16186TIP3    H169973   2.071   2.925  13.647  0.4427  1.2062  0.1565
16186TIP3    H269974   2.101   2.821  13.541  2.4245  1.5876  0.3098
16187TIP3   OH269975   1.754   5.764   4.787  0.3731  0.4206 -0.0776
16187TIP3    H169976   1.789   5.675   4.785 -3.8111 -1.3408 -0.2587
16187TIP3    H269977   1.683   5.761   4.851  1.2064  4.0946  1.1721
16188TIP3   OH269978   0.214   4.904  14.199 -0.1260  0.0815  0.2315
16188TIP3    H169979   0.154   4.922  14.126  1.1774 -1.6394 -1.3023
16188TIP3    H269980   0.235   4.990  14.235  0.4485  1.0902 -2.4339
16189TIP3   OH269981   2.644   2.873  16.906 -0.1130  0.4586 -0.7882
16189TIP3    H169982   2.553   2.893  16.928  0.0851 -0.2307  0.7290
16189TIP3    H269983   2.662   2.790  16.950  0.2681 -1.0840 -3.7665
16190TIP3   OH269984   2.964   1.305  14.506  0.1925 -0.2349  0.2814
16190TIP3    H169985   3.002   1.268  14.586 -1.3998 -0.5506  0.9131
16190TIP3    H269986   2.978   1.399  14.513  1.6015 -0.4207  0.0926
16191TIP3   OH269987   4.589   2.116  14.757 -0.0608 -0.4373  0.2327
16191TIP3    H169988   4.644   2.046  14.793  0.6447 -0.0596 -0.1081
16191TIP3    H269989   4.614   2.122  14.665  0.4904  0.8207  0.4468
16192TIP3   OH269990   2.767   3.851   3.441 -0.3976 -0.3144  0.6285
16192TIP3    H169991   2.727   3.797   3.373 -1.7650  0.2465  0.9820
16192TIP3    H269992   2.763   3.940   3.406  0.2412 -0.2093  0.8133
16193TIP3   OH269993   4.519   4.197  17.069  0.1960 -0.4718 -0.1705
16193TIP3    H169994   4.456   4.190  17.141  0.3439  0.8950  0.0924
16193TIP3    H269995   4.604   4.184  17.110  0.2810  0.3135 -0.1022
16194TIP3   OH269996   3.016   5.694  15.387 -0.0036 -0.0128  0.0411
16194TIP3    H169997   3.099   5.740  15.377  0.0860 -0.2993 -0.4925
16194TIP3    H269998   2.962   5.755  15.438  0.8592 -0.2377  1.2579
16195TIP3   OH269999   0.817   4.997   0.797  0.4294 -0.5922 -0.4388
16195TIP3    H170000   0.839   5.088   0.775  2.5380 -0.8601  0.5127
16195TIP3    H270001   0.850   4.946   0.724  1.2391 -0.8005  0.0662
16196TIP3   OH270002   5.330   3.354  14.862 -0.2640  0.1723  0.7016
16196TIP3    H170003   5.274   3.342  14.939  0.1743 -1.1855  0.8224
16196TIP3    H270004   5.276   3.327  14.788 -0.0917 -0.2076  0.7153
16197TIP3   OH270005   0.104   2.870   5.331 -0.0153  0.2584  0.3373
16197TIP3    H170006   0.104   2.851   5.425 -0.3817  1.5754  0.6072
16197TIP3    H270007   0.071   2.959   5.324 -0.7068 -0.0902 -1.1023
16198TIP3   OH270008   6.286   3.962   5.192 -0.1686  0.3942  0.0466
16198TIP3    H170009   6.331   3.891   5.146  0.3898 -0.6249  2.0923
16198TIP3    H270010   6.241   4.011   5.123  0.1938 -1.3992 -1.5051
16199TIP3   OH270011   0.247   1.500  12.043  0.5299 -0.4087 -0.6103
16199TIP3    H170012   0.340   1.499  12.024  0.4507  1.2646 -1.1995
16199TIP3    H270013   0.240   1.540  12.130  0.3098  0.1528 -0.8882
16200TIP3   OH270014   4.116   5.305   0.913  0.4261 -0.2203  0.0414
16200TIP3    H170015   4.140   5.397   0.905 -0.0925 -0.0836  0.0325
16200TIP3    H270016   4.103   5.276   0.822 -1.9333  0.3830  0.1505
16201TIP3   OH270017   1.898   2.406   1.798  0.5825  0.4428  0.1372
16201TIP3    H170018   1.886   2.373   1.709  1.6502 -0.6312  0.3773
16201TIP3    H270019   1.839   2.481   1.804 -0.2603 -0.1022 -1.1327
16202TIP3   OH270020   2.613   1.859  14.806 -0.1997 -0.1342  0.2009
16202TIP3    H170021   2.637   1.864  14.898 -2.9902 -1.9228  1.1066
16202TIP3    H270022   2.626   1.767  14.783  0.8382  0.3791 -1.2968
16203TIP3   OH270023   0.624   6.091  15.356 -0.4302 -0.0615 -0.2322
16203TIP3    H170024   0.585   6.148  15.289 -1.8388  1.4252  1.7945
16203TIP3    H270025   0.559   6.089  15.427  1.8811  0.0271  1.9588
16204TIP3   OH270026   4.649   4.759  15.680  0.2364 -0.3644  0.6880
16204TIP3    H170027   4.629   4.691  15.744  0.4080 -1.1612 -0.0971
16204TIP3    H270028   4.647   4.714  15.595 -0.8841  0.8676  0.0404
16205TIP3   OH270029   6.222   2.219  12.759 -0.0636  0.1525  0.1059
16205TIP3    H170030   6.223   2.313  12.742 -0.5393  0.1151 -0.1051
16205TIP3    H270031   6.269   2.210  12.843  1.8352  0.3724 -0.8963
16206TIP3   OH270032   0.509   4.753  16.192  0.0921  0.1689 -0.2131
16206TIP3    H170033   0.581   4.756  16.255  1.4968  0.0604 -1.7753
16206TIP3    H270034   0.472   4.841  16.193 -0.3882 -0.0384  1.2971
16207TIP3   OH270035   5.973   3.908   2.264  0.0828 -0.6552 -0.1918
16207TIP3    H170036   5.997   3.945   2.179  0.3172  2.4231  1.1543
16207TIP3    H270037   5.894   3.956   2.289  1.1620 -0.0950  2.2189
16208TIP3   OH270038   2.269   4.553   1.822  0.0467 -0.1184  0.0465
16208TIP3    H170039   2.287   4.463   1.849  1.6156 -0.1345 -1.0634
16208TIP3    H270040   2.185   4.548   1.776  0.0636 -0.9871  0.1093
16209TIP3   OH270041   4.245   1.853   3.962 -0.3207  0.0911 -0.2761
16209TIP3    H170042   4.276   1.815   4.045 -1.5042  1.3947  0.8001
16209TIP3    H270043   4.296   1.933   3.952 -1.3803  0.8374  0.1123
16210TIP3   OH270044   6.601   1.415  11.593 -0.4343  0.3952 -0.4627
16210TIP3    H170045   6.666   1.371  11.539 -1.9036 -0.6459 -1.4364
16210TIP3    H270046   6.637   1.502  11.610  0.9588  0.0077 -1.3913
16211TIP3   OH270047   0.702   4.768   4.305 -0.2634 -0.2611  0.3554
16211TIP3    H170048   0.738   4.856   4.312 -0.8960  0.1501 -1.2448
16211TIP3    H270049   0.689   4.739   4.395  3.0739 -0.0227  0.9751
16212TIP3   OH270050   1.991   4.046  11.648 -0.0833  0.7134  0.5678
16212TIP3    H170051   2.027   3.965  11.684  0.3195  0.5432 -0.2085
16212TIP3    H270052   1.930   4.018  11.580  0.8134  1.0749 -0.4011
16213TIP3   OH270053   5.875   1.422  12.794 -0.6052  0.2597 -0.0422
16213TIP3    H170054   5.869   1.415  12.699 -1.9628  0.5723  0.0050
16213TIP3    H270055   5.884   1.332  12.825  0.1855  0.1859 -0.4796
16214TIP3   OH270056   5.503   3.331   2.675 -0.3924  0.1353 -0.3354
16214TIP3    H170057   5.524   3.375   2.757 -2.0148 -1.3164  0.9181
16214TIP3    H270058   5.561   3.255   2.672 -2.0328 -1.2184  0.7706
16215TIP3   OH270059   4.932   3.153   6.608  0.1852 -0.2089 -0.1667
16215TIP3    H170060   4.949   3.074   6.556 -2.0426 -0.9702  0.1896
16215TIP3    H270061   4.991   3.219   6.572  2.2683 -2.0895 -0.3301
16216TIP3   OH270062   1.695   5.480   2.606 -0.1325  0.0912 -0.0544
16216TIP3    H170063   1.670   5.488   2.698 -1.0073  1.6168 -0.4116
16216TIP3    H270064   1.658   5.396   2.579 -1.1185  0.2951  0.6128
16217TIP3   OH270065   5.389   2.837   2.678 -0.5330 -0.3683  0.1563
16217TIP3    H170066   5.435   2.867   2.756  1.0985 -1.5563 -0.3442
16217TIP3    H270067   5.370   2.917   2.629  2.5911  0.0183 -0.4998
16218TIP3   OH270068   4.337   0.042  14.403 -0.4399  0.2848  0.1057
16218TIP3    H170069   4.409   0.101  14.379 -0.9029  0.6495 -0.3835
16218TIP3    H270070   4.354  -0.038  14.354  0.7979 -0.4097  1.6036
16219TIP3   OH270071   0.159   6.674  12.294  0.2734 -0.5438 -0.2091
16219TIP3    H170072   0.107   6.703  12.370  0.1882  1.2483 -0.9419
16219TIP3    H270073   0.249   6.693  12.318  0.0793  1.9068 -1.3676
16220TIP3   OH270074   1.578   1.605  10.778 -0.2959 -0.4689 -0.0762
16220TIP3    H170075   1.544   1.526  10.819 -0.8326 -0.9510 -1.4198
16220TIP3    H270076   1.632   1.574  10.706  0.8212  0.3688  0.3830
16221TIP3   OH270077   4.571   2.939   4.437  0.0613  1.0039 -0.8094
16221TIP3    H170078   4.495   2.996   4.440 -0.2698  0.4977  1.3673
16221TIP3    H270079   4.632   2.977   4.501  0.1632 -0.5888  0.0720
16222TIP3   OH270080   0.145   6.253   4.574 -0.4847 -0.2873 -0.0763
16222TIP3    H170081   0.165   6.186   4.508 -2.2061  0.0755 -1.0005
16222TIP3    H270082   0.201   6.230   4.649  0.0631 -1.8581 -0.9355
16223TIP3   OH270083   5.849   2.269   0.697 -0.6599 -0.1766  0.1735
16223TIP3    H170084   5.766   2.316   0.703 -0.0672  0.6144  2.4652
16223TIP3    H270085   5.914   2.332   0.728  0.6092 -1.2955 -0.2100
16224TIP3   OH270086   3.972   5.770  11.328  0.6138  0.0043 -0.2494
16224TIP3    H170087   3.901   5.799  11.270 -0.3792 -1.5278  0.1676
16224TIP3    H270088   4.048   5.763  11.270  0.6442  2.3381 -0.5637
16225TIP3   OH270089   5.189   5.043   3.921 -0.3221  0.4590  0.6212
16225TIP3    H170090   5.154   5.033   3.832 -0.7080 -1.8119  1.0018
16225TIP3    H270091   5.279   5.011   3.915 -1.1887 -2.2475  1.6104
16226TIP3   OH270092   5.987   2.037   2.175 -0.3945 -0.0201  0.0963
16226TIP3    H170093   5.965   2.028   2.082 -1.5527  0.5328  0.3105
16226TIP3    H270094   5.973   1.950   2.212  0.2102 -0.2766 -0.2706
16227TIP3   OH270095   3.187   1.437   5.048  0.4063 -0.1749 -1.0841
16227TIP3    H170096   3.245   1.378   5.097  0.6346  0.4242 -0.6243
16227TIP3    H270097   3.100   1.415   5.080  0.7250  1.5558  1.0487
16228TIP3   OH270098   3.839   3.384   0.606 -0.2708 -0.2722  0.2673
16228TIP3    H170099   3.839   3.288   0.603 -1.0605 -0.2834  0.5435
16228TIP3    H270100   3.847   3.405   0.699  1.8878 -0.0479  0.0673
16229TIP3   OH270101   1.963   4.342   3.301 -0.1186  0.3636  0.5126
16229TIP3    H170102   2.017   4.293   3.239 -0.3180  0.9785 -0.1628
16229TIP3    H270103   1.913   4.402   3.246 -0.0302  1.1761  1.3075
16230TIP3   OH270104   5.897   3.913   0.665 -0.1749 -0.1790 -0.2455
16230TIP3    H170105   5.885   3.995   0.714  1.7024  0.5992 -1.0559
16230TIP3    H270106   5.849   3.927   0.583 -1.5347 -0.6720  0.4527
16231TIP3   OH270107   6.427   5.843  14.814 -0.3234  0.3797  0.4639
16231TIP3    H170108   6.358   5.907  14.825 -1.4913 -0.4962 -1.3942
16231TIP3    H270109   6.465   5.864  14.728 -1.6825 -2.2408 -0.8477
16232TIP3   OH270110   2.769   3.495  12.808 -0.5844  0.4842 -1.0639
16232TIP3    H170111   2.727   3.409  12.807  0.5568 -0.1305  1.1345
16232TIP3    H270112   2.850   3.483  12.759  1.5008 -0.7839  2.5068
16233TIP3   OH270113   4.199   6.099   1.554 -0.3150  0.0386  0.2933
16233TIP3    H170114   4.234   6.028   1.608 -1.0365 -0.5976 -0.0686
16233TIP3    H270115   4.253   6.099   1.476  0.0595  0.2736  0.5505
16234TIP3   OH270116   2.624   2.702  17.129 -0.0094 -0.1609  0.4216
16234TIP3    H170117   2.667   2.646  17.194  0.7490 -0.3381 -0.2189
16234TIP3    H270118   2.575   2.641  17.074  0.7653 -0.1983 -0.2380
16235TIP3   OH270119   0.877   5.806   5.999  0.0763  0.7055 -0.2882
16235TIP3    H170120   0.823   5.727   5.994  0.9740 -0.0062  0.8848
16235TIP3    H270121   0.942   5.786   6.067 -0.0476  2.6634  0.4439
16236TIP3   OH270122   0.843   1.160  12.022 -0.8570 -0.0493  0.1608
16236TIP3    H170123   0.858   1.254  12.015 -1.4023  0.1635  1.7387
16236TIP3    H270124   0.909   1.121  11.964  0.4018  1.2208  0.7188
16237TIP3   OH270125   6.695   1.704   2.467  0.6056  0.1961  0.0505
16237TIP3    H170126   6.754   1.629   2.467  2.4550  1.6230 -0.0208
16237TIP3    H270127   6.680   1.723   2.559  1.2706  0.6178  0.0705
16238TIP3   OH270128   4.028   2.158  10.826 -0.2629  0.0984 -0.3836
16238TIP3    H170129   4.033   2.063  10.835 -0.4081 -0.2026 -3.0011
16238TIP3    H270130   4.064   2.192  10.908  1.9108 -2.1978 -0.3178
16239TIP3   OH270131   5.054   0.450  12.316  0.3900 -0.3394  0.3922
16239TIP3    H170132   4.962   0.474  12.305  1.1286  2.5299 -0.0221
16239TIP3    H270133   5.054   0.355  12.322 -2.4033 -0.5025 -1.5222
16240TIP3   OH270134   2.963   3.673  14.674 -0.4167  0.0459 -0.2095
16240TIP3    H170135   2.876   3.670  14.713 -0.4265 -2.7834 -0.3522
16240TIP3    H270136   2.947   3.694  14.582 -0.7922  1.3527  0.1432
16241TIP3   OH270137   5.797   2.675  13.923  0.2480 -0.4977  0.0553
16241TIP3    H170138   5.812   2.600  13.865  0.6025 -0.7900  0.5170
16241TIP3    H270139   5.755   2.637  14.001 -1.0592  0.0205 -0.3776
16242TIP3   OH270140   3.846   5.616   4.300  0.5261 -0.1418 -0.4456
16242TIP3    H170141   3.897   5.586   4.375 -0.7848  1.9370  1.3476
16242TIP3    H270142   3.761   5.573   4.309  0.2015  0.4855 -0.4367
16243TIP3   OH270143   5.868   0.856  15.932  0.2892 -0.5673 -0.4182
16243TIP3    H170144   5.792   0.798  15.939  0.4556 -0.6851  0.6024
16243TIP3    H270145   5.941   0.805  15.967  0.4371  0.2361  0.4793
16244TIP3   OH270146   1.904   5.429  11.215 -0.0080 -0.0294  0.0216
16244TIP3    H170147   1.828   5.374  11.195  0.3377 -0.4594 -0.1206
16244TIP3    H270148   1.935   5.458  11.129  0.0421  0.0686  0.0731
16245TIP3   OH270149   3.149   6.352  17.085  0.7647 -0.1868  0.3995
16245TIP3    H170150   3.243   6.339  17.073  1.0090  1.8354  0.0076
16245TIP3    H270151   3.109   6.309  17.010  1.2408 -2.6070  1.4769
16246TIP3   OH270152   6.416   6.302  14.473  0.0885 -0.4952  0.1631
16246TIP3    H170153   6.510   6.318  14.472  0.0053 -0.0386 -0.5241
16246TIP3    H270154   6.379   6.375  14.424 -0.7016 -0.1924  1.1802
16247TIP3   OH270155   2.189   1.843  12.584 -0.2225  0.1454 -0.1852
16247TIP3    H170156   2.265   1.852  12.525 -0.7224  3.4687 -0.4064
16247TIP3    H270157   2.213   1.893  12.662 -1.9517  0.7503 -0.0241
16248TIP3   OH270158   0.569   2.765  13.883 -0.0169  0.6499 -0.1445
16248TIP3    H170159   0.544   2.762  13.790 -0.7765  2.9086 -0.0336
16248TIP3    H270160   0.664   2.775  13.882 -0.0189  0.6461 -0.6706
16249TIP3   OH270161   1.324   0.614  12.973 -0.6393 -0.0722 -0.0815
16249TIP3    H170162   1.312   0.666  12.894 -0.8321 -0.3552 -0.2412
16249TIP3    H270163   1.313   0.523  12.944  1.4331 -0.3228 -0.1476
16250TIP3   OH270164   6.729   1.953   3.537  0.3894 -0.0218 -0.4783
16250TIP3    H170165   6.721   1.960   3.441 -1.0284 -0.3750 -0.3861
16250TIP3    H270166   6.684   1.872   3.559  1.5564 -0.4577  0.4033
16251TIP3   OH270167   4.606   6.109   4.617  0.2679 -0.2266  0.4022
16251TIP3    H170168   4.600   6.177   4.684 -0.8751  0.4832 -0.4001
16251TIP3    H270169   4.685   6.060   4.639 -1.2068 -1.3554  3.5720
16252TIP3   OH270170   2.246   4.307  11.981  0.0964  0.8385 -0.0870
16252TIP3    H170171   2.314   4.311  11.914 -0.3968  0.9252 -0.5896
16252TIP3    H270172   2.166   4.287  11.932 -0.1041 -0.0390  0.5888
16253TIP3   OH270173   0.256   0.692  16.094  0.1340 -0.2515  0.3497
16253TIP3    H170174   0.237   0.626  16.161  0.8154 -1.8526 -0.9860
16253TIP3    H270175   0.310   0.645  16.029 -2.7976  0.4599 -2.7454
16254TIP3   OH270176   4.367   1.900   4.440  0.5303  0.3633  0.3117
16254TIP3    H170177   4.353   1.842   4.515 -0.9704  1.2114  0.7041
16254TIP3    H270178   4.282   1.905   4.397  1.0430  1.0074 -0.6482
16255TIP3   OH270179   4.867   3.361   4.761 -0.1857  0.4650  0.3490
16255TIP3    H170180   4.874   3.437   4.703 -2.0388  1.2674  1.1475
16255TIP3    H270181   4.772   3.348   4.772  0.0853 -2.1933 -0.0761
16256TIP3   OH270182   3.640   0.641  13.224  0.3229 -0.1100  0.2194
16256TIP3    H170183   3.563   0.699  13.222  0.3348  0.1488  3.8859
16256TIP3    H270184   3.715   0.701  13.224  0.3526 -0.0725  2.8357
16257TIP3   OH270185   0.074   2.046   6.091 -0.5338  0.1257  0.1468
16257TIP3    H170186   0.149   2.025   6.146 -1.3533 -0.4541  1.0572
16257TIP3    H270187   0.092   2.002   6.008  0.1603  0.0309  0.3474
16258TIP3   OH270188   5.625   5.572  15.117  0.8082 -0.6778 -0.4305
16258TIP3    H170189   5.713   5.580  15.153  0.2262 -0.8907  1.0830
16258TIP3    H270190   5.568   5.605  15.187 -0.5133 -3.1845 -0.2873
16259TIP3   OH270191   4.799   1.639  13.060  0.0206  0.1271 -0.2003
16259TIP3    H170192   4.830   1.703  12.997 -2.6380  0.8657 -0.8171
16259TIP3    H270193   4.875   1.622  13.116  1.3862  2.1715 -1.3634
16260TIP3   OH270194   6.721   4.345  13.152 -0.1038 -0.3501  0.6648
16260TIP3    H170195   6.728   4.440  13.159 -0.7855 -0.3462  1.2656
16260TIP3    H270196   6.629   4.326  13.169  0.3194 -1.2415  2.0189
16261TIP3   OH270197   2.291   2.014   5.474  0.0653 -0.6599 -0.6058
16261TIP3    H170198   2.316   2.044   5.387 -0.8516 -0.7457 -0.9046
16261TIP3    H270199   2.230   1.942   5.458  0.0808 -0.8289  0.0994
16262TIP3   OH270200   5.199   4.256  12.148  0.0469  0.3382  0.0777
16262TIP3    H170201   5.195   4.160  12.153 -0.2583  0.3172 -0.5814
16262TIP3    H270202   5.150   4.286  12.225 -2.0052 -0.0239 -1.0529
16263TIP3   OH270203   6.222   5.854  11.911  0.4733 -0.3033 -0.3057
16263TIP3    H170204   6.291   5.793  11.937 -1.0283 -0.6331  3.0979
16263TIP3    H270205   6.248   5.938  11.948 -1.3937 -0.6418  1.8462
16264TIP3   OH270206   2.649   5.604   3.922 -0.0807  0.0491  0.3220
16264TIP3    H170207   2.719   5.663   3.950 -0.5141 -0.0004  1.5331
16264TIP3    H270208   2.569   5.656   3.930 -0.0954  0.4045 -1.9554
16265TIP3   OH270209   0.350   2.956   0.485  0.7513  0.8009 -0.0030
16265TIP3    H170210   0.390   2.975   0.400 -2.4205 -1.7437 -2.1824
16265TIP3    H270211   0.382   2.868   0.507  0.2180  0.7696  0.6421
16266TIP3   OH270212   6.524   1.697   4.357 -0.0661 -0.0065 -0.1221
16266TIP3    H170213   6.543   1.645   4.435  0.6717 -0.5333 -0.6371
16266TIP3    H270214   6.610   1.717   4.320 -0.4366 -0.7159 -1.4032
16267TIP3   OH270215   2.463   6.547   4.053  0.3977 -0.4427 -0.1989
16267TIP3    H170216   2.421   6.585   3.976  1.2878 -2.2192 -1.5906
16267TIP3    H270217   2.539   6.602   4.069 -0.7047  0.9308  0.4502
16268TIP3   OH270218   3.321   4.808   1.273 -0.5184  0.0203  0.2725
16268TIP3    H170219   3.259   4.840   1.338 -0.5869  0.7695 -0.1569
16268TIP3    H270220   3.301   4.858   1.194  1.2370  0.9685  0.3932
16269TIP3   OH270221   1.179   6.680  11.263  0.1875  0.2991 -0.4654
16269TIP3    H170222   1.229   6.641  11.335 -1.0460  0.1633  0.3260
16269TIP3    H270223   1.190   6.619  11.191 -0.2368 -0.6092  0.2257
16270TIP3   OH270224   2.578   6.330   3.953  0.0513  0.3324  0.0832
16270TIP3    H170225   2.547   6.416   3.982  0.4102  0.8675 -1.0845
16270TIP3    H270226   2.547   6.323   3.862 -0.0874 -0.8254  0.2222
16271TIP3   OH270227   6.268   1.079   5.354 -0.1996  0.3281 -0.0658
16271TIP3    H170228   6.243   1.165   5.390 -0.3138  0.7062 -1.0347
16271TIP3    H270229   6.197   1.021   5.380  0.1263  0.4116  1.0399
16272TIP3   OH270230   3.997   0.809  16.539 -0.4993  0.1319  0.5271
16272TIP3    H170231   3.903   0.816  16.522 -0.5111 -0.9059  0.1646
16272TIP3    H270232   4.020   0.720  16.514  0.7999  0.6987 -0.3817
16273TIP3   OH270233   3.217   5.146  12.219  0.0462 -0.2117 -0.2067
16273TIP3    H170234   3.148   5.177  12.159  0.6694  2.0191  0.1865
16273TIP3    H270235   3.170   5.121  12.298 -0.3551  0.9565 -0.0697
16274TIP3   OH270236   0.618   2.549   1.419  0.0376  0.0356 -0.1422
16274TIP3    H170237   0.559   2.515   1.486  1.3410 -0.2167  0.8761
16274TIP3    H270238   0.665   2.472   1.387  0.2596  0.3285 -0.5222
16275TIP3   OH270239   6.650   6.615   1.494  0.1187 -0.6003  0.4198
16275TIP3    H170240   6.588   6.656   1.554  1.3004  2.2888 -0.2495
16275TIP3    H270241   6.598   6.590   1.418 -0.3574  1.4561  0.0273
16276TIP3   OH270242   0.032   1.133   4.643 -0.0428  0.7851  0.1238
16276TIP3    H170243  -0.029   1.150   4.571 -0.7888 -0.9670  0.3219
16276TIP3    H270244   0.079   1.054   4.615 -0.5078 -0.0472  1.6660
16277TIP3   OH270245   4.259   6.679   4.553 -0.7430  0.3974  0.2135
16277TIP3    H170246   4.216   6.599   4.581 -0.5011 -0.5283 -2.0193
16277TIP3    H270247   4.193   6.726   4.502 -0.2712  0.6952 -0.1261
16278TIP3   OH270248   4.708   2.726   4.346  0.2495  0.2663 -0.0119
16278TIP3    H170249   4.632   2.712   4.290  0.2601 -1.5512  0.3950
16278TIP3    H270250   4.693   2.811   4.387 -1.3491  0.1111 -0.2652
16279TIP3   OH270251   4.511   5.674  14.055 -0.3022  0.5284 -0.0004
16279TIP3    H170252   4.466   5.669  13.971 -1.1324 -1.1080  0.5313
16279TIP3    H270253   4.596   5.631  14.040 -0.5874 -0.0656  0.0902
16280TIP3   OH270254   0.918   3.757  12.278 -0.1614 -0.6499 -0.4134
16280TIP3    H170255   0.951   3.831  12.328 -1.8468 -0.1112 -0.0520
16280TIP3    H270256   0.902   3.689  12.344  1.4386 -1.3557 -0.7499
16281TIP3   OH270257   4.482   2.270  12.597  0.3957 -0.5358 -0.4316
16281TIP3    H170258   4.577   2.272  12.587  0.2080 -1.7631 -2.6754
16281TIP3    H270259   4.466   2.203  12.664  1.1320  0.2358  0.5322
16282TIP3   OH270260   5.507   1.329   4.077 -0.3148  0.0116 -0.2653
16282TIP3    H170261   5.443   1.358   4.142  0.3975  1.5486 -0.2301
16282TIP3    H270262   5.470   1.359   3.993  0.9898  2.1375 -0.1221
16283TIP3   OH270263   4.104   0.359   5.090  0.4761 -0.2322  0.7883
16283TIP3    H170264   4.023   0.354   5.140  0.8621  1.1588  1.5809
16283TIP3    H270265   4.172   0.333   5.151  0.9162  1.1717  0.9163
16284TIP3   OH270266   0.154   0.301  16.884  0.3826 -0.3132 -0.7016
16284TIP3    H170267   0.064   0.304  16.853  0.2105  0.4916 -0.1373
16284TIP3    H270268   0.168   0.210  16.908 -1.3408  0.1326  2.2381
16285TIP3   OH270269   4.420   1.101  13.378  0.0620 -0.0781  0.5409
16285TIP3    H170270   4.493   1.163  13.376 -0.4558  0.5198 -1.0492
16285TIP3    H270271   4.462   1.015  13.386  1.0357  0.1671 -1.4805
16286TIP3   OH270272   4.304   1.989   4.979  0.7880 -0.6184 -0.1179
16286TIP3    H170273   4.292   1.956   5.068  1.0408  0.1678  0.2135
16286TIP3    H270274   4.388   2.035   4.981 -0.1517  1.1514 -0.2206
16287TIP3   OH270275   1.088   2.396  10.819 -0.2350 -0.3098 -0.2303
16287TIP3    H170276   0.994   2.380  10.817 -0.3840  0.5208 -0.0881
16287TIP3    H270277   1.112   2.413  10.728 -0.5849  1.4838  0.0018
16288TIP3   OH270278   2.692   4.968  14.469 -0.4791 -0.0152 -0.2166
16288TIP3    H170279   2.731   4.883  14.487 -1.4284 -0.4407 -0.1564
16288TIP3    H270280   2.750   5.031  14.512  0.0194 -0.6521  0.0499
16289TIP3   OH270281   1.657   5.702   3.820  0.0244 -0.5160 -0.0637
16289TIP3    H170282   1.632   5.629   3.764  2.6209 -1.5444  0.0825
16289TIP3    H270283   1.630   5.676   3.908 -1.3271 -0.1873 -0.3667
16290TIP3   OH270284   3.543   2.556  13.545 -0.1898  0.6537 -0.0406
16290TIP3    H170285   3.486   2.561  13.468  1.1276  0.8121 -1.0277
16290TIP3    H270286   3.507   2.621  13.606 -0.4343  1.5113 -1.0785
16291TIP3   OH270287   6.220   0.487   0.586 -0.4115 -0.3293  0.1680
16291TIP3    H170288   6.245   0.560   0.642  0.0746 -0.0525 -0.3956
16291TIP3    H270289   6.248   0.409   0.633 -0.6793 -0.1346  0.6466
16292TIP3   OH270290   2.216   4.614  10.899  0.1503  0.4135 -0.3010
16292TIP3    H170291   2.263   4.680  10.847 -1.8366  0.8449 -1.6052
16292TIP3    H270292   2.193   4.546  10.836  0.4802 -0.6051  0.6625
16293TIP3   OH270293   3.725   5.680  15.640 -0.1484  0.7312 -0.1885
16293TIP3    H170294   3.706   5.663  15.547 -1.7500  1.8808 -0.0911
16293TIP3    H270295   3.660   5.629  15.688  1.7747 -1.2493  0.3771
16294TIP3   OH270296   0.559   1.340   3.771  0.0296  0.1304 -0.3970
16294TIP3    H170297   0.573   1.339   3.866 -1.3003  0.1990 -0.1885
16294TIP3    H270298   0.472   1.380   3.760  0.2620  0.3044 -1.6542
16295TIP3   OH270299   6.210   4.722  13.618  0.0945  0.2133 -0.7609
16295TIP3    H170300   6.279   4.660  13.642 -0.2524 -0.3907 -1.2986
16295TIP3    H270301   6.155   4.728  13.696  1.9371  2.3522  0.4304
16296TIP3   OH270302   0.374   2.303   2.778 -0.3825 -0.0329  0.0031
16296TIP3    H170303   0.379   2.333   2.869  0.0978 -1.2580  0.3948
16296TIP3    H270304   0.458   2.330   2.740 -0.0021 -0.7820  0.3185
16297TIP3   OH270305   0.129   4.853   5.030  0.0822  0.1512 -0.3296
16297TIP3    H170306   0.223   4.837   5.030  0.4768  2.2676  0.3794
16297TIP3    H270307   0.091   4.774   5.067  1.8079  0.3332  1.9436
16298TIP3   OH270308   4.650   0.250   3.547 -0.3643  0.1520  0.0882
16298TIP3    H170309   4.574   0.264   3.490  0.1269 -0.5190 -0.7347
16298TIP3    H270310   4.674   0.338   3.576 -0.1803  0.5795 -1.3258
16299TIP3   OH270311   2.879   0.093   3.940  0.0561 -0.1413 -0.4230
16299TIP3    H170312   2.854   0.027   3.876  1.9928 -0.4779 -0.8614
16299TIP3    H270313   2.918   0.164   3.888 -0.5802  0.6695  0.1789
16300TIP3   OH270314   1.604   2.480   3.800 -0.4612 -0.7526  0.6936
16300TIP3    H170315   1.535   2.458   3.862 -1.2467 -0.7353 -0.1608
16300TIP3    H270316   1.597   2.414   3.731 -0.4371 -0.0297 -0.0174
16301TIP3   OH270317   1.648   3.932  11.070  0.5362 -0.8150  0.9219
16301TIP3    H170318   1.698   3.894  10.997  0.8753  2.0312 -0.3712
16301TIP3    H270319   1.715   3.957  11.133  0.3609 -1.7382  1.4761
16302TIP3   OH270320   3.376   0.591   1.961 -0.0102  0.1286  0.4194
16302TIP3    H170321   3.373   0.634   2.047 -1.0180  1.5496 -0.2898
16302TIP3    H270322   3.452   0.630   1.918 -0.2821  0.4014  0.1828
16303TIP3   OH270323   0.907   5.978  16.911 -0.3102  0.1333  0.3083
16303TIP3    H170324   0.836   6.042  16.917  1.3810  2.3245 -2.4430
16303TIP3    H270325   0.968   6.003  16.980 -0.8593 -0.1636  0.9232
16304TIP3   OH270326   5.926   3.790  13.661  0.4147 -0.3491  0.4451
16304TIP3    H170327   6.015   3.826  13.663  0.0497  0.6416 -0.8045
16304TIP3    H270328   5.923   3.737  13.582 -0.9119  1.7914 -1.0003
16305TIP3   OH270329   1.007   4.494  10.629  0.4270  0.1752  0.2051
16305TIP3    H170330   0.916   4.474  10.650 -0.1440  1.7256 -0.7184
16305TIP3    H270331   1.050   4.409  10.628 -0.9396 -0.5520  0.9565
16306TIP3   OH270332   4.383   1.673   4.925  0.0554  0.0336 -0.3425
16306TIP3    H170333   4.386   1.714   5.011 -1.1648  0.9105 -0.6933
16306TIP3    H270334   4.464   1.699   4.882  0.8607 -0.7547  0.6887
16307TIP3   OH270335   0.968   5.479   5.828 -0.5074  0.0806  0.3472
16307TIP3    H170336   0.927   5.493   5.914 -0.3029  0.4740  0.3811
16307TIP3    H270337   1.059   5.458   5.847 -0.7045 -0.8673  0.2715
16308TIP3   OH270338   0.799   5.542  12.115  0.1996 -0.5421  0.7867
16308TIP3    H170339   0.774   5.483  12.185  1.7571  0.4052  2.1773
16308TIP3    H270340   0.716   5.565  12.072 -0.6208 -2.1476  1.4687
16309TIP3   OH270341   3.353   6.510  12.347 -0.4358  0.0049 -0.3148
16309TIP3    H170342   3.374   6.541  12.259 -0.2890 -1.6123 -0.8684
16309TIP3    H270343   3.423   6.448  12.368 -2.0128 -1.8069 -0.2412
16310TIP3   OH270344   1.039   4.807   0.199 -0.1238 -0.1094 -0.1809
16310TIP3    H170345   1.088   4.725   0.206 -0.6324 -0.2995  1.2675
16310TIP3    H270346   1.105   4.875   0.210  0.1787 -0.3337 -0.6028
16311TIP3   OH270347   5.186   2.993  14.081  0.4715  0.3220  0.1784
16311TIP3    H170348   5.141   2.932  14.139 -1.4496  0.7250 -0.8551
16311TIP3    H270349   5.223   2.938  14.012  1.0948  0.0407  0.7395
16312TIP3   OH270350   6.063   1.003   5.999  0.6628  0.0210 -0.5411
16312TIP3    H170351   6.037   1.095   6.003  0.3109 -0.0913 -0.2624
16312TIP3    H270352   5.990   0.955   6.038  0.9549 -0.3560 -0.4480
16313TIP3   OH270353   4.882   4.051   2.858 -0.4482 -0.1524 -0.0106
16313TIP3    H170354   4.936   4.107   2.801  0.6212 -0.6231  0.5181
16313TIP3    H270355   4.848   3.983   2.800 -1.6053  0.9241 -0.6224
16314TIP3   OH270356   0.717   0.806   1.609 -0.3612  0.0927  0.0814
16314TIP3    H170357   0.676   0.808   1.523  0.1718  3.4699 -0.1456
16314TIP3    H270358   0.647   0.778   1.669 -1.2836 -0.2244 -1.1280
16315TIP3   OH270359   3.645   0.811   0.956 -0.1203  0.1749  0.3594
16315TIP3    H170360   3.652   0.861   0.875 -2.4676  0.9767  0.5942
16315TIP3    H270361   3.731   0.771   0.968 -0.1240 -1.0617 -3.2212
16316TIP3   OH270362   1.131   6.459  13.051 -0.2991  0.1034  0.0128
16316TIP3    H170363   1.091   6.435  13.134  1.6107  0.4177  1.0483
16316TIP3    H270364   1.168   6.378  13.017  0.4349  0.2873  0.3420
16317TIP3   OH270365   4.860   3.852  14.034 -0.0609 -0.1235  0.5905
16317TIP3    H170366   4.842   3.909  13.959 -0.7396  0.0110  0.8534
16317TIP3    H270367   4.775   3.819  14.060  0.2312 -0.5498  1.0081
16318TIP3   OH270368   1.304   5.406   5.858  0.9457  1.1407 -0.2073
16318TIP3    H170369   1.294   5.456   5.777  0.8807  1.2804 -0.1122
16318TIP3    H270370   1.388   5.361   5.848  0.0032 -0.4350 -1.2282
16319TIP3   OH270371   6.022   5.340  15.918 -0.3344 -0.8170  0.0750
16319TIP3    H170372   6.032   5.430  15.948 -1.8051 -1.5201  2.9126
16319TIP3    H270373   5.941   5.341  15.866 -0.4511 -0.5185  0.2610
16320TIP3   OH270374   2.554   6.471   1.529  0.7327 -0.2557  0.0343
16320TIP3    H170375   2.584   6.538   1.468  1.2530  0.1221  0.6951
16320TIP3    H270376   2.608   6.485   1.608  0.9172 -1.5139  0.1336
16321TIP3   OH270377   0.791   2.090   4.558  0.5362 -0.0133 -0.5359
16321TIP3    H170378   0.844   2.027   4.510 -0.2055  0.6328 -2.2423
16321TIP3    H270379   0.764   2.154   4.492 -1.1551  0.4676  0.5903
16322TIP3   OH270380   5.615   4.554  15.056 -0.5177 -0.2369 -0.0984
16322TIP3    H170381   5.664   4.518  15.130  0.0873  1.8207  0.5344
16322TIP3    H270382   5.681   4.567  14.987 -0.1499  2.3469  0.6857
16323TIP3   OH270383   1.942   0.038  12.501 -0.2067 -0.4724  0.0959
16323TIP3    H170384   1.964  -0.036  12.444  0.8285  0.8366 -1.2237
16323TIP3    H270385   1.866   0.079  12.459 -0.1797 -0.2088  0.3042
16324TIP3   OH270386   5.365   5.872  14.017 -0.3973  0.3795  0.1921
16324TIP3    H170387   5.444   5.818  14.018 -0.9267 -0.4248 -0.3766
16324TIP3    H270388   5.352   5.897  14.109  0.1639 -0.0045  0.3818
16325TIP3   OH270389   2.748   5.318  11.241 -0.1179  0.8453 -0.3464
16325TIP3    H170390   2.843   5.316  11.259 -0.4135  0.2018  1.2189
16325TIP3    H270391   2.716   5.233  11.271 -1.1969  1.0628 -0.8720
16326TIP3   OH270392   5.187   6.514   1.169 -0.3166 -0.0378  0.0509
16326TIP3    H170393   5.251   6.487   1.235  0.3157 -0.3018 -0.6700
16326TIP3    H270394   5.219   6.476   1.087 -2.5747 -2.0088  0.0548
16327TIP3   OH270395   3.762   6.743  16.907 -0.5407  0.6188  0.4507
16327TIP3    H170396   3.765   6.669  16.847 -0.9275  0.4525  0.6397
16327TIP3    H270397   3.812   6.812  16.862  1.1605 -0.2475  0.9621
16328TIP3   OH270398   6.313   4.589   1.011 -0.2105 -0.0269  0.1972
16328TIP3    H170399   6.281   4.679   1.004  0.0935  0.0020 -0.8731
16328TIP3    H270400   6.397   4.597   1.057  0.1881  0.3281 -0.5777
16329TIP3   OH270401   4.546   5.287  15.328 -0.1177 -0.5861 -0.6382
16329TIP3    H170402   4.570   5.364  15.277 -0.4504 -0.9066 -1.2905
16329TIP3    H270403   4.590   5.214  15.284  0.3602 -0.7447  0.0956
16330TIP3   OH270404   5.661   4.869   3.455 -0.2252  0.2338  0.7755
16330TIP3    H170405   5.612   4.872   3.538  0.0090 -0.1905  0.9296
16330TIP3    H270406   5.718   4.945   3.458 -0.3764  0.3433  0.9058
16331TIP3   OH270407   5.301   4.971  15.077  0.4469  0.2301  0.2764
16331TIP3    H170408   5.329   5.048  15.027  1.0137  0.6513  1.2349
16331TIP3    H270409   5.365   4.962  15.147  0.0754 -0.7960  0.5045
16332TIP3   OH270410   4.662   5.067  16.811 -0.9555  0.1354  0.0112
16332TIP3    H170411   4.603   5.025  16.873  0.0350 -1.9894 -0.4357
16332TIP3    H270412   4.742   5.084  16.862 -0.4165 -0.9247 -0.4657
16333TIP3   OH270413   5.474   0.197  16.387  0.5236  0.0319 -0.0700
16333TIP3    H170414   5.533   0.193  16.312 -1.3377 -0.2876 -1.5557
16333TIP3    H270415   5.444   0.288  16.389  1.6485  0.3985  1.1762
16334TIP3   OH270416   6.672   6.670  15.337 -0.1455  0.1754  0.3556
16334TIP3    H170417   6.676   6.758  15.376 -0.3661  0.1039  0.5371
16334TIP3    H270418   6.580   6.659  15.313 -0.3932 -0.5676  1.6093
16335TIP3   OH270419   2.909   1.111   3.630  0.5710 -0.4406 -0.2344
16335TIP3    H170420   2.996   1.105   3.592  0.6721 -1.1306  0.1033
16335TIP3    H270421   2.911   1.053   3.706  0.3203  0.7757  0.7294
16336TIP3   OH270422   3.723   3.894   0.197 -0.3025  0.0078 -0.3122
16336TIP3    H170423   3.761   3.975   0.232 -0.3068 -0.9357  1.9476
16336TIP3    H270424   3.671   3.859   0.269 -1.1345 -1.4905 -1.6187
16337TIP3   OH270425   0.914   0.803   1.240  0.1692  0.6059  0.4146
16337TIP3    H170426   0.839   0.810   1.181  0.5732 -0.1399 -0.2001
16337TIP3    H270427   0.990   0.818   1.184  0.5068  0.8776  0.9396
16338TIP3   OH270428   6.438   3.950   0.896  0.5407  0.1044  0.1098
16338TIP3    H170429   6.401   3.862   0.887 -0.5561  0.6204 -0.6751
16338TIP3    H270430   6.448   3.963   0.990 -1.4290 -0.0179  0.3674
16339TIP3   OH270431   0.959   3.270   1.211 -0.5147  0.5928 -0.1894
16339TIP3    H170432   1.006   3.291   1.130  1.0804  1.5775  0.9520
16339TIP3    H270433   0.946   3.175   1.207  0.6393  0.4541 -1.0366
16340TIP3   OH270434   1.521   5.662   4.060 -0.4425 -0.1036  0.1761
16340TIP3    H170435   1.524   5.569   4.081 -1.0904 -0.3186 -0.6287
16340TIP3    H270436   1.554   5.706   4.138  0.2542 -1.0325  0.4055
16341TIP3   OH270437   0.687   0.142  14.012  0.4065  0.2751  0.3898
16341TIP3    H170438   0.708   0.196  13.936  0.1622 -1.9853 -1.3454
16341TIP3    H270439   0.592   0.133  14.010  0.5210 -0.9802  0.1002
16342TIP3   OH270440   4.546   5.567  13.426 -0.4531 -0.0914  0.4699
16342TIP3    H170441   4.566   5.476  13.448 -0.0438 -0.3572 -0.9173
16342TIP3    H270442   4.451   5.568  13.414 -0.4087 -0.4336  0.0751
16343TIP3   OH270443   6.188   5.341   1.462 -0.4535 -0.4799 -0.4710
16343TIP3    H170444   6.245   5.396   1.409  0.8298 -2.7782 -1.5588
16343TIP3    H270445   6.227   5.344   1.550 -0.6512  0.6654 -0.4124
16344TIP3   OH270446   3.827   1.030  16.371  0.8050 -0.4272  0.0316
16344TIP3    H170447   3.748   1.071  16.336  0.8322 -0.2721  0.1486
16344TIP3    H270448   3.796   0.952  16.416  0.8754 -1.1880 -1.2148
16345TIP3   OH270449   2.093   2.046   2.603 -0.4382 -0.4382  0.4656
16345TIP3    H170450   2.061   2.124   2.558  0.7670 -0.4065 -0.3680
16345TIP3    H270451   2.128   2.078   2.686  0.0320 -0.0897  0.1358
16346TIP3   OH270452   2.343   5.678   5.198 -0.1274  0.2755  0.1790
16346TIP3    H170453   2.375   5.602   5.149  1.0281  0.5878  0.4318
16346TIP3    H270454   2.248   5.675   5.188 -0.1125 -1.3355  0.3715
16347TIP3   OH270455   6.690   6.056  11.357 -0.0912 -0.2786  0.0376
16347TIP3    H170456   6.608   6.076  11.310  0.1737 -1.6861 -1.0769
16347TIP3    H270457   6.685   6.108  11.437 -1.8223  0.0810 -0.2770
16348TIP3   OH270458   1.476   2.625  15.854  0.4648 -0.2014  0.2826
16348TIP3    H170459   1.452   2.599  15.942  1.0347 -0.3368  0.4053
16348TIP3    H270460   1.556   2.676  15.865  1.3043 -1.3660 -0.2662
16349TIP3   OH270461   2.193   5.727  17.173 -0.1490 -0.0642 -0.7609
16349TIP3    H170462   2.156   5.639  17.171  1.7972 -0.8905 -0.5267
16349TIP3    H270463   2.223   5.743  17.084  0.1736  0.0765 -0.6264
16350TIP3   OH270464   2.714   6.240  11.769  0.2319  0.0663 -0.0743
16350TIP3    H170465   2.695   6.295  11.693 -2.3463 -1.0788 -0.3151
16350TIP3    H270466   2.647   6.264  11.833 -0.4017 -2.1792  0.1311
16351TIP3   OH270467   1.587   3.435  12.411 -0.4088  0.2488  0.0402
16351TIP3    H170468   1.532   3.434  12.332  1.2540 -0.2914 -1.1360
16351TIP3    H270469   1.642   3.357  12.403 -0.2074  0.2080  1.7386
16352TIP3   OH270470   3.897   0.518   1.348  0.2260 -0.5956 -0.3272
16352TIP3    H170471   3.872   0.447   1.408  1.3187  0.0310  0.8838
16352TIP3    H270472   3.831   0.585   1.361 -1.4030 -1.7631 -2.2170
16353TIP3   OH270473   0.610   3.831  16.985 -0.1630 -0.6941 -1.1558
16353TIP3    H170474   0.527   3.877  16.979  0.7793  0.8698 -2.5127
16353TIP3    H270475   0.606   3.785  17.069 -0.9791  2.1536  0.4086
16354TIP3   OH270476   2.971   3.323  12.985 -0.2916 -0.2006 -0.2008
16354TIP3    H170477   3.064   3.318  12.960 -0.5817  0.6022 -1.4766
16354TIP3    H270478   2.960   3.412  13.018 -0.4233 -0.5667  0.7556
16355TIP3   OH270479   4.122   2.675  12.182  0.0956  0.3595  0.2662
16355TIP3    H170480   4.115   2.656  12.088  1.9684  0.3355  0.1263
16355TIP3    H270481   4.099   2.593  12.225  0.2382  0.0836 -0.1864
16356TIP3   OH270482   0.420   0.408   1.633  0.5105 -0.3194 -0.0244
16356TIP3    H170483   0.490   0.373   1.578  1.0361 -0.3012  0.6352
16356TIP3    H270484   0.404   0.496   1.598  1.0504 -0.1946  0.0346
16357TIP3   OH270485   1.410   5.833   2.237  0.0686  0.0586 -0.1664
16357TIP3    H170486   1.353   5.889   2.288 -1.6253 -0.9071 -0.9519
16357TIP3    H270487   1.361   5.751   2.227  3.0747 -2.1673  2.2493
16358TIP3   OH270488   6.646   4.933   0.475  0.1816  0.4058 -0.4343
16358TIP3    H170489   6.599   5.011   0.505  0.4149 -0.0734  1.2503
16358TIP3    H270490   6.737   4.950   0.499  0.1727 -0.5432  0.2781
16359TIP3   OH270491   2.563   4.563  15.111  0.3382 -0.0156 -0.1518
16359TIP3    H170492   2.602   4.584  15.196 -0.0185  1.3323 -0.3092
16359TIP3    H270493   2.481   4.614  15.109 -0.6520 -1.5994 -0.4741
16360TIP3   OH270494   2.242   0.646   3.769  0.2229 -0.4348  0.3446
16360TIP3    H170495   2.279   0.617   3.852  0.2056  0.5833  0.7134
16360TIP3    H270496   2.221   0.739   3.783  1.6879  0.1721 -1.3056
16361TIP3   OH270497   4.714   6.114   0.773 -0.3800  0.2638  0.0638
16361TIP3    H170498   4.708   6.210   0.778  1.0241  0.3418  0.4249
16361TIP3    H270499   4.796   6.098   0.727 -0.1197 -0.7785  0.8762
16362TIP3   OH270500   3.028   6.572   5.398  0.5952  0.4380 -0.3762
16362TIP3    H170501   3.005   6.480   5.386 -1.4934  0.9242 -0.2496
16362TIP3    H270502   3.041   6.582   5.492  1.8466  0.0675 -0.4935
16363TIP3   OH270503   4.738   4.064  13.125 -0.3444 -1.1765 -0.0560
16363TIP3    H170504   4.805   4.006  13.162  1.0045 -0.6852 -1.6412
16363TIP3    H270505   4.727   4.032  13.035 -2.1530 -1.1476  0.1323
16364TIP3   OH270506   4.222   4.271   1.685  0.2527 -0.6598  0.4207
16364TIP3    H170507   4.275   4.310   1.615  0.3937 -1.0732  0.2950
16364TIP3    H270508   4.286   4.234   1.746  0.1585  0.5322  1.2626
16365TIP3   OH270509   0.449   2.881  11.682  0.3918 -0.0697  0.4477
16365TIP3    H170510   0.380   2.867  11.617 -1.0812 -0.1095  1.9992
16365TIP3    H270511   0.450   2.976  11.696  0.8173 -0.0446  0.2551
16366TIP3   OH270512   4.103   6.024   1.879  0.1001 -1.1404  0.3995
16366TIP3    H170513   4.117   5.979   1.963  0.6918 -2.3733 -0.3434
16366TIP3    H270514   4.008   6.032   1.872  0.0755 -0.0337  1.6896
16367TIP3   OH270515   4.057   1.441   2.611  0.2203 -0.6895 -0.3230
16367TIP3    H170516   3.970   1.475   2.631  0.3227  0.3489 -1.5740
16367TIP3    H270517   4.070   1.461   2.518  1.0946 -2.3870 -0.5901
16368TIP3   OH270518   2.653   4.328   2.351  1.0492  0.1253  0.8772
16368TIP3    H170519   2.577   4.385   2.357  1.7925  1.0531  1.4854
16368TIP3    H270520   2.722   4.373   2.400  1.8742 -0.9002  0.6845
16369TIP3   OH270521   3.008   6.471   2.011 -0.6748 -0.2835 -0.3779
16369TIP3    H170522   2.946   6.535   1.976  0.3552  1.3953  0.8354
16369TIP3    H270523   3.039   6.510   2.093  1.0624 -1.6700 -0.3683
16370TIP3   OH270524   4.408   0.934   5.115 -0.9457  0.2176 -0.4870
16370TIP3    H170525   4.350   0.976   5.051 -0.7705  0.0953 -0.7272
16370TIP3    H270526   4.366   0.849   5.132 -0.7974  0.0941 -0.7242
16371TIP3   OH270527   0.860   0.451   2.043 -0.1956 -0.0522 -0.2053
16371TIP3    H170528   0.869   0.477   1.952  0.8764  0.8853  0.1495
16371TIP3    H270529   0.767   0.431   2.054 -0.3478 -0.0522 -1.4634
16372TIP3   OH270530   5.193   1.789   0.271  0.0461  0.1820  0.2864
16372TIP3    H170531   5.155   1.819   0.354  0.4356 -0.6612  0.7743
16372TIP3    H270532   5.287   1.782   0.288 -0.0128 -1.1667  0.1535
16373TIP3   OH270533   1.102   4.968   5.676  0.1371  0.9272 -0.1839
16373TIP3    H170534   1.113   4.920   5.594  0.9342  1.1927 -0.2359
16373TIP3    H270535   1.049   4.911   5.731 -1.2575  1.1545 -1.2361
16374TIP3   OH270536   0.430   6.239  11.756  0.6891 -0.0445  0.4905
16374TIP3    H170537   0.359   6.197  11.708 -0.3795  2.4811 -0.1724
16374TIP3    H270538   0.421   6.205  11.846 -2.7897  1.9777  0.9618
16375TIP3   OH270539   2.780   0.469   0.272 -0.0636  0.5914 -0.2124
16375TIP3    H170540   2.852   0.523   0.238  0.0712  2.6509  3.1794
16375TIP3    H270541   2.706   0.490   0.215  1.7604 -1.1101 -3.3812
16376TIP3   OH270542   5.021   4.969   3.698 -0.2181 -0.1875  0.7800
16376TIP3    H170543   4.965   5.009   3.632  1.8102  0.6433 -0.4845
16376TIP3    H270544   4.963   4.911   3.747 -2.2318  0.8683 -0.2909
16377TIP3   OH270545   0.607   4.783  16.887  0.1323  0.0761  0.1316
16377TIP3    H170546   0.554   4.816  16.960  0.7583  1.7332 -0.1439
16377TIP3    H270547   0.544   4.735  16.832 -0.7059  0.4003  0.7994
16378TIP3   OH270548   1.970   0.802   0.672 -0.2500 -0.5076 -0.1935
16378TIP3    H170549   1.947   0.710   0.662 -0.0886 -0.4083 -1.6196
16378TIP3    H270550   2.065   0.805   0.657 -0.3538 -0.0309 -0.7918
16379TIP3   OH270551   4.918   1.188   5.691  0.4357  0.4963 -0.6194
16379TIP3    H170552   4.908   1.239   5.772  1.2194  1.6933 -1.2728
16379TIP3    H270553   4.831   1.188   5.652  0.1645  0.3285 -0.0182
16380TIP3   OH270554   1.981   3.762   0.189 -0.5146 -0.0509  0.2443
16380TIP3    H170555   1.980   3.857   0.202  0.3763  0.1414 -1.0309
16380TIP3    H270556   2.074   3.739   0.194 -0.8174 -1.0026  1.5666
16381TIP3   OH270557   6.460   2.896  12.121  0.0067  0.0606 -0.4460
16381TIP3    H170558   6.553   2.874  12.126 -0.1992 -1.0310 -1.2936
16381TIP3    H270559   6.421   2.826  12.067 -1.0054  1.4098 -1.5062
16382TIP3   OH270560   5.453   4.384   2.099 -0.2130 -0.7053  0.1445
16382TIP3    H170561   5.415   4.366   2.013 -3.1209  4.3924  0.1127
16382TIP3    H270562   5.380   4.373   2.160  0.3975  0.8394  1.2080
16383TIP3   OH270563   2.796   2.496   3.210 -0.0727 -0.1507 -0.5118
16383TIP3    H170564   2.889   2.504   3.233  0.3013 -1.9093 -1.3127
16383TIP3    H270565   2.784   2.403   3.193 -2.1402 -0.0168  0.1535
16384TIP3   OH270566   5.869   5.246   0.877 -0.1833 -0.0582 -0.0856
16384TIP3    H170567   5.912   5.315   0.826  0.8720 -1.4007 -1.0527
16384TIP3    H270568   5.787   5.229   0.831 -2.1369  2.8995  2.0701
16385TIP3   OH270569   3.520   2.791  14.561 -0.7697 -0.0677 -0.5023
16385TIP3    H170570   3.519   2.737  14.640 -2.3371  0.5690 -0.0723
16385TIP3    H270571   3.555   2.733  14.493  2.6258  0.0019  1.0781
16386TIP3   OH270572   3.930   1.007   3.899  0.4288 -0.5491  0.2043
16386TIP3    H170573   3.920   0.945   3.827  0.7654  0.3306 -0.6016
16386TIP3    H270574   3.867   1.077   3.879  0.9671  0.0043  0.4347
16387TIP3   OH270575   3.206   2.018  11.583 -0.2150 -0.2144 -0.5343
16387TIP3    H170576   3.186   1.925  11.574 -0.3983 -0.2547  0.2396
16387TIP3    H270577   3.143   2.049  11.648  0.8445  0.1189  0.3308
16388TIP3   OH270578   3.638   3.974  16.583 -0.6299  0.2877  0.3655
16388TIP3    H170579   3.547   3.947  16.579 -0.0537 -1.8145  0.6681
16388TIP3    H270580   3.684   3.899  16.622  1.4987  0.5996 -1.4387
16389TIP3   OH270581   6.638   0.944  15.942  0.5397  0.3253  0.0731
16389TIP3    H170582   6.565   0.953  15.880  1.6509  2.5089 -0.9886
16389TIP3    H270583   6.700   0.886  15.898 -0.6639 -1.7891  1.1124
16390TIP3   OH270584   1.663   0.935  16.749  0.4402 -0.1437 -0.5563
16390TIP3    H170585   1.733   0.934  16.683  1.5778 -0.3986  0.6342
16390TIP3    H270586   1.682   0.858  16.804 -0.9562 -0.3877 -0.4034
16391TIP3   OH270587   2.059   5.167   3.511 -0.2016  0.6308  0.2011
16391TIP3    H170588   2.036   5.172   3.418  3.0586 -0.9881 -0.7767
16391TIP3    H270589   2.101   5.251   3.530  0.8272  0.2465 -0.3210
16392TIP3   OH270590   1.866   6.355   5.922  0.3758 -0.1505 -0.1082
16392TIP3    H170591   1.919   6.295   5.870  1.0399 -0.2266  0.6297
16392TIP3    H270592   1.919   6.370   6.001 -0.2607  0.5648  0.1868
16393TIP3   OH270593   2.408   5.460  14.278 -0.4962 -0.2198  0.0686
16393TIP3    H170594   2.455   5.413  14.210 -0.5427 -0.1033 -0.0465
16393TIP3    H270595   2.460   5.449  14.357  1.5887  2.8106 -0.7837
16394TIP3   OH270596   5.746   6.008  10.931 -0.4450 -0.4073 -0.4568
16394TIP3    H170597   5.683   6.031  10.999  0.1147  0.9406 -0.3840
16394TIP3    H270598   5.701   6.028  10.849 -0.5573 -0.6051 -0.4445
16395TIP3   OH270599   5.815   6.232  13.599 -0.2544 -0.6339  0.2185
16395TIP3    H170600   5.801   6.326  13.608  0.9805 -0.3826 -0.2665
16395TIP3    H270601   5.736   6.200  13.555 -0.9032  0.0887  0.8530
16396TIP3   OH270602   0.428   0.215   5.266 -0.4291 -0.1997 -0.3796
16396TIP3    H170603   0.338   0.232   5.238  0.1110  1.9618 -0.8877
16396TIP3    H270604   0.434   0.255   5.353 -0.2902 -1.3980  0.1744
16397TIP3   OH270605   1.338   2.257  10.955 -0.0287 -0.3139  0.1038
16397TIP3    H170606   1.370   2.185  10.900 -0.5264 -0.2147 -0.3224
16397TIP3    H270607   1.288   2.312  10.894 -1.0381 -0.4891  0.7771
16398TIP3   OH270608   3.842   5.714  11.561  0.4739 -0.2398  0.1995
16398TIP3    H170609   3.778   5.643  11.552 -1.0992  1.4829 -2.5585
16398TIP3    H270610   3.892   5.711  11.480  0.1659  2.0265 -0.0871
16399TIP3   OH270611   3.974   1.001  10.975 -0.6414  0.2790 -0.1179
16399TIP3    H170612   4.031   1.031  10.904  0.9707  0.4003  1.1810
16399TIP3    H270613   3.914   1.074  10.990 -0.7131  0.4222 -1.0465
16400TIP3   OH270614   4.629   6.344   2.831  1.0850  0.3242  0.2915
16400TIP3    H170615   4.714   6.329   2.787  0.2225 -0.0147 -1.3065
16400TIP3    H270616   4.602   6.430   2.801 -0.8627 -1.0913 -2.1594
16401TIP3   OH270617   4.920   3.119  13.422  0.3130 -0.3223  0.9203
16401TIP3    H170618   4.996   3.099  13.367 -0.7481  1.2600 -1.2137
16401TIP3    H270619   4.954   3.181  13.487  0.5699  1.6311 -0.9921
16402TIP3   OH270620   0.435   3.174  15.219 -0.2822  0.4920 -0.5003
16402TIP3    H170621   0.360   3.183  15.277 -0.5917 -0.5209 -0.7291
16402TIP3    H270622   0.427   3.246  15.157 -0.3756  1.1155  0.2347
16403TIP3   OH270623   2.876   1.004  10.914 -0.3504 -0.1757 -0.0624
16403TIP3    H170624   2.851   1.096  10.922 -0.0002  0.0680 -1.6746
16403TIP3    H270625   2.881   0.989  10.820  3.3526 -0.7967  0.1584
16404TIP3   OH270626   0.998   6.646   1.119 -0.1108 -0.0408 -0.0639
16404TIP3    H170627   1.005   6.551   1.120 -2.0513 -0.1889  0.9044
16404TIP3    H270628   0.905   6.664   1.106 -0.0203  1.6976  1.4110
16405TIP3   OH270629   6.657   0.930  14.653  0.5042 -0.1343 -0.1188
16405TIP3    H170630   6.665   1.021  14.680 -1.1862  0.4518 -1.4556
16405TIP3    H270631   6.687   0.929  14.562 -0.2838 -0.7334 -0.3802
16406TIP3   OH270632   3.206   3.246   0.796  0.5858 -0.5140  0.7139
16406TIP3    H170633   3.164   3.169   0.833 -0.9545 -0.8700 -1.6803
16406TIP3    H270634   3.133   3.305   0.774  1.5921  0.5711  0.2377
16407TIP3   OH270635   5.103   5.884  12.962  0.5007  0.2796  0.1124
16407TIP3    H170636   5.040   5.955  12.957  1.3818  1.1553  1.1286
16407TIP3    H270637   5.079   5.836  13.041  0.0192 -0.4525 -0.4706
16408TIP3   OH270638   4.480   3.944  12.641  0.4695 -0.0137  0.3369
16408TIP3    H170639   4.559   3.919  12.594 -0.3968  2.3833 -2.5223
16408TIP3    H270640   4.412   3.948  12.575 -1.1262  2.0335  2.0050
16409TIP3   OH270641   6.741   5.624   4.514  0.2751  0.0422  0.2168
16409TIP3    H170642   6.776   5.629   4.425 -0.9764 -0.5236 -0.3246
16409TIP3    H270643   6.687   5.544   4.514 -1.8302  1.4244  0.6966
16410TIP3   OH270644   6.423   0.508  14.627  0.2330  0.1084 -0.0261
16410TIP3    H170645   6.410   0.595  14.587 -2.8544 -0.5072 -0.4793
16410TIP3    H270646   6.431   0.525  14.720 -1.0540  0.8431 -0.0400
16411TIP3   OH270647   2.472   0.206   4.924  0.2596  0.6854  0.0161
16411TIP3    H170648   2.427   0.201   5.008  0.0944 -0.3164 -0.1202
16411TIP3    H270649   2.563   0.180   4.944  0.6696  2.2483  0.2098
16412TIP3   OH270650   4.610   1.464   4.301 -0.5067  0.2208  0.2432
16412TIP3    H170651   4.601   1.558   4.320 -0.2042  0.7526 -2.0447
16412TIP3    H270652   4.523   1.437   4.271 -0.0337  0.3264 -1.2760
16413TIP3   OH270653   3.265   2.103   3.268  0.2238 -0.4126 -0.3432
16413TIP3    H170654   3.293   2.194   3.283  2.9742 -1.2993  0.1734
16413TIP3    H270655   3.295   2.083   3.180  2.2133 -1.7037  0.5869
16414TIP3   OH270656   4.446   5.912   0.735  0.5348 -0.3658  0.3089
16414TIP3    H170657   4.355   5.940   0.745  0.4642 -0.3751 -0.3294
16414TIP3    H270658   4.443   5.841   0.671  1.1322  0.3901 -0.5737
16415TIP3   OH270659   5.510   1.710   4.598  0.1345 -0.0006 -0.3174
16415TIP3    H170660   5.512   1.801   4.629  0.2999  0.1331 -0.7082
16415TIP3    H270661   5.418   1.685   4.601  0.2757 -0.3554  1.3113
16416TIP3   OH270662   3.159   0.544   4.417 -0.8054 -0.1834 -0.1849
16416TIP3    H170663   3.134   0.555   4.509 -1.9472 -2.4864 -0.1799
16416TIP3    H270664   3.109   0.611   4.370  1.4186  2.4367  1.0746
16417TIP3   OH270665   1.525   3.344  14.703  0.3284  0.7720 -0.4949
16417TIP3    H170666   1.604   3.393  14.682  1.1240 -0.4191 -0.3078
16417TIP3    H270667   1.554   3.275  14.762 -0.3466 -1.4157 -2.6433
16418TIP3   OH270668   0.126   1.544  16.668  0.7322 -0.7851  0.2942
16418TIP3    H170669   0.121   1.521  16.761  0.7945 -0.6361  0.3351
16418TIP3    H270670   0.203   1.498  16.636  1.8020  0.6489  0.7433
16419TIP3   OH270671   6.204   3.427  16.895 -0.4227  0.3471  0.2746
16419TIP3    H170672   6.152   3.447  16.973 -2.1260 -0.0042 -0.7667
16419TIP3    H270673   6.227   3.513  16.860 -0.6404  0.5029  0.5086
16420TIP3   OH270674   4.606   5.228   4.813 -0.1359  0.4287 -0.1328
16420TIP3    H170675   4.644   5.310   4.781  2.1196 -0.3982  0.3195
16420TIP3    H270676   4.629   5.163   4.747  0.7772 -0.4193  0.9833
16421TIP3   OH270677   4.546   1.881   2.313  0.2819 -0.2870  0.2777
16421TIP3    H170678   4.483   1.950   2.335 -0.5646 -0.6224 -1.0552
16421TIP3    H270679   4.586   1.910   2.232  1.8326 -0.1077  1.0903
16422TIP3   OH270680   2.668   2.080  11.860 -0.1649  0.1263 -0.6343
16422TIP3    H170681   2.704   2.123  11.937 -0.9070  2.3954 -1.5058
16422TIP3    H270682   2.729   2.010  11.841  0.0143 -0.5085  2.0274
16423TIP3   OH270683   3.475   5.306  15.165  0.1677 -0.3171 -0.0113
16423TIP3    H170684   3.443   5.251  15.236  0.3835 -2.0574 -1.2163
16423TIP3    H270685   3.570   5.301  15.172  0.1897  0.0742 -0.0087
16424TIP3   OH270686   5.634   6.258   0.693 -0.2819  0.0114 -0.1392
16424TIP3    H170687   5.554   6.279   0.645  0.0832  1.5026 -0.1307
16424TIP3    H270688   5.627   6.309   0.774  0.2620 -0.5391  0.2596
16425TIP3   OH270689   2.077   1.017  15.863 -0.1972  0.1418 -0.1479
16425TIP3    H170690   2.110   1.104  15.885 -1.0930  0.6669 -0.8640
16425TIP3    H270691   2.059   1.021  15.769 -2.1453 -0.1799  0.1967
16426TIP3   OH270692   3.301   6.099  13.057  0.1726  0.0600 -0.9508
16426TIP3    H170693   3.227   6.156  13.079  0.5655 -0.2141  1.1840
16426TIP3    H270694   3.314   6.046  13.136  2.4273 -0.1305 -1.4308
16427TIP3   OH270695   0.186   6.492   0.462 -0.9084 -0.0642 -0.0163
16427TIP3    H170696   0.200   6.436   0.386 -0.6782  0.4979 -0.3865
16427TIP3    H270697   0.125   6.560   0.432  2.1380  2.4115 -0.8246
16428TIP3   OH270698   3.137   1.170   1.690 -0.4374 -0.3885  0.6263
16428TIP3    H170699   3.181   1.237   1.637 -1.7670 -0.7885 -0.9968
16428TIP3    H270700   3.157   1.195   1.780  2.0146  0.1860 -0.0421
16429TIP3   OH270701   2.182   1.010  11.303  0.6822  0.6332 -0.3763
16429TIP3    H170702   2.177   1.070  11.377  0.2868  0.3314 -0.1584
16429TIP3    H270703   2.122   0.939  11.325  2.0127 -0.4342 -0.0826
16430TIP3   OH270704   3.042   4.040  15.375  0.0676 -0.1174  0.0916
16430TIP3    H170705   3.136   4.022  15.366  0.5135  1.0275  2.1064
16430TIP3    H270706   3.037   4.134  15.393 -1.5135 -0.0905 -0.3590
16431TIP3   OH270707   1.848   2.690  13.398 -0.3912 -0.6283 -0.1896
16431TIP3    H170708   1.759   2.710  13.426  0.4340  2.7743  0.2498
16431TIP3    H270709   1.899   2.766  13.426  1.9763 -0.8395 -3.6887
16432TIP3   OH270710   6.326   4.885   2.054  0.8098  0.3507 -0.6185
16432TIP3    H170711   6.303   4.864   2.145  0.8925  0.7033 -0.5145
16432TIP3    H270712   6.274   4.825   2.001  0.6959  0.2043 -0.3391
16433TIP3   OH270713   4.465   0.431   2.864 -0.1173 -0.5995 -0.0535
16433TIP3    H170714   4.411   0.424   2.943 -1.1589  1.0975 -0.5940
16433TIP3    H270715   4.406   0.412   2.792  0.4920 -0.7312 -0.5248
16434TIP3   OH270716   2.399   2.982  16.985  0.0645 -0.1888  0.0024
16434TIP3    H170717   2.382   3.075  16.967 -1.3583 -0.3895  0.1884
16434TIP3    H270718   2.311   2.945  16.999  0.8555 -0.6092  4.6151
16435TIP3   OH270719   5.412   4.256   1.825  0.1236 -0.0885  0.2134
16435TIP3    H170720   5.341   4.302   1.780  0.8326  0.5228 -0.2863
16435TIP3    H270721   5.490   4.275   1.773  0.2880 -2.5799 -0.5305
16436TIP3   OH270722   2.763   1.051   0.865  0.6145  0.0033  0.5392
16436TIP3    H170723   2.855   1.055   0.894  1.7466 -2.3543 -2.4598
16436TIP3    H270724   2.734   0.963   0.891 -0.2918  0.1582  0.0397
16437TIP3   OH270725   3.410   6.751   0.983 -0.6472 -0.0538  0.2937
16437TIP3    H170726   3.491   6.772   0.937 -0.7727  2.5346  1.1595
16437TIP3    H270727   3.405   6.655   0.979  1.2186 -0.1281 -1.8086
16438TIP3   OH270728   5.378   1.464  14.348 -0.3157 -0.2652 -0.0259
16438TIP3    H170729   5.409   1.376  14.327  1.3509  0.3431 -0.1286
16438TIP3    H270730   5.412   1.481  14.436  0.1356  0.6221 -0.3669
16439TIP3   OH270731   3.482   4.025  11.087 -0.0407  0.2630 -0.4619
16439TIP3    H170732   3.434   4.034  11.169  0.1217 -1.2742 -0.1967
16439TIP3    H270733   3.562   4.077  11.101 -1.4429  2.5940 -0.8097
16440TIP3   OH270734   1.934   1.742  12.998  0.0473  0.3323 -0.1689
16440TIP3    H170735   1.960   1.703  13.082  2.1898  1.4159 -0.3076
16440TIP3    H270736   1.847   1.778  13.015 -0.1623 -0.7435  1.1624
16441TIP3   OH270737   4.176   5.824   2.068 -0.5648 -0.0114 -0.0946
16441TIP3    H170738   4.141   5.805   2.155 -1.2851  0.7708 -0.2038
16441TIP3    H270739   4.247   5.761   2.056 -1.2036 -0.8686  0.5962
16442TIP3   OH270740   3.483   1.271  13.054  0.3588  0.4921 -0.4316
16442TIP3    H170741   3.488   1.281  13.149 -1.0095  1.3677 -0.4450
16442TIP3    H270742   3.570   1.297  13.023  0.8860 -0.0190  0.5904
16443TIP3   OH270743   3.108   5.608   2.095  0.1909 -0.3817  0.5514
16443TIP3    H170744   3.072   5.534   2.144  0.7389 -1.2935 -0.3966
16443TIP3    H270745   3.161   5.567   2.026 -2.0146  0.7857 -1.9339
16444TIP3   OH270746   1.453   4.252   6.644 -0.3448 -0.4420  0.0468
16444TIP3    H170747   1.434   4.276   6.553  0.1370 -3.4964 -0.9317
16444TIP3    H270748   1.548   4.244   6.648 -0.3479 -0.1336  0.8780
16445TIP3   OH270749   2.730   1.222   5.314 -0.0544  0.2793  0.7532
16445TIP3    H170750   2.658   1.285   5.313 -0.5885 -0.3310 -0.3939
16445TIP3    H270751   2.804   1.270   5.353 -0.3776  1.6827 -0.3310
16446TIP3   OH270752   0.336   5.904   3.477 -0.3900  0.1590 -0.1916
16446TIP3    H170753   0.384   5.974   3.434 -1.6067  1.1145 -0.0342
16446TIP3    H270754   0.291   5.946   3.550 -1.1841 -0.7594 -0.1289
16447TIP3   OH270755   1.757   2.487  13.595  0.4006 -0.2402 -0.3741
16447TIP3    H170756   1.778   2.469  13.504  0.5972 -0.7934 -0.2169
16447TIP3    H270757   1.811   2.426  13.645  1.1308  0.8241  0.1549
16448TIP3   OH270758   1.202   6.402   2.374 -0.4657  0.4440  0.1375
16448TIP3    H170759   1.248   6.439   2.450  1.2321  1.3321 -1.2888
16448TIP3    H270760   1.143   6.472   2.346 -0.1541  0.5883 -0.1519
16449TIP3   OH270761   2.627   2.326   3.575 -0.1274 -0.5468 -0.3888
16449TIP3    H170762   2.630   2.377   3.656 -2.9956  0.9613 -1.1632
16449TIP3    H270763   2.717   2.292   3.564  0.7453  0.7410  2.4118
16450TIP3   OH270764   3.852   1.683  16.069  0.2533  0.5730 -0.0786
16450TIP3    H170765   3.888   1.660  16.155  0.5214 -1.6703 -0.7562
16450TIP3    H270766   3.900   1.762  16.043  0.5204  0.9829  1.5967
16451TIP3   OH270767   4.709   2.758   0.101 -0.5874  0.3381  0.0633
16451TIP3    H170768   4.686   2.835   0.049 -2.0924  0.1050  0.3637
16451TIP3    H270769   4.802   2.771   0.123 -0.5454  1.5361 -0.7684
16452TIP3   OH270770   3.572   3.351  12.777  0.5106 -0.2852 -0.4057
16452TIP3    H170771   3.559   3.323  12.686 -1.1142 -0.3031 -0.1744
16452TIP3    H270772   3.639   3.419  12.771 -0.3769  0.5023 -1.7617
16453TIP3   OH270773   3.418   0.671   3.690  0.5786  0.2193 -0.3341
16453TIP3    H170774   3.390   0.759   3.713 -2.0118 -0.5612 -0.3296
16453TIP3    H270775   3.414   0.622   3.773 -0.0488 -0.4115 -0.7293
16454TIP3   OH270776   3.412   1.729   5.900 -0.1075 -0.1320 -0.6771
16454TIP3    H170777   3.387   1.732   5.993 -0.0572  0.7157 -0.6894
16454TIP3    H270778   3.331   1.752   5.854  0.0244  0.0186 -0.8273
16455TIP3   OH270779   1.528   3.035   2.738 -0.4288 -0.1956  0.2196
16455TIP3    H170780   1.527   2.940   2.739 -1.6645 -0.2541 -2.6970
16455TIP3    H270781   1.462   3.060   2.803 -1.2454 -1.3560 -0.1398
16456TIP3   OH270782   2.638   1.756   6.018 -0.6036 -0.2011 -0.0089
16456TIP3    H170783   2.603   1.843   5.999  1.6257  0.7303 -0.0215
16456TIP3    H270784   2.700   1.771   6.090 -0.4097 -1.8279  0.1655
16457TIP3   OH270785   6.272   1.104   0.038  0.8567 -0.6566 -0.9976
16457TIP3    H170786   6.197   1.093   0.097  1.2439  2.3457  0.1352
16457TIP3    H270787   6.252   1.047  -0.037 -2.5435 -0.0097 -0.6757
16458TIP3   OH270788   5.061   2.802   5.061  0.1789 -0.0571 -0.3675
16458TIP3    H170789   4.967   2.822   5.058 -0.0664 -1.3684 -1.8757
16458TIP3    H270790   5.104   2.886   5.046 -0.7458  0.4652 -0.1420
16459TIP3   OH270791   1.133   1.514  15.088 -0.2137 -0.0236 -0.2182
16459TIP3    H170792   1.180   1.434  15.111 -0.9468 -0.4915 -0.3427
16459TIP3    H270793   1.051   1.509  15.136  0.3869  1.4106  1.0023
16460TIP3   OH270794   4.554   3.215  14.251  0.2986  0.1001 -0.3793
16460TIP3    H170795   4.633   3.250  14.293 -0.4845  2.0002 -0.4466
16460TIP3    H270796   4.513   3.161  14.319  0.1737  1.4308  0.6247
16461TIP3   OH270797   3.626   3.775   1.666 -0.2444  0.1201  0.0950
16461TIP3    H170798   3.665   3.720   1.734 -0.2077  0.0248 -0.0032
16461TIP3    H270799   3.606   3.857   1.711 -0.9298 -0.2134  0.4129
16462TIP3   OH270800   6.753   0.486  13.075  0.2509  0.0952 -0.5500
16462TIP3    H170801   6.747   0.391  13.059  2.1856 -0.0699 -0.4494
16462TIP3    H270802   6.817   0.494  13.145  0.3391  1.5056 -0.7831
16463TIP3   OH270803   5.774   5.476   0.457 -0.0808  0.3378 -0.7251
16463TIP3    H170804   5.702   5.414   0.444 -2.5036  2.7368  0.5729
16463TIP3    H270805   5.761   5.542   0.389  1.5563  0.2486 -1.1426
16464TIP3   OH270806   4.752   6.183  14.561 -0.1391  0.0075  0.2554
16464TIP3    H170807   4.775   6.245  14.630 -1.4161  0.7470  0.0393
16464TIP3    H270808   4.757   6.235  14.480  0.7413 -0.6903 -0.1410
16465TIP3   OH270809   0.963   6.151  14.775  0.2055 -0.0819  0.0251
16465TIP3    H170810   0.929   6.063  14.757  0.0447 -0.2482  1.1572
16465TIP3    H270811   1.038   6.136  14.833 -0.8813  0.6441  1.6435
16466TIP3   OH270812   1.408   1.128   3.695  0.0408 -0.4448  0.3631
16466TIP3    H170813   1.484   1.076   3.670 -0.8722 -0.1085 -3.3186
16466TIP3    H270814   1.441   1.218   3.697  1.0248 -0.7576  4.3934
16467TIP3   OH270815   6.355   5.898   2.981 -0.0184 -0.6805 -0.3738
16467TIP3    H170816   6.306   5.844   3.044 -0.4489  0.5064  0.3174
16467TIP3    H270817   6.397   5.834   2.924 -0.6774 -1.7626  0.3150
16468TIP3   OH270818   3.464   6.712  16.204 -0.4084  0.2236 -0.1127
16468TIP3    H170819   3.536   6.769  16.231 -0.8823  1.1768 -0.8125
16468TIP3    H270820   3.400   6.719  16.274  0.4503 -1.1370  0.8224
16469TIP3   OH270821   5.158   4.099  16.760  0.1343  0.2822 -0.2654
16469TIP3    H170822   5.237   4.045  16.765 -1.2102 -2.0039 -2.3285
16469TIP3    H270823   5.165   4.145  16.677  0.2550  1.7075  0.5132
16470TIP3   OH270824   5.586   2.630  15.521  0.1498  0.1874  0.3110
16470TIP3    H170825   5.497   2.616  15.552 -0.4711  2.0429 -0.5125
16470TIP3    H270826   5.640   2.625  15.600 -1.2342  3.5071  1.5769
16471TIP3   OH270827   6.302   4.866  16.553 -0.0921  0.2740 -0.3861
16471TIP3    H170828   6.389   4.828  16.561  1.0642  3.0600  0.8697
16471TIP3    H270829   6.261   4.848  16.638 -0.3590 -0.0609 -0.5809
16472TIP3   OH270830   0.769   3.055   6.271  0.6134 -0.0051  0.1972
16472TIP3    H170831   0.698   3.011   6.317 -0.3332  0.2884 -0.9745
16472TIP3    H270832   0.757   3.148   6.292  0.4746  0.0766 -0.2477
16473TIP3   OH270833   4.420   6.035   3.181  0.0182  0.7584  0.6436
16473TIP3    H170834   4.330   6.009   3.201  0.8195 -2.5516  0.2440
16473TIP3    H270835   4.413   6.085   3.100 -1.5346  1.4757  1.1853
16474TIP3   OH270836   0.699   1.879   2.563  0.5198 -0.2103 -0.3403
16474TIP3    H170837   0.612   1.843   2.579  0.3614  0.2160 -0.2514
16474TIP3    H270838   0.759   1.812   2.596  0.2091  0.5830  1.9269
16475TIP3   OH270839   0.843   5.443  12.669  0.2107 -0.2070  0.3868
16475TIP3    H170840   0.841   5.355  12.629 -2.2921  0.6331 -1.4725
16475TIP3    H270841   0.927   5.480  12.641  0.5272 -1.3578 -0.2390
16476TIP3   OH270842   6.780   5.547   0.286  0.4138  0.5684  0.1906
16476TIP3    H170843   6.749   5.467   0.244  0.4581  0.4690  0.3525
16476TIP3    H270844   6.733   5.551   0.369 -0.2894  1.1811 -0.2170
16477TIP3   OH270845   1.380   3.934  15.984 -0.1138  0.0721  0.2466
16477TIP3    H170846   1.417   3.993  16.050 -1.0433  0.0604  0.7828
16477TIP3    H270847   1.452   3.875  15.962 -0.1025 -0.6542  2.0824
16478TIP3   OH270848   1.362   3.802   4.039 -0.3474 -0.8724  0.4553
16478TIP3    H170849   1.436   3.773   3.986  0.8473  1.9539  0.4604
16478TIP3    H270850   1.286   3.757   4.002  1.0967 -2.3566 -0.7826
16479TIP3   OH270851   5.147   4.225  17.096 -0.6494  0.0058 -0.0536
16479TIP3    H170852   5.216   4.159  17.096 -0.8685 -0.2433  1.7028
16479TIP3    H270853   5.183   4.297  17.148 -2.5170 -1.0158  2.7333
16480TIP3   OH270854   2.136   2.696   4.880 -0.4785  0.1491 -0.4739
16480TIP3    H170855   2.077   2.771   4.894 -0.5587  0.3660 -1.8766
16480TIP3    H270856   2.224   2.733   4.885 -0.5329  0.6712 -2.7753
16481TIP3   OH270857   2.087   6.056   0.317  0.2879 -0.2284 -0.1807
16481TIP3    H170858   2.001   6.063   0.275 -0.0418  1.7628  0.7660
16481TIP3    H270859   2.142   6.015   0.250 -1.4340 -1.7910 -0.7042
16482TIP3   OH270860   2.783   3.347   2.429  0.6132  0.0212 -0.0694
16482TIP3    H170861   2.738   3.419   2.473  0.4748  0.4943 -0.9791
16482TIP3    H270862   2.716   3.305   2.376  0.4799 -1.3516  1.1420
16483TIP3   OH270863   5.178   6.453  12.509  0.4001  0.0648  0.1131
16483TIP3    H170864   5.123   6.407  12.573  0.8734  2.0187  2.0018
16483TIP3    H270865   5.127   6.452  12.428 -0.2626 -2.3976  0.5293
16484TIP3   OH270866   2.728   3.420   3.028  0.3859 -0.1154 -0.7868
16484TIP3    H170867   2.768   3.487   2.972  0.2192  1.2236  0.6613
16484TIP3    H270868   2.636   3.417   3.000  0.3180  0.5037 -0.6461
16485TIP3   OH270869   4.811   1.678  12.377 -0.1750  0.2557 -0.0476
16485TIP3    H170870   4.756   1.753  12.399  0.3373 -0.0802  2.5655
16485TIP3    H270871   4.750   1.606  12.365 -0.5043  0.5432 -0.1090
16486TIP3   OH270872   1.493   4.448   0.592  0.4695 -0.4922 -0.4059
16486TIP3    H170873   1.582   4.414   0.586  0.0475 -1.4456 -1.4335
16486TIP3    H270874   1.481   4.497   0.510 -0.2239 -1.0749 -0.6631
16487TIP3   OH270875   3.948   5.354  13.048  0.3564  0.4449 -0.1953
16487TIP3    H170876   3.891   5.314  12.983 -1.4839  0.3179  1.4627
16487TIP3    H270877   4.005   5.283  13.077  1.4592  0.5871 -1.8947
16488TIP3   OH270878   4.172   6.388  14.627 -0.6108 -0.0329 -0.1074
16488TIP3    H170879   4.231   6.316  14.604 -0.0390  0.5940 -0.6522
16488TIP3    H270880   4.104   6.386  14.560  0.3389  0.9749 -1.1429
16489TIP3   OH270881   1.627   5.705   3.355 -0.2450  0.1226  0.4856
16489TIP3    H170882   1.608   5.704   3.261  0.8946  1.5750  0.2086
16489TIP3    H270883   1.594   5.621   3.388  1.1391 -1.2934 -1.5890
16490TIP3   OH270884   1.387   6.029   5.181  0.3917  0.5020  0.5055
16490TIP3    H170885   1.442   5.960   5.220  0.7975  0.7608  0.3968
16490TIP3    H270886   1.447   6.077   5.124 -0.7339 -1.2780 -2.2192
16491TIP3   OH270887   0.953   0.114   2.280  0.8086 -0.8903  0.1050
16491TIP3    H170888   0.924   0.205   2.283  1.5526 -0.6584  0.3452
16491TIP3    H270889   0.954   0.091   2.187  0.7642 -0.6057  0.0356
16492TIP3   OH270890   6.415   5.141  15.208  0.2384  0.9641  0.8377
16492TIP3    H170891   6.451   5.086  15.278 -1.0856  1.2086  1.7307
16492TIP3    H270892   6.385   5.079  15.142 -1.9405  0.5037  2.1721
16493TIP3   OH270893   3.927   2.023  13.927 -0.6559 -0.0116 -0.1206
16493TIP3    H170894   3.836   2.055  13.926 -0.7650 -0.2939 -1.8749
16493TIP3    H270895   3.974   2.085  13.871 -0.4122 -1.5812 -1.7016
16494TIP3   OH270896   3.644   2.048  14.044  1.0234  0.0533  0.2423
16494TIP3    H170897   3.645   2.027  14.137 -4.9894  1.5519  0.8424
16494TIP3    H270898   3.599   1.974  14.003 -1.3104  1.8727 -0.6045
16495TIP3   OH270899   3.698   2.743  10.997  0.0009  0.0785 -0.7072
16495TIP3    H170900   3.638   2.733  11.072 -1.5270  0.4068 -1.8565
16495TIP3    H270901   3.785   2.739  11.035 -0.7384 -1.6446  0.8770
16496TIP3   OH270902   4.007   2.822  16.874 -0.2178  0.1156 -0.2808
16496TIP3    H170903   3.950   2.749  16.898  0.5161 -0.3689  0.0058
16496TIP3    H270904   3.988   2.838  16.782 -0.3661 -0.4608 -0.3512
16497TIP3   OH270905   3.187   1.738   5.750  0.0009  0.0642  0.2243
16497TIP3    H170906   3.231   1.751   5.666  1.5096 -2.0515  0.6562
16497TIP3    H270907   3.151   1.649   5.744  0.1262 -0.0946  1.8300
16498TIP3   OH270908   6.433   2.500   5.888 -0.4080  0.5395  0.4077
16498TIP3    H170909   6.473   2.520   5.973  2.8141 -1.4388 -0.5379
16498TIP3    H270910   6.452   2.407   5.874 -0.6262  0.8995 -2.5872
16499TIP3   OH270911   6.340   6.148  15.396 -0.5723 -0.0396  0.5683
16499TIP3    H170912   6.318   6.055  15.398  0.3336 -0.2691  0.3794
16499TIP3    H270913   6.330   6.174  15.304 -0.0659 -0.1505  0.4769
16500TIP3   OH270914   0.419   1.794  13.677 -0.2798  0.0091 -0.0314
16500TIP3    H170915   0.381   1.767  13.593  1.4648 -2.0445 -0.2044
16500TIP3    H270916   0.398   1.722  13.736  0.1226  0.5995  0.8376
16501TIP3   OH270917   2.965   4.480  13.747 -0.4436  0.6961  0.1381
16501TIP3    H170918   2.932   4.562  13.781 -0.7402  0.3868  0.6063
16501TIP3    H270919   2.929   4.474  13.659 -1.1031  0.6674  0.4116
16502TIP3   OH270920   1.027   6.365  11.075 -0.4587 -0.1982  0.3179
16502TIP3    H170921   1.022   6.344  10.982  1.7625 -1.9601  0.5523
16502TIP3    H270922   1.115   6.400  11.086 -0.1285 -1.5256  2.0390
16503TIP3   OH270923   4.318   4.838  16.772 -0.3067 -0.1707  0.0759
16503TIP3    H170924   4.409   4.812  16.782  0.5420  1.8029 -2.2793
16503TIP3    H270925   4.279   4.771  16.716  1.2061  2.0342 -3.7572
16504TIP3   OH270926   1.899   3.791   3.753 -0.2596 -0.1538 -0.1214
16504TIP3    H170927   1.921   3.846   3.678  1.0356 -0.9650 -0.3513
16504TIP3    H270928   1.973   3.801   3.812 -1.6363  1.1245  1.4462
16505TIP3   OH270929   1.570   6.081  12.424 -0.7125 -0.3502 -0.5777
16505TIP3    H170930   1.633   6.023  12.380  0.2288 -0.9440  1.5028
16505TIP3    H270931   1.511   6.021  12.470  0.0563  0.3172  1.3004
16506TIP3   OH270932   5.234   3.199  11.272  0.5829 -0.3073  0.3242
16506TIP3    H170933   5.280   3.125  11.232  2.0715  1.4147 -1.2314
16506TIP3    H270934   5.299   3.237  11.332 -0.1994 -0.3156  1.1810
16507TIP3   OH270935   0.936   5.921  15.077 -0.1347  0.0254  0.8751
16507TIP3    H170936   1.013   5.972  15.054 -0.4298 -0.3058 -0.9240
16507TIP3    H270937   0.894   5.971  15.147  1.0935  0.7828  1.0873
16508TIP3   OH270938   1.051   2.373   0.084  0.5876 -0.7303 -0.4433
16508TIP3    H170939   0.980   2.424   0.044 -0.1293  0.0233  1.7122
16508TIP3    H270940   1.030   2.282   0.062 -0.6297 -0.4421 -0.5078
16509TIP3   OH270941   5.342   5.975  14.300 -0.3780  0.7571  0.0923
16509TIP3    H170942   5.347   6.038  14.372 -1.0435 -1.0794  1.8065
16509TIP3    H270943   5.261   5.927  14.317 -0.1826 -0.1583 -1.5219
16510TIP3   OH270944   2.563   0.115  15.029  0.5815  0.6515  0.1980
16510TIP3    H170945   2.555   0.064  15.110  0.3202  1.6159  0.7876
16510TIP3    H270946   2.618   0.062  14.972  0.0443 -0.4392  0.6827
16511TIP3   OH270947   3.583   0.026   4.854 -0.7302  0.1122 -0.3166
16511TIP3    H170948   3.556   0.084   4.926  2.7065 -0.7868  1.8150
16511TIP3    H270949   3.520  -0.046   4.856 -0.8496  0.2518  1.5899
16512TIP3   OH270950   5.476   6.324  10.471  0.5096  0.4286  0.3999
16512TIP3    H170951   5.561   6.283  10.455  0.4959  0.4509  0.2783
16512TIP3    H270952   5.417   6.284  10.408  0.4932  0.6250  0.2906
16513TIP3   OH270953   2.679   5.829  12.612  0.5833  0.2154 -0.5177
16513TIP3    H170954   2.698   5.859  12.700 -1.2377 -0.5355  0.1598
16513TIP3    H270955   2.645   5.906  12.566 -1.3518 -0.0710  0.3653
16514TIP3   OH270956   1.592   6.199   5.605  0.1393  0.6802  0.1179
16514TIP3    H170957   1.551   6.142   5.670 -2.2032  2.3437  0.1751
16514TIP3    H270958   1.677   6.160   5.589 -0.0068 -0.8490  2.7521
16515TIP3   OH270959   2.510   2.412  16.217 -0.6089 -0.9104 -0.2279
16515TIP3    H170960   2.511   2.376  16.128 -0.0624 -1.5864  0.0453
16515TIP3    H270961   2.509   2.334  16.273  2.4278 -0.5170  0.4188
16516TIP3   OH270962   4.311   3.210  11.935 -0.7213 -0.0860 -0.6749
16516TIP3    H170963   4.242   3.157  11.974  0.4945  0.5637  2.5648
16516TIP3    H270964   4.265   3.269  11.875 -2.8816 -0.3628  0.6404
16517TIP3   OH270965   4.819   4.006   0.474 -0.0492 -0.1051 -0.4752
16517TIP3    H170966   4.913   3.985   0.479 -0.3039 -0.9752  1.1745
16517TIP3    H270967   4.780   3.955   0.545 -1.7275  0.5609 -0.9035
16518TIP3   OH270968   4.993   0.735  15.343 -0.6884 -0.6234 -0.1919
16518TIP3    H170969   4.983   0.644  15.317 -0.2649 -0.3139 -1.4985
16518TIP3    H270970   4.909   0.776  15.320 -0.4530 -0.4363 -0.7486
16519TIP3   OH270971   5.104   1.512  11.871  0.0742 -0.5685  0.2411
16519TIP3    H170972   5.125   1.472  11.787  0.5070  0.2043 -0.0265
16519TIP3    H270973   5.184   1.502  11.922 -0.0291 -0.6138  0.3937
16520TIP3   OH270974   4.981   0.597  10.534  0.0322 -0.3663  0.4162
16520TIP3    H170975   4.976   0.676  10.587  1.1474 -1.9063  2.8925
16520TIP3    H270976   4.915   0.610  10.466  1.0830  3.2480 -0.0489
16521TIP3   OH270977   5.705   4.981  12.403 -0.0980  0.0746  0.1685
16521TIP3    H170978   5.759   4.904  12.384  0.7047  0.3385  1.3423
16521TIP3    H270979   5.706   5.032  12.322  0.6766 -0.3772 -0.1050
16522TIP3   OH270980   1.065   2.759  14.129 -0.7787 -0.1370 -0.8638
16522TIP3    H170981   0.984   2.810  14.135 -1.5856 -1.5186  0.2032
16522TIP3    H270982   1.131   2.822  14.102 -2.4677  0.7512 -3.1163
16523TIP3   OH270983   3.218   6.401  12.097  0.7739 -0.1197 -0.2567
16523TIP3    H170984   3.269   6.346  12.038  2.5552  0.1048  1.0417
16523TIP3    H270985   3.230   6.362  12.183 -2.0551 -0.6299 -0.0335
16524TIP3   OH270986   3.768   1.339   5.187 -0.5938  0.1422 -0.4594
16524TIP3    H170987   3.757   1.432   5.206 -0.3274 -0.0661  0.7844
16524TIP3    H270988   3.830   1.308   5.254 -0.0043 -0.7394 -1.3974
16525TIP3   OH270989   5.892   0.035  11.557  0.0615 -0.3254  0.5513
16525TIP3    H170990   5.931   0.110  11.603  0.2281 -0.5318  0.7442
16525TIP3    H270991   5.847   0.074  11.482  1.1427 -0.1441 -0.0056
16526TIP3   OH270992   2.906   2.608   3.665 -0.1174  0.4169 -0.1118
16526TIP3    H170993   2.839   2.564   3.613  2.1340 -1.2869 -1.6618
16526TIP3    H270994   2.931   2.544   3.731  1.3469  0.3077 -0.7581
16527TIP3   OH270995   6.423   3.827  16.586 -0.5619  0.3676 -0.3441
16527TIP3    H170996   6.410   3.913  16.627  2.5890  1.6922 -1.9450
16527TIP3    H270997   6.507   3.796  16.622  0.4517 -0.0696 -3.0025
16528TIP3   OH270998   2.903   5.720  13.953 -0.4863  0.8713  0.0084
16528TIP3    H170999   2.971   5.756  14.009  1.0854 -0.2767 -1.1318
16528TIP3    H271000   2.922   5.755  13.866 -0.9549  0.0357 -0.4378
16529TIP3   OH271001   6.637   6.088   4.651 -0.3014 -0.3494 -0.1222
16529TIP3    H171002   6.684   6.006   4.639  2.6220  1.3107 -0.5631
16529TIP3    H271003   6.644   6.133   4.567  0.0919  1.2791  0.7436
16530TIP3   OH271004   4.246   2.863  11.763  0.0960  0.4404  0.1981
16530TIP3    H171005   4.256   2.821  11.677  0.0536  1.1578 -0.1638
16530TIP3    H271006   4.151   2.865  11.777  0.1241 -0.0266  0.4348
16531TIP3   OH271007   4.863   4.833   4.120 -0.8648  0.3039 -0.5573
16531TIP3    H171008   4.880   4.875   4.204 -1.4770 -0.8175  0.1416
16531TIP3    H271009   4.780   4.870   4.090 -1.8590 -1.0272  0.4836
16532TIP3   OH271010   2.333   4.869   5.835  0.1147  0.0919  0.1306
16532TIP3    H171011   2.379   4.953   5.846 -0.5141  0.3371  1.0059
16532TIP3    H271012   2.392   4.804   5.872 -0.5709  0.5161  2.0966
16533TIP3   OH271013   1.511   2.793  15.233 -0.0318  0.6103  0.6520
16533TIP3    H171014   1.454   2.716  15.227  1.4505 -0.6395  1.8113
16533TIP3    H271015   1.495   2.828  15.320  0.0755  0.9612  0.5279
16534TIP3   OH271016   0.609   4.648   0.248 -0.2517 -0.3282  0.6521
16534TIP3    H171017   0.632   4.738   0.269  1.1630 -0.8958  1.6465
16534TIP3    H271018   0.656   4.629   0.167 -1.5757  0.2144 -0.2674
16535TIP3   OH271019   2.455   2.340  16.532 -0.2495 -0.2704  0.3772
16535TIP3    H171020   2.537   2.364  16.574  0.1917 -1.6185  0.3316
16535TIP3    H271021   2.479   2.270  16.470 -1.2791 -0.0403 -0.3050
16536TIP3   OH271022   4.902   3.506  11.229  0.7215  0.0153  0.8807
16536TIP3    H171023   4.901   3.592  11.188  1.5494  0.5667  1.9859
16536TIP3    H271024   4.971   3.458  11.183  1.0203  0.3218  1.0072
16537TIP3   OH271025   6.436   2.030   2.965 -0.5393 -0.1605 -0.5041
16537TIP3    H171026   6.349   1.992   2.968  0.0112 -1.4010  3.5968
16537TIP3    H271027   6.427   2.115   3.008  0.2462 -0.3071 -0.0291
16538TIP3   OH271028   4.282   2.485   4.271  0.4623 -0.2366  0.1556
16538TIP3    H171029   4.228   2.515   4.199  0.4398  0.9001  0.6325
16538TIP3    H271030   4.221   2.440   4.330  0.2180  0.1175  0.1767
16539TIP3   OH271031   4.353   1.772   0.105  0.6281 -0.5433  0.3900
16539TIP3    H171032   4.373   1.864   0.124  1.3084 -0.4377 -0.7748
16539TIP3    H271033   4.258   1.770   0.098  0.4941 -0.2190  1.8354
16540TIP3   OH271034   4.385   0.993   4.638 -0.0124  0.0536  0.2354
16540TIP3    H171035   4.434   0.926   4.684  1.8944  0.1180 -1.6297
16540TIP3    H271036   4.321   1.025   4.702  0.5727 -1.9324  1.8347
16541TIP3   OH271037   6.365   0.816  12.671  0.5190  0.0346 -0.2223
16541TIP3    H171038   6.320   0.747  12.623  1.6578 -0.8232 -0.0755
16541TIP3    H271039   6.444   0.834  12.620  0.8900  0.3031  0.4321
16542TIP3   OH271040   0.631   2.719  14.809  0.1553  0.0151  0.3075
16542TIP3    H171041   0.631   2.742  14.716  1.4341 -0.4912  0.1625
16542TIP3    H271042   0.558   2.659  14.819  0.0669 -0.0046 -0.3981
16543TIP3   OH271043   2.597   0.577   3.866  0.2379  1.2588 -0.0959
16543TIP3    H171044   2.610   0.483   3.878  2.7531  1.6634  0.7299
16543TIP3    H271045   2.580   0.587   3.772 -0.2735 -0.0364 -0.1517
16544TIP3   OH271046   3.360   4.298   1.289  0.1856 -0.2449 -0.4076
16544TIP3    H171047   3.306   4.242   1.345  0.5984  0.7310  0.9833
16544TIP3    H271048   3.302   4.371   1.267  0.6488  0.3485  0.3413
16545TIP3   OH271049   2.254   0.600  16.183 -0.7418  0.1400  0.2415
16545TIP3    H171050   2.163   0.619  16.160 -1.2025 -0.6134  1.3968
16545TIP3    H271051   2.260   0.620  16.276  0.0289 -0.7175  0.3849
16546TIP3   OH271052   4.764   1.710  16.810  0.6235 -0.0688  0.3360
16546TIP3    H171053   4.732   1.703  16.720 -1.7859  0.1182  1.1542
16546TIP3    H271054   4.771   1.804  16.826 -0.8213 -0.0571  0.9684
16547TIP3   OH271055   6.157   3.420   0.100 -0.0361 -0.2639 -0.3603
16547TIP3    H171056   6.112   3.357   0.156 -0.6031 -0.0018 -0.5074
16547TIP3    H271057   6.247   3.389   0.095 -0.0679 -0.4927  0.3933
16548TIP3   OH271058   3.715   1.806   4.522 -0.6796 -1.1407  0.1141
16548TIP3    H171059   3.784   1.832   4.583 -0.4228  0.5725 -0.8905
16548TIP3    H271060   3.686   1.721   4.554  1.8099 -1.8269  0.6201
16549TIP3   OH271061   3.038   5.419   0.520  0.1927  0.1199 -0.2186
16549TIP3    H171062   3.092   5.447   0.446 -0.0149 -0.0350 -0.4284
16549TIP3    H271063   3.019   5.327   0.502  0.4244 -0.0094  0.1973
16550TIP3   OH271064   3.160   2.666  16.350  0.7166 -0.0507  0.2210
16550TIP3    H171065   3.071   2.699  16.346  0.6478 -0.2683 -0.0676
16550TIP3    H271066   3.157   2.584  16.301  1.0471 -0.1181  0.3147
16551TIP3   OH271067   1.593   0.400  12.336 -0.2871  0.5240 -0.5827
16551TIP3    H171068   1.595   0.484  12.290  0.3510  0.9069  0.1234
16551TIP3    H271069   1.500   0.381  12.346 -0.4318  0.2835 -2.2851
16552TIP3   OH271070   2.837   1.061  15.151 -0.2143 -0.2793 -0.2748
16552TIP3    H171071   2.823   0.976  15.108 -0.1093 -0.7560  0.6150
16552TIP3    H271072   2.928   1.058  15.180 -0.9655 -1.0015  2.1605
16553TIP3   OH271073   5.186   3.560  14.444  0.2613 -0.3358 -0.0562
16553TIP3    H171074   5.277   3.543  14.470  0.3063  0.1941  0.1384
16553TIP3    H271075   5.179   3.655  14.443 -0.4620 -0.3746  0.5407
16554TIP3   OH271076   4.727   2.412  15.707  0.2795 -0.0520  0.1872
16554TIP3    H171077   4.704   2.448  15.793  1.0643 -1.2755  0.9295
16554TIP3    H271078   4.804   2.463  15.680 -0.4491  0.8745 -0.1656
16555TIP3   OH271079   2.959   2.553  16.600  0.2891  0.3859 -0.1852
16555TIP3    H171080   3.003   2.619  16.653  1.8295 -0.5968 -0.2178
16555TIP3    H271081   2.987   2.572  16.510 -0.2170  0.4259 -0.3347
16556TIP3   OH271082   6.097   0.162  14.317 -0.0470 -0.0140 -0.5649
16556TIP3    H171083   6.088   0.247  14.361  2.0275  0.7902 -1.6400
16556TIP3    H271084   6.062   0.178  14.229 -3.8586 -1.5229  0.5518
16557TIP3   OH271085   0.538   2.145  14.612 -0.2340  0.0995 -0.2824
16557TIP3    H171086   0.539   2.147  14.516 -3.5548 -0.9214 -0.4151
16557TIP3    H271087   0.608   2.204  14.638  1.8309 -0.8659 -3.3233
16558TIP3   OH271088   4.454   2.492  13.621 -0.8802 -0.2154 -0.0261
16558TIP3    H171089   4.393   2.550  13.665 -0.5038 -1.4018  2.1119
16558TIP3    H271090   4.415   2.405  13.629 -0.3739 -0.5691 -1.2751
16559TIP3   OH271091   1.928   3.358   3.327  0.2997  0.2606  0.3791
16559TIP3    H171092   2.015   3.397   3.326  0.3262  0.2275  1.0629
16559TIP3    H271093   1.916   3.328   3.418 -0.9181  1.3601  0.5914
16560TIP3   OH271094   1.960   1.381   0.311 -0.0497  0.2536 -0.3262
16560TIP3    H171095   1.920   1.394   0.225  2.5842 -0.1964 -1.6926
16560TIP3    H271096   1.953   1.287   0.326  3.8868 -0.5124 -2.4421
16561TIP3   OH271097   5.331   4.807  11.303 -0.4786  0.0428  0.0892
16561TIP3    H171098   5.365   4.838  11.220  1.6486 -0.6462  0.6667
16561TIP3    H271099   5.374   4.862  11.369 -2.4791  0.8923  0.7350
16562TIP3   OH271100   1.850   0.580  15.116 -0.0293  0.2098  0.4389
16562TIP3    H171101   1.886   0.651  15.062 -1.2224  0.8681  0.4909
16562TIP3    H271102   1.924   0.550  15.168  1.1609 -0.4419 -1.5487
16563TIP3   OH271103   3.565   5.337   2.694  0.1522  0.4764 -0.4275
16563TIP3    H171104   3.555   5.270   2.761  1.8738  0.3077 -0.3377
16563TIP3    H271105   3.559   5.420   2.742  1.6364  0.3537 -0.0079
16564TIP3   OH271106   1.824   2.293   3.481  0.0286  1.1330  0.6813
16564TIP3    H171107   1.805   2.383   3.455 -2.3566  0.2617 -0.7556
16564TIP3    H271108   1.900   2.268   3.428  0.0516  1.9672  0.3250
16565TIP3   OH271109   4.247   4.486   0.641  0.3074 -0.0959 -0.0779
16565TIP3    H171110   4.263   4.415   0.702  1.2118  0.4755  0.3701
16565TIP3    H271111   4.331   4.532   0.635  0.3085 -0.2737 -1.9267
16566TIP3   OH271112   3.864   6.186  16.177 -0.6858  0.3277 -0.0066
16566TIP3    H171113   3.844   6.145  16.261  0.8035 -0.9158 -0.2308
16566TIP3    H271114   3.779   6.195  16.134 -1.5589  1.7033  1.9302
16567TIP3   OH271115   6.531   4.289  11.883 -0.6100 -0.6258 -0.2516
16567TIP3    H171116   6.514   4.382  11.868 -0.0594 -0.3716  0.6766
16567TIP3    H271117   6.516   4.248  11.797 -0.5365  0.3575 -0.7401
16568TIP3   OH271118   0.069   3.142  11.224 -0.3995 -0.1001  0.0910
16568TIP3    H171119  -0.006   3.184  11.182 -0.6311 -0.7861 -0.1786
16568TIP3    H271120   0.061   3.164  11.317  0.5801  2.1640 -0.3094
16569TIP3   OH271121   1.322   1.562   1.026 -0.2125 -0.4610  0.4052
16569TIP3    H171122   1.369   1.586   0.946  1.4131 -0.3229  1.3838
16569TIP3    H271123   1.277   1.642   1.052 -1.2819 -0.6823 -0.7249
16570TIP3   OH271124   2.481   1.827  13.999  0.2734  0.1432  0.2134
16570TIP3    H171125   2.482   1.905  13.943 -0.3917  1.2210  1.6730
16570TIP3    H271126   2.508   1.756  13.941 -1.3670  1.0589 -1.7429
16571TIP3   OH271127   3.064   4.639   3.375 -0.0807 -0.1441 -0.2245
16571TIP3    H171128   3.106   4.686   3.447  0.3865  0.6355 -1.0068
16571TIP3    H271129   3.011   4.705   3.330  0.9699 -0.2523 -1.6315
16572TIP3   OH271130   6.027   2.001  14.887 -0.0280  0.4322 -0.2677
16572TIP3    H171131   6.057   2.086  14.920  0.0863  0.1681  0.3057
16572TIP3    H271132   6.077   1.937  14.936  2.7049  0.0504 -3.4043
16573TIP3   OH271133   5.489   3.247  11.927  0.0297  0.5402  0.0565
16573TIP3    H171134   5.426   3.258  11.999  0.0243  0.8162  0.0114
16573TIP3    H271135   5.455   3.173  11.876 -0.5143  0.9869 -0.2354
16574TIP3   OH271136   2.065   0.354   3.934 -0.7335 -0.1543  0.2346
16574TIP3    H171137   2.046   0.407   4.012  1.2919 -0.8524  1.2334
16574TIP3    H271138   2.160   0.339   3.937 -0.6029 -0.1040 -2.4397
16575TIP3   OH271139   6.593   2.682   0.670  0.0035  0.2626  0.7432
16575TIP3    H171140   6.643   2.635   0.603 -1.4574 -0.9610  0.4643
16575TIP3    H271141   6.595   2.773   0.642 -1.2525 -0.3333 -1.4604
16576TIP3   OH271142   3.418   3.077   2.183 -0.1346  0.5946  0.1096
16576TIP3    H171143   3.371   3.005   2.224  0.9446  0.6454  1.5056
16576TIP3    H271144   3.435   3.138   2.255  0.3120  1.5008 -0.7504
16577TIP3   OH271145   6.588   5.930   1.165 -0.5116 -0.3380  0.1727
16577TIP3    H171146   6.653   5.873   1.207  0.8640  1.2195  0.2203
16577TIP3    H271147   6.507   5.880   1.168  0.5449 -2.0835  0.6826
16578TIP3   OH271148   4.322   3.746   5.645 -0.3060 -0.0212 -0.1760
16578TIP3    H171149   4.352   3.695   5.569  1.8436  0.6479  0.1941
16578TIP3    H271150   4.384   3.818   5.652 -1.1814  0.6011  1.5192
16579TIP3   OH271151   6.749   5.286  14.556 -0.1488  0.1928 -0.1734
16579TIP3    H171152   6.719   5.317  14.642 -0.3116 -0.1483 -0.1042
16579TIP3    H271153   6.784   5.364  14.513  2.2855 -0.0934  1.1940
16580TIP3   OH271154   3.570   5.214  16.631 -0.2941  0.0630 -0.1239
16580TIP3    H171155   3.650   5.175  16.666 -0.0276  0.9921  0.3068
16580TIP3    H271156   3.503   5.194  16.696  0.1541  1.5997  0.8414
16581TIP3   OH271157   2.797   3.531   2.056 -0.1123  0.4340  0.1934
16581TIP3    H171158   2.863   3.485   2.109 -1.5230 -0.4082  1.2551
16581TIP3    H271159   2.785   3.615   2.101  0.1292  0.5219  0.0919
16582TIP3   OH271160   3.816   5.157  15.446 -0.4268 -0.0451  0.3636
16582TIP3    H171161   3.836   5.224  15.512  2.2825 -0.8726  0.4374
16582TIP3    H271162   3.848   5.076  15.483 -2.1582 -1.1362 -0.4656
16583TIP3   OH271163   0.163   3.072   6.569 -0.2691  0.2925  0.3293
16583TIP3    H171164   0.076   3.040   6.545 -0.3773 -0.1426  1.3098
16583TIP3    H271165   0.153   3.167   6.573  0.0178  0.5015 -2.4258
16584TIP3   OH271166   3.327   5.135  13.768  0.0065 -0.1163  0.4571
16584TIP3    H171167   3.414   5.174  13.757  0.2965 -0.6358  0.8630
16584TIP3    H271168   3.322   5.117  13.862 -0.8300  0.5795  0.5484
16585TIP3   OH271169   0.103   6.317   5.610  0.1478 -0.1073  0.2320
16585TIP3    H171170   0.122   6.411   5.610  1.3002 -0.3277  0.2902
16585TIP3    H271171   0.051   6.303   5.689  0.8805  0.3141  0.7935
16586TIP3   OH271172   0.238   2.065  17.173  0.3763 -0.8657  0.2237
16586TIP3    H171173   0.184   2.142  17.158  1.8509  0.1082 -0.1906
16586TIP3    H271174   0.191   2.016  17.241 -0.3101  0.6522  0.8730
16587TIP3   OH271175   6.783   6.550  12.117 -0.4273 -0.3691 -0.1128
16587TIP3    H171176   6.849   6.553  12.186 -1.4165  0.5661  0.8215
16587TIP3    H271177   6.700   6.545  12.164 -1.3354  3.5473 -1.1021
16588TIP3   OH271178   3.050   5.446  12.871 -0.8756  0.2332 -0.3219
16588TIP3    H171179   3.028   5.512  12.806 -2.0573 -0.3424 -0.5154
16588TIP3    H271180   2.972   5.391  12.877 -0.8587  0.4112  1.7451
16589TIP3   OH271181   1.344   5.363  12.332  0.4947 -0.3957 -0.3839
16589TIP3    H171182   1.287   5.437  12.311 -0.7803 -1.5071 -0.9017
16589TIP3    H271183   1.432   5.397  12.320 -0.1040  0.3147 -3.1780
16590TIP3   OH271184   2.610   4.034  11.600  0.0480 -0.0311 -0.1502
16590TIP3    H171185   2.556   4.095  11.650 -1.2873 -0.9203 -0.4644
16590TIP3    H271186   2.622   4.077  11.515 -2.5494 -1.0264 -1.0665
16591TIP3   OH271187   0.080   6.664  15.166  0.1293  1.0056 -0.1008
16591TIP3    H171188  -0.003   6.661  15.213 -0.3380 -0.4649 -0.9537
16591TIP3    H271189   0.134   6.726  15.215 -1.0827  1.1391  1.0987
16592TIP3   OH271190   4.093   2.865  16.505  0.0614 -0.2166  0.1632
16592TIP3    H171191   4.035   2.875  16.429 -1.0609 -1.5438  0.8371
16592TIP3    H271192   4.057   2.925  16.570 -0.5657 -1.0406  0.5826
16593TIP3   OH271193   0.635   5.687   5.286 -0.6142  0.4985 -0.4384
16593TIP3    H171194   0.658   5.778   5.302 -1.1786  0.7295 -0.9420
16593TIP3    H271195   0.717   5.646   5.259 -0.6901  1.2160 -1.7746
16594TIP3   OH271196   6.306   1.279   0.282 -0.0914 -0.5616 -0.5277
16594TIP3    H171197   6.296   1.244   0.193  2.0503  0.7698 -1.3276
16594TIP3    H271198   6.302   1.374   0.271  0.6463 -0.3704  0.7287
16595TIP3   OH271199   3.473   1.719  11.429  1.1156  0.5772  0.0428
16595TIP3    H171200   3.436   1.799  11.392  0.5459  0.1420 -0.3137
16595TIP3    H271201   3.398   1.664  11.450  1.5027  0.1677  0.3728
16596TIP3   OH271202   2.346   0.390  13.529  0.2765 -0.3064  0.7741
16596TIP3    H171203   2.257   0.424  13.527  0.7231  0.9252  1.6412
16596TIP3    H271204   2.383   0.423  13.611  1.5089 -0.8804  0.4660
16597TIP3   OH271205   4.294   0.968  12.698  0.3633 -0.0397 -0.2227
16597TIP3    H171206   4.272   0.883  12.659 -2.1937  1.5383 -2.3648
16597TIP3    H271207   4.342   1.014  12.629  0.4292  0.8016  0.3799
16598TIP3   OH271208   2.425   2.148   1.676  0.0858  0.1204  0.1649
16598TIP3    H171209   2.357   2.211   1.699 -0.8083 -1.6497  2.5120
16598TIP3    H271210   2.399   2.114   1.591 -1.7590 -0.2539  0.8736
16599TIP3   OH271211   6.324   5.711  15.031  0.8438 -0.5163  0.0867
16599TIP3    H171212   6.234   5.745  15.033  0.6165 -1.1613  1.5954
16599TIP3    H271213   6.363   5.752  14.954 -0.3893  0.6964  0.0764
16600TIP3   OH271214   4.720   2.556  15.275  0.4006  0.1290  0.0584
16600TIP3    H171215   4.631   2.557  15.240  1.0966 -2.5931 -1.9776
16600TIP3    H271216   4.714   2.605  15.357 -2.4155  2.1232 -1.2598
16601TIP3   OH271217   5.620   5.695   0.214 -0.4397  0.4491  0.9605
16601TIP3    H171218   5.550   5.643   0.173  0.3668 -1.4859  1.9578
16601TIP3    H271219   5.669   5.730   0.140  1.3139 -3.4270  0.1426
16602TIP3   OH271220   2.046   0.182   3.142 -0.4197  0.0388  0.9968
16602TIP3    H171221   2.059   0.270   3.177 -1.2879  0.4465  0.3225
16602TIP3    H271222   2.083   0.124   3.208  1.7883  0.9840  0.6219
16603TIP3   OH271223   4.760   3.079  12.444 -0.2884  0.2487  0.2444
16603TIP3    H171224   4.729   3.094  12.355 -1.2374  0.1716  0.5546
16603TIP3    H271225   4.681   3.083  12.498  0.3287  0.6273  1.1249
16604TIP3   OH271226   3.099   5.633  13.247 -0.1644  0.1603 -0.3035
16604TIP3    H171227   3.092   5.688  13.325  3.9044  0.0601  0.2326
16604TIP3    H271228   3.077   5.545  13.278 -2.4246  0.7341 -0.2016
16605TIP3   OH271229   5.576   1.481  13.598 -0.2857 -0.2781  0.3565
16605TIP3    H171230   5.546   1.433  13.674 -0.2247  1.0191  1.2200
16605TIP3    H271231   5.671   1.469  13.597 -0.3587 -0.8229  0.1160
16606TIP3   OH271232   4.641   5.532  15.190  0.0528 -0.8742  0.2937
16606TIP3    H171233   4.718   5.582  15.164  1.0867 -3.3655 -1.6090
16606TIP3    H271234   4.572   5.560  15.129 -0.2822  0.5600  1.3073
16607TIP3   OH271235   6.574   2.035  12.457  0.1588  0.5033  0.0192
16607TIP3    H171236   6.583   2.123  12.494  0.4506  0.5834 -0.2485
16607TIP3    H271237   6.592   1.977  12.531  0.1529  0.6664  0.1513
16608TIP3   OH271238   0.458   5.941   0.945 -0.0794 -0.2812  0.3258
16608TIP3    H171239   0.386   5.877   0.947 -0.4037  0.0508 -0.7854
16608TIP3    H271240   0.531   5.893   0.906 -0.4466  0.1492 -0.9014
16609TIP3   OH271241   2.826   4.728  14.501 -0.1454 -0.4123  0.0023
16609TIP3    H171242   2.847   4.648  14.452 -1.0109 -0.5532 -0.1437
16609TIP3    H271243   2.911   4.760  14.531  0.1052 -2.2027  1.3317
16610TIP3   OH271244   3.143   3.052   0.557  0.2248  0.4953  0.5524
16610TIP3    H171245   3.136   3.101   0.638 -0.6499  2.4471 -0.6573
16610TIP3    H271246   3.215   3.093   0.510 -0.7318  0.8601 -0.6227
16611TIP3   OH271247   3.958   5.225   0.031 -0.5569 -0.6551 -0.9393
16611TIP3    H171248   3.998   5.310   0.046 -1.6491 -0.0545 -1.3774
16611TIP3    H271249   4.025   5.162   0.055  0.2859  0.3331 -0.6919
16612TIP3   OH271250   2.021   1.225   0.041  0.2963 -0.1810  0.0756
16612TIP3    H171251   2.038   1.131   0.042 -0.7144 -0.3673  1.0668
16612TIP3    H271252   1.932   1.232   0.006  0.2124  0.3706  0.4053
16613TIP3   OH271253   1.653   2.396   5.967 -0.1477  0.0411 -0.4534
16613TIP3    H171254   1.677   2.346   6.045 -0.2612  1.5005  0.5287
16613TIP3    H271255   1.607   2.333   5.911 -1.1577 -0.6965  1.1877
16614TIP3   OH271256   3.030   5.382  15.631  0.4103  0.8762 -0.3008
16614TIP3    H171257   3.036   5.419  15.719 -1.8784  1.0437 -0.1728
16614TIP3    H271258   3.115   5.401  15.591  1.4158  0.9350  1.7976
16615TIP3   OH271259   4.199   0.094  13.670 -0.4006  0.3514  0.1595
16615TIP3    H171260   4.104   0.091  13.655 -0.1778 -3.5975 -1.1485
16615TIP3    H271261   4.234   0.136  13.591 -0.9072 -0.3909 -0.4711
16616TIP3   OH271262   2.815   6.266  13.542 -0.2414 -0.4773 -0.1196
16616TIP3    H171263   2.780   6.340  13.590  0.2657 -0.2642 -0.0771
16616TIP3    H271264   2.910   6.276  13.547 -0.1680 -1.1108 -0.1391
16617TIP3   OH271265   3.598   1.494   4.741 -0.2321 -0.2019 -0.0374
16617TIP3    H171266   3.534   1.513   4.810  0.4132  1.4556  0.1374
16617TIP3    H271267   3.668   1.446   4.785  1.8343  3.7853  1.3124
16618TIP3   OH271268   6.033   3.970   2.003  0.1085 -0.2378 -0.3609
16618TIP3    H171269   6.085   3.893   1.980  1.3423  0.6012 -0.4169
16618TIP3    H271270   5.986   3.993   1.923  1.5396  0.4609 -0.9978
16619TIP3   OH271271   3.463   0.623   1.588 -0.5329  0.1592 -0.0709
16619TIP3    H171272   3.422   0.563   1.651  1.2709  0.3117  1.3227
16619TIP3    H271273   3.479   0.569   1.510 -3.0364  0.0356 -0.5212
16620TIP3   OH271274   4.468   2.713  15.855  0.3002 -0.6373 -0.3210
16620TIP3    H171275   4.461   2.793  15.908  0.5609  0.4222 -1.8474
16620TIP3    H271276   4.490   2.645  15.918 -1.4739  0.1812  1.2516
16621TIP3   OH271277   3.506   4.756  13.310  0.5765 -0.4578 -0.3471
16621TIP3    H171278   3.448   4.831  13.320  1.8970  0.6224 -0.6709
16621TIP3    H271279   3.448   4.684  13.285 -0.8619  0.1647  1.0785
16622TIP3   OH271280   4.059   5.024   5.684  0.1564  0.2888  0.2193
16622TIP3    H171281   3.995   5.080   5.640 -1.9165 -1.8140  0.4902
16622TIP3    H271282   4.104   5.083   5.746  0.2407  2.3345 -1.7200
16623TIP3   OH271283   6.146   3.602   5.280  0.3759  0.8318  0.0225
16623TIP3    H171284   6.077   3.549   5.321  1.5678  0.0049  0.9842
16623TIP3    H271285   6.182   3.653   5.352  1.5066  0.4540 -0.2685
16624TIP3   OH271286   4.820   5.175  15.956  0.1679 -0.0639  0.1570
16624TIP3    H171287   4.795   5.262  15.987 -1.3977 -0.3030 -0.3648
16624TIP3    H271288   4.738   5.126  15.957  1.2249 -1.8713  1.5008
16625TIP3   OH271289   0.360   2.067   2.632  0.3224  0.5662  0.1422
16625TIP3    H171290   0.343   2.034   2.544  2.0847 -0.4588  0.1548
16625TIP3    H271291   0.342   2.161   2.626 -0.8099  0.2957 -0.9683
16626TIP3   OH271292   0.876   0.225  13.114 -0.5457 -0.2796  0.0749
16626TIP3    H171293   0.885   0.320  13.121  1.1470 -0.3220 -1.1756
16626TIP3    H271294   0.879   0.193  13.204  0.3004  0.7420  0.4119
16627TIP3   OH271295   2.164   4.050  13.210  0.1898  0.3206  0.4983
16627TIP3    H171296   2.149   4.068  13.303  0.2565 -1.7260  0.9150
16627TIP3    H271297   2.216   3.970  13.208  1.0293  0.8749 -1.2843
16628TIP3   OH271298   2.360   0.002   2.599  0.3053 -0.2839 -0.3101
16628TIP3    H171299   2.412   0.081   2.613 -1.3459  0.2224  3.8289
16628TIP3    H271300   2.408  -0.066   2.647 -0.7881 -0.6758  0.2422
16629TIP3   OH271301   3.403   0.494  12.601  0.0408  0.0846 -0.1947
16629TIP3    H171302   3.492   0.465  12.585  0.0669  0.8696 -1.5793
16629TIP3    H271303   3.350   0.445  12.537 -0.6435 -0.9714  1.1380
16630TIP3   OH271304   5.287   6.424   0.925 -0.7938 -0.3936 -0.4036
16630TIP3    H171305   5.231   6.390   0.856 -1.7875 -2.2548  1.2597
16630TIP3    H271306   5.309   6.513   0.897 -0.4874 -1.3854 -3.4709
16631TIP3   OH271307   4.348   4.381   4.529 -0.0561 -0.1436  0.3401
16631TIP3    H171308   4.415   4.448   4.534 -2.3249  2.2261  0.0680
16631TIP3    H271309   4.295   4.393   4.608 -2.4092  0.5568 -1.2747
16632TIP3   OH271310   5.333   1.381  10.776 -0.4856 -0.5092 -0.2431
16632TIP3    H171311   5.238   1.389  10.787 -0.5049 -1.9573  0.8362
16632TIP3    H271312   5.364   1.470  10.762 -2.0567 -0.0661 -0.9939
16633TIP3   OH271313   5.543   2.327   0.711 -0.2469 -0.3388 -0.0963
16633TIP3    H171314   5.477   2.261   0.730  1.4739 -1.9197  0.5746
16633TIP3    H271315   5.551   2.327   0.616 -0.5089 -0.8619 -0.1192
16634TIP3   OH271316   5.815   0.698   0.452  0.2947  0.1240  0.1275
16634TIP3    H171317   5.828   0.611   0.414  1.2443  0.4803 -0.3919
16634TIP3    H271318   5.727   0.696   0.489  0.1368 -0.9033 -0.2989
16635TIP3   OH271319   4.338   3.044   5.252  0.4775 -0.2981 -0.2394
16635TIP3    H171320   4.379   2.961   5.225  0.1220 -0.6631  0.3318
16635TIP3    H271321   4.354   3.049   5.346 -0.6266 -0.3611 -0.0426
16636TIP3   OH271322   4.171   5.696   0.775 -0.0910  0.0597  0.6598
16636TIP3    H171323   4.131   5.669   0.858 -0.7966 -1.0173 -0.0286
16636TIP3    H271324   4.188   5.614   0.729  0.1836  0.6698 -0.3207
16637TIP3   OH271325   3.245   4.314   0.098  0.0197 -0.1509  0.2641
16637TIP3    H171326   3.156   4.342   0.077 -0.2103 -1.1016 -0.0421
16637TIP3    H271327   3.280   4.280   0.015  1.0820  1.2978  0.1026
16638TIP3   OH271328   4.683   4.183   3.330 -0.5096  0.3822  0.0514
16638TIP3    H171329   4.718   4.161   3.244 -1.0272  1.1370 -0.3595
16638TIP3    H271330   4.740   4.254   3.362  0.4533 -0.7332  0.8809
16639TIP3   OH271331   5.117   2.415  13.347 -0.1191 -0.8812  0.3486
16639TIP3    H171332   5.050   2.482  13.359 -1.3203 -2.2979  1.6522
16639TIP3    H271333   5.190   2.462  13.307 -2.2811  0.4523 -2.1888
16640TIP3   OH271334   1.251   2.377  15.096  0.2423  0.1046  0.0540
16640TIP3    H171335   1.167   2.332  15.082  0.4948 -0.1124 -0.8098
16640TIP3    H271336   1.257   2.439  15.023  0.2099  1.0630  0.8712
16641TIP3   OH271337   6.294   4.701  12.002 -0.0118 -0.5560 -0.3506
16641TIP3    H171338   6.328   4.666  11.919  0.8982  2.1854 -1.1962
16641TIP3    H271339   6.360   4.676  12.066  0.8399 -0.0566 -1.0142
16642TIP3   OH271340   2.978   2.867   5.562  0.4481 -0.4611 -0.3322
16642TIP3    H171341   3.026   2.947   5.542 -0.4501 -0.0098 -0.7467
16642TIP3    H271342   3.005   2.805   5.494 -1.4299  0.5825 -2.1151
16643TIP3   OH271343   4.375   2.129   2.378  0.2364 -0.0022 -0.3302
16643TIP3    H171344   4.286   2.112   2.412  0.2652  1.0003  0.2679
16643TIP3    H271345   4.373   2.221   2.352  1.7290  0.6339  1.6937
16644TIP3   OH271346   2.142   4.502   2.459  0.0829  0.5242  0.8186
16644TIP3    H171347   2.143   4.597   2.470  2.1586  0.6729 -0.2988
16644TIP3    H271348   2.090   4.469   2.532 -0.0903  2.4777  1.5936
16645TIP3   OH271349   5.170   0.526  15.682 -0.1439  0.1177 -0.7007
16645TIP3    H171350   5.186   0.589  15.611  0.8236 -0.1189 -0.7071
16645TIP3    H271351   5.174   0.441  15.639 -0.8269  0.0201 -0.5771
16646TIP3   OH271352   5.428   2.890   3.294 -0.0872  0.4902  0.1113
16646TIP3    H171353   5.495   2.846   3.242  0.5331  1.0094  0.4727
16646TIP3    H271354   5.469   2.907   3.378 -1.3013 -0.8937  1.0047
16647TIP3   OH271355   6.301   2.366  15.746 -0.1437  0.3582 -0.0062
16647TIP3    H171356   6.338   2.451  15.723 -0.7484  1.1576  1.8244
16647TIP3    H271357   6.348   2.340  15.825  0.1076 -1.0762 -0.6022
16648TIP3   OH271358   2.962   0.994   2.743 -0.3061  0.2210  0.4483
16648TIP3    H171359   3.011   1.036   2.813  0.0553  0.7568 -0.1290
16648TIP3    H271360   2.907   1.064   2.707 -0.2528  0.0203 -0.0197
16649TIP3   OH271361   5.516   5.426   1.509 -0.0786 -0.1528 -0.2225
16649TIP3    H171362   5.447   5.414   1.574  1.0142 -2.1602  0.5950
16649TIP3    H271363   5.587   5.470   1.557  0.5094 -1.1321 -0.1810
16650TIP3   OH271364   0.565   6.146   1.903  0.5922  0.3994 -0.4224
16650TIP3    H171365   0.603   6.227   1.868  1.1762  0.2555 -0.1275
16650TIP3    H271366   0.529   6.171   1.988 -2.9118  1.2931 -2.0673
16651TIP3   OH271367   0.402   6.602  16.321  0.2282 -0.3978 -0.4639
16651TIP3    H171368   0.440   6.667  16.380  0.3776  0.2166 -1.2302
16651TIP3    H271369   0.425   6.633  16.233 -0.0319 -1.2798 -0.8454
16652TIP3   OH271370   2.035   3.146  15.461  0.3351  0.0355  0.0650
16652TIP3    H171371   2.061   3.091  15.388  2.8572 -1.6556  2.1506
16652TIP3    H271372   2.108   3.206  15.474 -1.6857  2.8700 -1.1342
16653TIP3   OH271373   6.610   2.238   0.039  0.6272  0.1475 -0.2672
16653TIP3    H171374   6.535   2.245  -0.020  0.8773 -0.8285 -0.7213
16653TIP3    H271375   6.675   2.298   0.002  0.4445  0.2281 -0.4572
16654TIP3   OH271376   6.754   2.650  15.881 -0.5403 -0.0919  0.2316
16654TIP3    H171377   6.684   2.714  15.868 -0.1242  0.2192 -0.4626
16654TIP3    H271378   6.788   2.633  15.794  0.0210 -0.5167  0.5280
16655TIP3   OH271379   0.365   3.143  16.996  0.2232 -0.5024  0.3879
16655TIP3    H171380   0.402   3.123  16.910 -0.5188  1.7618 -0.5050
16655TIP3    H271381   0.437   3.128  17.057  2.1021  1.9457 -1.0965
16656TIP3   OH271382   6.429   3.391  16.509 -0.0867  0.7719  0.1184
16656TIP3    H171383   6.377   3.437  16.442 -1.3478 -0.4445  0.2357
16656TIP3    H271384   6.366   3.376  16.580  0.8566  0.6897  0.9368
16657TIP3   OH271385   5.547   0.873   0.594 -0.5432 -0.2534 -0.0016
16657TIP3    H171386   5.463   0.847   0.556 -0.4110 -1.1594  0.3009
16657TIP3    H271387   5.574   0.797   0.645  1.4665 -0.7702 -1.7636
16658TIP3   OH271388   5.010   4.424   0.208 -0.5051 -0.0364 -0.2859
16658TIP3    H171389   5.054   4.502   0.241 -3.0906  2.0412 -1.5429
16658TIP3    H271390   5.062   4.351   0.241  2.5747  2.2246  0.0475
16659TIP3   OH271391   2.641   2.551   1.283 -0.9698 -0.0481 -0.4712
16659TIP3    H171392   2.601   2.638   1.289 -0.2981  0.1795  1.1206
16659TIP3    H271393   2.592   2.498   1.346 -1.7362 -0.9763 -1.8387
16660TIP3   OH271394   1.163   6.723  16.641  0.7571 -0.6428  0.6368
16660TIP3    H171395   1.159   6.670  16.721 -2.6173 -0.0430  0.9696
16660TIP3    H271396   1.179   6.812  16.672  2.2471 -0.8222  0.4029
16661TIP3   OH271397   1.548   1.627  16.109 -0.1400 -0.5431 -0.0379
16661TIP3    H171398   1.636   1.652  16.134 -0.3048  0.4030 -0.4044
16661TIP3    H271399   1.558   1.578  16.027  0.1162 -1.1182  0.3361
16662TIP3   OH271400   0.277   6.543  15.824 -0.1888  0.3240  0.1266
16662TIP3    H171401   0.229   6.601  15.884 -2.3439 -0.0476 -1.1812
16662TIP3    H271402   0.319   6.602  15.762  1.1842  0.6589  1.3458
16663TIP3   OH271403   4.956   0.770  16.219 -0.2195  0.3837 -0.2073
16663TIP3    H171404   5.022   0.825  16.262 -2.0910  2.1551  0.4658
16663TIP3    H271405   4.970   0.683  16.255  1.0763  0.9501  0.6889
16664TIP3   OH271406   2.251   3.015  16.391  0.4613 -0.3456  0.1830
16664TIP3    H171407   2.255   3.105  16.357  1.9239 -0.1273  0.8775
16664TIP3    H271408   2.264   3.024  16.485 -0.2400 -1.2252  0.3701
16665TIP3   OH271409   3.960   3.154  11.029 -0.4665 -0.2606 -0.0645
16665TIP3    H171410   3.955   3.112  10.942 -0.4516  1.1086 -0.7387
16665TIP3    H271411   4.053   3.172  11.042 -0.3570 -1.2835  0.6487
16666TIP3   OH271412   5.662   3.308   4.178 -0.4960 -0.5336  0.4829
16666TIP3    H171413   5.687   3.220   4.150 -2.1282 -1.3481  1.5379
16666TIP3    H271414   5.730   3.332   4.242  0.1925 -0.8311 -0.1231
16667TIP3   OH271415   3.664   4.384  15.112 -0.1462 -0.2644  0.0960
16667TIP3    H171416   3.611   4.447  15.161  0.2835 -0.0476  0.2808
16667TIP3    H271417   3.652   4.301  15.159  2.5382  0.5398  2.2739
16668TIP3   OH271418   3.645   0.749  11.857 -0.0332 -0.1244  0.4775
16668TIP3    H171419   3.555   0.770  11.881 -0.2184  1.4822 -1.5201
16668TIP3    H271420   3.638   0.695  11.779  0.7378  2.0423 -1.1632
16669TIP3   OH271421   5.792   3.670   5.454  0.2048 -0.4934 -0.1102
16669TIP3    H171422   5.838   3.731   5.511 -0.6587 -0.1440  0.2195
16669TIP3    H271423   5.836   3.586   5.468  0.3796 -0.2803  0.6325
16670TIP3   OH271424   6.148   6.094   1.642 -0.2992  0.2444 -0.0646
16670TIP3    H171425   6.235   6.120   1.614  0.3958 -0.7865  1.1091
16670TIP3    H271426   6.089   6.136   1.579  1.1179 -0.4974 -1.9285
16671TIP3   OH271427   2.578   0.553   5.065  0.8131  0.2551 -0.6741
16671TIP3    H171428   2.549   0.512   5.146  0.6269  1.0658 -0.3272
16671TIP3    H271429   2.511   0.529   5.001 -0.0088  1.1271 -0.1552
16672TIP3   OH271430   4.156   2.905   2.505  0.4702 -0.0098  0.1505
16672TIP3    H171431   4.186   2.925   2.594  0.7335 -2.8893  0.7649
16672TIP3    H271432   4.063   2.884   2.516  0.4965 -0.3456 -0.2551
16673TIP3   OH271433   0.345   2.420   0.374 -0.2979  0.0651  0.2326
16673TIP3    H171434   0.379   2.423   0.464 -0.3095 -0.3151  0.2538
16673TIP3    H271435   0.286   2.345   0.374 -1.7930  1.2248  0.4111
16674TIP3   OH271436   0.458   0.108  16.952  0.2919 -0.6043  0.0924
16674TIP3    H171437   0.377   0.065  16.925 -1.1770  1.6278  0.8009
16674TIP3    H271438   0.466   0.087  17.045  0.5503 -0.8319  0.0200
16675TIP3   OH271439   4.780   0.927  11.497 -0.4048  0.2143  0.2072
16675TIP3    H171440   4.747   0.941  11.586 -0.5565  0.1469  0.1610
16675TIP3    H271441   4.742   0.843  11.470 -0.0814  0.0660  0.2085
16676TIP3   OH271442   4.231   2.182   1.158 -0.2254 -0.1295 -0.3004
16676TIP3    H171443   4.187   2.167   1.074 -0.5027  1.3295 -0.4225
16676TIP3    H271444   4.161   2.183   1.222 -0.4829  2.7035 -0.5560
16677TIP3   OH271445   0.000   0.758  16.505  0.7791  0.1808 -0.1479
16677TIP3    H171446  -0.076   0.796  16.460  0.5704 -0.5246 -0.4033
16677TIP3    H271447  -0.019   0.664  16.509  1.4839  0.0436  0.0816
16678TIP3   OH271448   1.152   4.482   2.137  0.0573  0.0401  0.0421
16678TIP3    H171449   1.167   4.392   2.111 -0.1372 -0.0026  0.0788
16678TIP3    H271450   1.057   4.495   2.128  0.2464  0.6210 -1.2107
16679TIP3   OH271451   6.358   2.562   0.753 -0.1920  0.2222 -0.0339
16679TIP3    H171452   6.439   2.598   0.715  0.3946 -0.9187  0.1259
16679TIP3    H271453   6.388   2.505   0.824 -1.1812  0.4673  0.5819
16680TIP3   OH271454   6.389   4.568   2.144 -0.3766  0.2285 -0.0649
16680TIP3    H171455   6.352   4.625   2.211 -1.4977 -0.3104 -0.2058
16680TIP3    H271456   6.459   4.520   2.189 -1.0732 -0.0768  0.6985
16681TIP3   OH271457   2.303   0.504   4.633  0.2292  0.1048 -0.2966
16681TIP3    H171458   2.390   0.541   4.616 -0.4067  1.2987 -1.0042
16681TIP3    H271459   2.302   0.422   4.585  0.0017  1.3991 -2.5917
16682TIP3   OH271460   1.482   4.299   4.395 -0.1625  0.5728  0.4342
16682TIP3    H171461   1.500   4.392   4.399  0.4897  0.5049 -0.6878
16682TIP3    H271462   1.413   4.285   4.459 -2.6178  2.4020 -1.7130
16683TIP3   OH271463   6.102   5.837   4.210 -0.2931  0.0119 -0.0959
16683TIP3    H171464   6.163   5.805   4.144 -0.0287 -0.3277  0.3127
16683TIP3    H271465   6.153   5.897   4.264 -0.7984  1.1682 -0.8840
16684TIP3   OH271466   0.129   5.504   3.329 -0.5909  0.0044 -0.6069
16684TIP3    H171467   0.149   5.425   3.279 -0.2298  0.0454 -0.5342
16684TIP3    H271468   0.108   5.570   3.264 -0.5172 -0.0498 -0.6851
16685TIP3   OH271469   1.870   2.699  11.897  0.2249  0.2565 -0.4846
16685TIP3    H171470   1.864   2.791  11.923  0.9084 -0.1177  1.0931
16685TIP3    H271471   1.951   2.669  11.937 -0.7912 -1.4479  0.3520
16686TIP3   OH271472   6.750   4.356   2.490 -0.2709  0.6312  0.0375
16686TIP3    H171473   6.725   4.379   2.579  0.1790 -0.3703  0.4363
16686TIP3    H271474   6.802   4.276   2.500  2.1469  2.0165 -0.8567
16687TIP3   OH271475   5.254   1.648  15.460  0.2787 -0.2261 -0.0584
16687TIP3    H171476   5.346   1.651  15.433 -0.0931  1.1811 -1.2130
16687TIP3    H271477   5.248   1.709  15.533  0.3012 -0.4966  0.1718
16688TIP3   OH271478   3.182   3.421  10.873  0.6923 -0.2261 -0.0513
16688TIP3    H171479   3.212   3.510  10.890  0.0785 -0.0931  0.3498
16688TIP3    H271480   3.141   3.426  10.787 -0.4835  0.1702  0.5196
16689TIP3   OH271481   0.699   2.731  15.432 -0.1477  0.6411  0.0324
16689TIP3    H171482   0.656   2.770  15.356  0.3421  0.8376 -0.1485
16689TIP3    H271483   0.686   2.796  15.502 -1.0968  0.1964  0.2702
16690TIP3   OH271484   5.033   0.268  16.424  0.0001  0.2095  0.2429
16690TIP3    H171485   5.035   0.356  16.385  2.0007  0.6342  1.2166
16690TIP3    H271486   4.950   0.230  16.395 -0.8188  2.3647 -0.3091
16691TIP3   OH271487   3.163   3.225   3.488 -0.1916  0.6287 -0.5083
16691TIP3    H171488   3.247   3.192   3.520 -0.1726  0.0264 -1.1742
16691TIP3    H271489   3.185   3.272   3.408 -0.3450  1.4405 -0.0746
16692TIP3   OH271490   0.132   2.240   2.692  0.6305  0.3062 -0.1025
16692TIP3    H171491   0.216   2.265   2.731  0.6481  0.5493 -0.2929
16692TIP3    H271492   0.071   2.239   2.766  0.9614 -0.6167  0.1552
16693TIP3   OH271493   5.549   4.060  11.655 -0.2870  0.0868  0.4456
16693TIP3    H171494   5.538   4.155  11.666  0.2806  0.3503 -1.0443
16693TIP3    H271495   5.617   4.052  11.587 -1.2320 -1.3703 -0.3463
16694TIP3   OH271496   2.534   2.669   4.241  0.0462  0.3834 -0.1589
16694TIP3    H171497   2.456   2.711   4.277  0.8456  0.8892  1.0233
16694TIP3    H271498   2.551   2.716   4.159 -0.5755  0.6309 -0.1471
16695TIP3   OH271499   4.791   3.681   0.275  0.0064 -0.2786  0.3204
16695TIP3    H171500   4.739   3.755   0.242  0.8467  0.7023  1.1538
16695TIP3    H271501   4.872   3.721   0.306  1.1137 -1.7407 -0.6001
16696TIP3   OH271502   5.189   6.006   1.478 -0.3992 -0.2210  0.1551
16696TIP3    H171503   5.101   6.021   1.443 -0.5927  0.9344  1.0924
16696TIP3    H271504   5.245   6.002   1.400 -1.1118  0.2528 -0.3957
16697TIP3   OH271505   3.957   6.011  16.701  0.1231 -0.3467 -0.0427
16697TIP3    H171506   4.036   5.960  16.719  2.1593  2.8494  0.4425
16697TIP3    H271507   3.913   6.018  16.785  0.0956 -0.8268 -0.0144
16698TIP3   OH271508   1.485   2.085  16.711 -0.5732  0.1337  0.3910
16698TIP3    H171509   1.561   2.027  16.713  0.0078  0.9047  1.4306
16698TIP3    H271510   1.449   2.075  16.623 -0.4491 -1.7468  0.5292
16699TIP3   OH271511   5.667   2.733   2.700  0.4798 -0.2799  0.2070
16699TIP3    H171512   5.606   2.805   2.685  0.4484 -0.6322 -1.4614
16699TIP3    H271513   5.743   2.774   2.742  0.0259  0.5286  0.2528
16700TIP3   OH271514   4.415   5.079  12.803  0.0190 -0.4694  0.5047
16700TIP3    H171515   4.427   4.984  12.809 -1.4060 -0.6912 -0.0196
16700TIP3    H271516   4.320   5.092  12.804  0.1595  0.8472 -0.8802
16701TIP3   OH271517   0.852   0.552   1.396  0.4052 -0.3129 -0.1894
16701TIP3    H171518   0.911   0.490   1.351  1.1089 -0.2330  0.6060
16701TIP3    H271519   0.911   0.618   1.432 -0.0898 -0.6849  1.3348
16702TIP3   OH271520   6.336   2.916   4.584  0.4956 -0.2900 -0.0291
16702TIP3    H171521   6.341   3.010   4.598 -0.5245 -0.2585  0.1938
16702TIP3    H271522   6.242   2.898   4.577  0.7302 -1.1460 -1.0538
16703TIP3   OH271523   5.813   1.443  13.415  0.0714 -0.1451  0.5812
16703TIP3    H171524   5.876   1.509  13.442  0.6581 -0.1206 -0.8295
16703TIP3    H271525   5.757   1.487  13.351 -1.5289 -0.1022  1.9586
16704TIP3   OH271526   2.178   4.562  11.433  0.3123 -0.5050 -0.0601
16704TIP3    H171527   2.272   4.550  11.417  0.1507 -1.0301 -0.6477
16704TIP3    H271528   2.158   4.648  11.396  0.6252 -0.2490  0.3612
16705TIP3   OH271529   5.654   5.658   5.224  0.6774 -0.3184  0.3876
16705TIP3    H171530   5.646   5.625   5.134  1.4053  0.0832  0.1714
16705TIP3    H271531   5.564   5.662   5.256  0.4332 -0.6886 -0.2491
16706TIP3   OH271532   4.359   1.731   4.175 -0.2105 -0.3118 -0.3182
16706TIP3    H171533   4.407   1.792   4.230  1.2043  0.6958 -2.5762
16706TIP3    H271534   4.302   1.684   4.235  1.0604  0.9344  1.9377
16707TIP3   OH271535   6.006   4.502   5.390 -0.1845 -0.2132 -0.3171
16707TIP3    H171536   6.085   4.448   5.395  0.4179  0.7469  0.5875
16707TIP3    H271537   6.023   4.562   5.317  0.8757  1.4659  1.2565
16708TIP3   OH271538   2.145   0.760  14.634 -0.1725  0.3011  0.3659
16708TIP3    H171539   2.145   0.665  14.639 -0.0320  0.1763 -1.4513
16708TIP3    H271540   2.186   0.789  14.715 -2.6423 -1.0754  2.1494
16709TIP3   OH271541   5.520   1.591  12.105 -0.4747 -0.2668  0.1641
16709TIP3    H171542   5.561   1.545  12.031  0.2056 -1.3351  1.1886
16709TIP3    H271543   5.427   1.571  12.097 -0.5035  0.1968 -0.7987
16710TIP3   OH271544   3.182   2.315  16.560  0.5859  0.4422  0.2123
16710TIP3    H171545   3.241   2.307  16.635 -0.0358  1.1510  0.7818
16710TIP3    H271546   3.131   2.234  16.562  0.2872  0.6441  0.7990
16711TIP3   OH271547   2.548   2.112  15.814 -0.0639  0.0808  0.0944
16711TIP3    H171548   2.502   2.177  15.867  0.3510  3.7837 -3.7876
16711TIP3    H271549   2.641   2.130  15.830  0.0493 -0.2928 -0.1456
16712TIP3   OH271550   1.070   2.383   6.454 -0.8184  0.2318 -0.5395
16712TIP3    H171551   1.071   2.290   6.475 -1.4516  0.2298 -0.5153
16712TIP3    H271552   1.132   2.422   6.515 -1.2191 -0.0474  0.0551
16713TIP3   OH271553   3.628   2.369  15.972 -0.3508  0.3803  0.1167
16713TIP3    H171554   3.613   2.279  15.945 -0.8804  0.6242 -0.4233
16713TIP3    H271555   3.551   2.417  15.941  0.4067  1.2090 -0.5461
16714TIP3   OH271556   4.312   4.410  10.776  0.5975 -0.6968 -0.8494
16714TIP3    H171557   4.255   4.334  10.784 -0.6418  0.1024 -1.8601
16714TIP3    H271558   4.320   4.444  10.866  0.4953 -1.5314 -0.5259
16715TIP3   OH271559   2.982   3.740  11.590 -0.0762 -0.0975  0.2422
16715TIP3    H171560   3.000   3.802  11.519 -0.4500 -0.7815 -0.4599
16715TIP3    H271561   3.067   3.701  11.608 -0.3569 -1.5064 -1.3476
16716TIP3   OH271562   0.766   1.829   5.136 -0.8232  0.0818  0.9265
16716TIP3    H171563   0.795   1.742   5.163 -1.1082  0.1445  1.4575
16716TIP3    H271564   0.831   1.888   5.173 -0.8653  0.1236  0.9344
16717TIP3   OH271565   3.452   3.940  11.741  0.2937 -0.5316 -0.2301
16717TIP3    H171566   3.389   3.910  11.806 -0.9156  0.8777 -0.7071
16717TIP3    H271567   3.524   3.877  11.745 -0.4967 -1.3521  1.3345
16718TIP3   OH271568   6.573   3.850   2.224 -0.1442 -0.0362  0.7156
16718TIP3    H171569   6.575   3.853   2.128 -0.6306 -0.0224  0.7043
16718TIP3    H271570   6.488   3.886   2.247 -0.2967 -0.6678  1.1315
16719TIP3   OH271571   1.343   1.101   0.711 -0.4961 -0.4488 -0.1618
16719TIP3    H171572   1.290   1.068   0.783  0.7125 -0.5511  0.7125
16719TIP3    H271573   1.398   1.169   0.751 -0.5182  0.1992 -1.2066
16720TIP3   OH271574   0.182   0.932   4.499 -0.0435  0.4310  0.2579
16720TIP3    H171575   0.269   0.924   4.538  0.1685  0.4440 -0.2044
16720TIP3    H271576   0.198   0.927   4.405 -0.4691  1.1264  0.1497
16721TIP3   OH271577   5.695   2.395   1.748  0.0420 -0.1562  0.4181
16721TIP3    H171578   5.603   2.378   1.769 -0.2514  1.8458  0.8516
16721TIP3    H271579   5.739   2.400   1.833  0.2572  0.4627  0.2703
16722TIP3   OH271580   5.250   0.709   6.070 -0.0892 -0.0112 -0.1971
16722TIP3    H171581   5.180   0.707   6.004 -0.1595  0.9627 -0.1502
16722TIP3    H271582   5.210   0.751   6.146  0.6216  0.7512 -0.2479
16723TIP3   OH271583   2.589   6.186  16.459 -0.5671  0.0115 -0.3243
16723TIP3    H171584   2.608   6.206  16.551 -1.1327 -1.0928  0.0445
16723TIP3    H271585   2.597   6.270  16.414 -0.9523  0.7008  0.8550
16724TIP3   OH271586   2.314   3.066  15.384  0.3707  0.1764  0.5858
16724TIP3    H171587   2.398   3.081  15.428 -0.1532  0.8867  1.3744
16724TIP3    H271588   2.285   2.981  15.415 -0.3700  1.0151  2.2687
16725TIP3   OH271589   3.401   3.773   1.407  0.2187 -0.5719  0.4535
16725TIP3    H171590   3.438   3.723   1.480 -0.9499 -0.8758  0.8659
16725TIP3    H271591   3.319   3.808   1.442 -0.3779 -0.7531 -0.7202
16726TIP3   OH271592   6.388   3.301   1.460 -0.1202  0.5357  0.1248
16726TIP3    H171593   6.428   3.245   1.526 -1.8342  1.2583  1.8139
16726TIP3    H271594   6.315   3.343   1.505 -1.5772  0.7371 -2.3285
16727TIP3   OH271595   3.652   2.840   4.083  0.5264  0.2096  0.4074
16727TIP3    H171596   3.601   2.916   4.110 -2.6336 -1.5348 -0.4796
16727TIP3    H271597   3.728   2.877   4.037 -0.9773  2.7992 -0.0497
16728TIP3   OH271598   0.032   1.726   0.897 -0.3385  0.2631  0.3459
16728TIP3    H171599  -0.062   1.720   0.878  0.0179  0.4905 -1.5656
16728TIP3    H271600   0.075   1.687   0.820  1.1781  1.4515  0.5669
16729TIP3   OH271601   4.899   3.058   5.883  0.3713 -0.2709 -0.2159
16729TIP3    H171602   4.976   3.071   5.939 -0.9540  1.7545  1.2239
16729TIP3    H271603   4.885   2.964   5.883  1.1549 -0.4174  1.8540
16730TIP3   OH271604   0.557   4.504  13.723 -0.9186 -0.0906  0.0812
16730TIP3    H171605   0.600   4.589  13.727  1.9319 -1.3290 -2.3940
16730TIP3    H271606   0.515   4.503  13.637  0.3179 -1.7414 -0.5183
16731TIP3   OH271607   5.495   1.825   0.577  0.3539  0.3438 -0.6857
16731TIP3    H171608   5.522   1.742   0.537 -0.3274  0.8409 -2.2143
16731TIP3    H271609   5.454   1.874   0.506 -2.6406  0.4980  1.0428
16732TIP3   OH271610   5.759   6.586  15.837 -0.0395  0.0634 -0.3137
16732TIP3    H171611   5.760   6.587  15.933  1.5997  0.2201 -0.3229
16732TIP3    H271612   5.694   6.520  15.815  1.2928 -1.6970  0.9198
16733TIP3   OH271613   5.897   0.527  10.565 -0.0053  0.4394  0.2763
16733TIP3    H171614   5.868   0.595  10.504 -0.2298  0.2456  0.1657
16733TIP3    H271615   5.970   0.567  10.613 -1.6533  1.6122  1.8655
16734TIP3   OH271616   6.316   0.964   1.721 -0.4992 -0.3935 -0.2040
16734TIP3    H171617   6.373   1.032   1.756 -1.2118 -0.9763  2.1955
16734TIP3    H271618   6.375   0.892   1.699  0.2390  0.8897 -2.5994
16735TIP3   OH271619   0.234   5.182  14.244 -0.2684  0.1927  0.2995
16735TIP3    H171620   0.169   5.251  14.230  0.6847  0.7198 -1.7053
16735TIP3    H271621   0.305   5.224  14.292 -0.5738  0.0869  0.8485
16736TIP3   OH271622   5.014   2.465   4.270  0.0031 -0.0709 -0.1925
16736TIP3    H171623   5.046   2.383   4.308  0.9057 -0.2109 -1.2162
16736TIP3    H271624   4.924   2.446   4.244  0.3559 -0.8963 -0.8466
16737TIP3   OH271625   2.033   5.385  15.557 -0.1021  0.4283 -0.1820
16737TIP3    H171626   2.092   5.433  15.615  1.1106 -2.5761  1.1852
16737TIP3    H271627   1.995   5.317  15.613 -2.0210  0.0111 -1.9455
16738TIP3   OH271628   6.759   3.361   3.935  0.4035  0.1266 -0.0962
16738TIP3    H171629   6.743   3.435   3.994  1.5441 -0.2209  0.6670
16738TIP3    H271630   6.831   3.389   3.880 -0.7556  0.5009 -1.4417
16739TIP3   OH271631   4.009   1.178  17.193  0.8634 -0.1742  0.2783
16739TIP3    H171632   4.053   1.224  17.121  1.3239 -0.8602  0.1231
16739TIP3    H271633   4.021   1.235  17.269  0.8518  0.2886 -0.0686
16740TIP3   OH271634   1.213   3.513   3.679 -0.2485 -0.3469  0.0728
16740TIP3    H171635   1.125   3.550   3.682 -0.8071 -1.5776 -0.9888
16740TIP3    H271636   1.208   3.434   3.733  0.5628  0.2813  1.1019
16741TIP3   OH271637   4.148   5.941  15.927  0.0028  0.3834 -0.4051
16741TIP3    H171638   4.086   5.900  15.867  0.4803  0.6695 -1.1112
16741TIP3    H271639   4.123   6.034  15.927 -0.0897  0.3578 -0.0476
16742TIP3   OH271640   0.116   1.924  16.204 -0.5282  0.4272 -0.3326
16742TIP3    H171641   0.164   1.848  16.238 -0.9327 -0.3811 -1.5166
16742TIP3    H271642   0.136   1.995  16.265 -0.5982 -0.7791  1.1255
16743TIP3   OH271643   4.473   6.090  16.093 -0.7442 -0.4622  0.0575
16743TIP3    H171644   4.382   6.060  16.100 -1.3192  0.8050 -1.4016
16743TIP3    H271645   4.494   6.078  16.000  0.9076 -1.6096  0.5763
16744TIP3   OH271646   3.589   4.881  12.029  0.3881 -0.6430  0.9584
16744TIP3    H171647   3.560   4.791  12.018 -1.0071 -0.2538  1.3487
16744TIP3    H271648   3.509   4.931  12.041  1.1068  0.7333  0.2404
16745TIP3   OH271649   1.816   3.572   5.634 -0.0950  0.2382 -0.1684
16745TIP3    H171650   1.831   3.504   5.568  0.5272 -0.3460  0.5646
16745TIP3    H271651   1.902   3.613   5.645 -0.1042  0.0674  0.5602
16746TIP3   OH271652   0.315   5.367  11.158  0.6233 -0.4057 -1.0843
16746TIP3    H171653   0.305   5.436  11.092  1.0135  0.7223  0.0156
16746TIP3    H271654   0.409   5.364  11.175  0.4403 -0.1522 -0.0165
16747TIP3   OH271655   2.305   4.965  15.307 -0.7125 -0.1444  0.0166
16747TIP3    H171656   2.225   4.956  15.359 -0.5130 -0.4320  0.2710
16747TIP3    H271657   2.298   4.897  15.240 -0.8590  0.0774 -0.1980
16748TIP3   OH271658   5.947   1.477  10.960  0.2783  0.2909 -0.7530
16748TIP3    H171659   6.015   1.410  10.955 -0.6655 -0.6243 -1.7257
16748TIP3    H271660   5.982   1.550  10.908  1.4713  0.7298  0.6205
16749TIP3   OH271661   1.099   6.144  15.014  0.0631  0.2129  0.0073
16749TIP3    H171662   1.184   6.130  14.972  0.4413 -1.0616  1.1860
16749TIP3    H271663   1.121   6.191  15.095 -0.3232 -0.3340  0.4295
16750TIP3   OH271664   3.225   2.005  15.077  0.4123 -0.3061 -0.1269
16750TIP3    H171665   3.201   2.022  14.986  0.5728  0.1986 -0.0717
16750TIP3    H271666   3.319   1.989  15.075  0.3966 -0.4146 -0.0639
16751TIP3   OH271667   0.396   3.737   3.779  0.5165  0.3207 -0.1586
16751TIP3    H171668   0.462   3.668   3.774  0.9889  0.7752 -0.2524
16751TIP3    H271669   0.377   3.745   3.873  1.2276  0.7753 -0.0466
16752TIP3   OH271670   6.500   1.422  10.912  0.1885 -0.4127 -0.4343
16752TIP3    H171671   6.450   1.433  10.993  1.3197 -1.9500  0.5046
16752TIP3    H271672   6.591   1.442  10.937  0.2957  0.9299 -1.7798
16753TIP3   OH271673   6.320   4.294   3.794  0.2652 -0.0252  0.6116
16753TIP3    H171674   6.294   4.204   3.776  1.0562 -0.3518  1.1060
16753TIP3    H271675   6.237   4.341   3.804 -0.1439 -0.9293  1.5281
16754TIP3   OH271676   2.014   2.961   4.371 -0.0590  0.0089  0.3946
16754TIP3    H171677   1.979   2.873   4.367  1.8119 -0.7213 -0.4706
16754TIP3    H271678   1.941   3.015   4.404 -2.3756 -1.2135 -2.4976
16755TIP3   OH271679   4.989   0.877   5.636  0.1446  0.1033  0.8467
16755TIP3    H171680   5.015   0.936   5.707  0.0936  1.1854 -0.0312
16755TIP3    H271681   4.900   0.905   5.614  0.3384  0.0740  0.0404
16756TIP3   OH271682   2.485   5.968  13.736 -0.3425 -0.4326 -0.3492
16756TIP3    H171683   2.401   5.924  13.742  0.2608 -1.6761 -0.8097
16756TIP3    H271684   2.548   5.898  13.720  1.0781  0.2206  2.0894
16757TIP3   OH271685   3.945   1.583  11.591  0.2710 -0.1327  0.6870
16757TIP3    H171686   3.993   1.509  11.556 -0.3709 -0.0116 -0.4553
16757TIP3    H271687   3.858   1.549  11.609 -0.0124  0.3296  0.2064
16758TIP3   OH271688   3.612   5.252   1.362 -0.1154  0.1262 -0.1644
16758TIP3    H171689   3.647   5.323   1.416  1.2787 -0.1469 -0.6846
16758TIP3    H271690   3.687   5.194   1.348 -1.2965 -1.6053  0.4877
16759TIP3   OH271691   3.290   1.197   5.509  0.5512  0.2932  0.6117
16759TIP3    H171692   3.292   1.218   5.602 -2.6136  0.6205  0.6440
16759TIP3    H271693   3.240   1.116   5.503  2.9295 -1.1339 -0.5978
16760TIP3   OH271694   1.373   0.183   0.072 -0.1079 -0.0712 -0.6167
16760TIP3    H171695   1.355   0.098   0.033 -0.4027 -0.5399  0.5045
16760TIP3    H271696   1.291   0.231   0.064 -1.0152 -1.1348  1.8091
16761TIP3   OH271697   5.453   6.229   4.160  0.2858 -0.4260  0.6618
16761TIP3    H171698   5.506   6.232   4.080  1.0473 -0.7507  1.1544
16761TIP3    H271699   5.384   6.166   4.141  0.1590 -0.1136  0.0714
16762TIP3   OH271700   4.856   5.045   3.503  0.2528  0.2152 -0.0808
16762TIP3    H171701   4.840   5.118   3.443 -0.1012  0.3106  0.1291
16762TIP3    H271702   4.778   5.042   3.559  0.8396  0.5222  0.7816
16763TIP3   OH271703   5.537   5.608  12.780 -0.1930 -0.0413 -0.0125
16763TIP3    H171704   5.633   5.600  12.786 -0.1193 -1.1949 -2.1929
16763TIP3    H271705   5.504   5.528  12.819 -0.4030  1.4648  3.0499
16764TIP3   OH271706   6.596   6.135   0.490 -0.1789 -0.2106  0.1312
16764TIP3    H171707   6.678   6.175   0.521  0.1048 -1.5572  1.1594
16764TIP3    H271708   6.542   6.127   0.568 -0.5733 -1.0019 -0.2152
16765TIP3   OH271709   2.040   5.497   0.266  0.0227  0.5789  0.4186
16765TIP3    H171710   2.101   5.473   0.196 -1.4585 -1.4262 -0.2483
16765TIP3    H271711   2.043   5.593   0.269  1.3189  0.6199 -1.2940
16766TIP3   OH271712   3.575   6.762   4.340 -0.0500 -0.3826  0.2443
16766TIP3    H171713   3.600   6.840   4.389  0.2475  0.8990 -1.8816
16766TIP3    H271714   3.657   6.727   4.306 -0.4775  0.2917 -1.5647
16767TIP3   OH271715   5.620   3.072  11.667 -0.1279 -0.2996 -0.1121
16767TIP3    H171716   5.606   3.060  11.573 -1.9990  1.4413 -0.0879
16767TIP3    H271717   5.564   3.006  11.708  0.1468 -0.5905 -0.2028
16768TIP3   OH271718   2.276   2.051  14.126 -0.2063 -0.7596  0.8592
16768TIP3    H171719   2.299   2.123  14.067  1.9709 -1.3711  0.9281
16768TIP3    H271720   2.300   1.972  14.079  0.6152 -1.2958  2.1418
16769TIP3   OH271721   0.373   4.746  12.989 -0.4191 -0.0961  0.5129
16769TIP3    H171722   0.365   4.668  12.933  0.2368  1.3135 -1.5760
16769TIP3    H271723   0.379   4.710  13.078  0.0724 -2.4525 -0.4233
16770TIP3   OH271724   3.217   3.375  15.726 -0.6992 -0.2333 -0.4982
16770TIP3    H171725   3.133   3.406  15.761 -0.4310 -0.0798  0.0158
16770TIP3    H271726   3.240   3.301  15.783 -0.1003  0.2248 -0.1405
16771TIP3   OH271727   5.922   0.354   1.638 -0.5279 -0.1421  0.2371
16771TIP3    H171728   5.976   0.286   1.598  1.3234  0.9966  0.7321
16771TIP3    H271729   5.985   0.415   1.677 -2.1804  1.1597  0.9459
16772TIP3   OH271730   3.077   4.295   5.275 -0.0944 -0.4168 -0.3026
16772TIP3    H171731   3.074   4.350   5.196  1.6295  0.2939  0.1090
16772TIP3    H271732   3.090   4.206   5.242  3.3780  0.1986 -0.7560
16773TIP3   OH271733   2.455   6.439   3.107 -0.4530 -0.2369 -0.3230
16773TIP3    H171734   2.449   6.349   3.139 -0.4482 -0.0266  0.2886
16773TIP3    H271735   2.545   6.465   3.129 -0.3265 -0.2204 -0.8655
16774TIP3   OH271736   6.682   5.438  14.008  0.1810  0.2214 -0.0931
16774TIP3    H171737   6.597   5.478  14.022  0.2109  0.6579 -1.1296
16774TIP3    H271738   6.718   5.483  13.931  1.2528 -0.1033  0.2034
16775TIP3   OH271739   2.143   3.259   0.035 -0.0100 -0.3578 -0.8582
16775TIP3    H171740   2.109   3.186  -0.016 -1.4156  0.0562 -0.5556
16775TIP3    H271741   2.233   3.235   0.055 -0.7122 -2.4003 -0.0233
16776TIP3   OH271742   5.329   2.247   1.033 -0.2712  0.3860 -0.1393
16776TIP3    H171743   5.398   2.293   1.080  1.2573  1.3492 -3.2048
16776TIP3    H271744   5.293   2.311   0.972  0.0582 -1.6695 -2.6003
16777TIP3   OH271745   5.765   0.970  14.958 -0.3992 -0.1888  0.0251
16777TIP3    H171746   5.739   1.016  15.038 -1.2672  0.1209 -0.4318
16777TIP3    H271747   5.776   0.879  14.985 -2.4527 -0.4255  0.1299
16778TIP3   OH271748   1.319   3.277   3.112 -0.4184  0.1321  0.0488
16778TIP3    H171749   1.324   3.203   3.052 -1.0501 -0.2018  0.4032
16778TIP3    H271750   1.391   3.335   3.085  0.0830 -0.6102 -0.2203
16779TIP3   OH271751   1.384   1.174   2.671  0.0536  0.1924 -0.6741
16779TIP3    H171752   1.431   1.139   2.595  1.6562 -0.4562  0.5651
16779TIP3    H271753   1.351   1.096   2.717  2.3601  0.2712  1.2882
16780TIP3   OH271754   3.979   5.361  12.347  0.2334  0.2211 -0.8343
16780TIP3    H171755   3.891   5.348  12.383  0.1708  0.2090 -0.9922
16780TIP3    H271756   3.989   5.456  12.340  1.5347  0.3875  2.4288
16781TIP3   OH271757   3.064   6.178  15.331  0.5086  0.1767  0.4660
16781TIP3    H171758   3.125   6.250  15.314  1.0074 -0.4658 -0.4961
16781TIP3    H271759   3.098   6.136  15.411  1.5609 -0.4157 -0.2794
16782TIP3   OH271760   3.859   2.374  14.717 -0.0868 -0.5688  0.1790
16782TIP3    H171761   3.877   2.302  14.776  0.8069 -1.8889 -1.6584
16782TIP3    H271762   3.930   2.371  14.653 -0.1830  1.7765 -0.0868
16783TIP3   OH271763   5.048   6.177  16.239  0.0160 -0.3963 -0.2144
16783TIP3    H171764   4.979   6.118  16.209 -0.8678 -1.2948  3.3318
16783TIP3    H271765   5.117   6.119  16.269  0.2937  0.4058  0.7155
16784TIP3   OH271766   2.169   1.370  10.771 -0.5276  0.0598 -0.0676
16784TIP3    H171767   2.181   1.420  10.852 -1.8822 -0.3583  0.4105
16784TIP3    H271768   2.166   1.436  10.702 -1.1472  0.5630  0.4334
16785TIP3   OH271769   5.632   0.203  16.167  0.5495 -0.1824 -0.2254
16785TIP3    H171770   5.612   0.266  16.098  1.1003  1.6111  1.2002
16785TIP3    H271771   5.589   0.122  16.140  2.2349 -0.0460 -3.5369
16786TIP3   OH271772   2.220   3.604  12.439 -0.1644  0.2199 -0.1742
16786TIP3    H171773   2.287   3.592  12.507 -1.2938 -0.5816  0.8164
16786TIP3    H271774   2.269   3.602  12.357  1.3410  2.1644  0.6389
16787TIP3   OH271775   3.757   4.405   1.712 -0.0279 -0.7297  0.1049
16787TIP3    H171776   3.824   4.373   1.773 -0.5199 -1.3167  0.3427
16787TIP3    H271777   3.700   4.460   1.766 -1.2240 -2.2934  0.4859
16788TIP3   OH271778   0.812   0.478   3.954  0.7998 -0.3145  0.3036
16788TIP3    H171779   0.738   0.512   3.903  0.1684 -0.1560  1.3089
16788TIP3    H271780   0.868   0.554   3.970  0.4722 -0.1608  0.7263
16789TIP3   OH271781   3.480   6.559  15.285 -0.8343  0.4588  0.3018
16789TIP3    H171782   3.489   6.653  15.269 -0.3261  0.4331  0.4206
16789TIP3    H271783   3.545   6.519  15.228 -0.4351  0.2404  0.8985
16790TIP3   OH271784   3.761   5.731  16.097 -0.6588 -0.0725  0.3668
16790TIP3    H171785   3.750   5.814  16.050 -0.1388 -0.0971  0.2017
16790TIP3    H271786   3.799   5.755  16.181  0.7621 -0.2700 -0.2084
16791TIP3   OH271787   4.017   4.965   2.343 -0.0428  0.6991  0.3192
16791TIP3    H171788   4.088   4.987   2.403  1.0972  0.3222 -0.8750
16791TIP3    H271789   3.979   4.885   2.379 -0.7820  1.6452  1.7253
16792TIP3   OH271790   4.286   3.576   1.841 -0.2817  0.2071 -0.3252
16792TIP3    H171791   4.308   3.600   1.751  1.2668  1.0168  0.2427
16792TIP3    H271792   4.318   3.487   1.851  2.4839  1.2349  0.3712
16793TIP3   OH271793   6.647   3.524  16.933 -0.4780 -0.8937 -0.1444
16793TIP3    H171794   6.649   3.429  16.923  0.9735 -0.8731 -0.0348
16793TIP3    H271795   6.723   3.545  16.987 -0.3509  0.4029 -0.8106
16794TIP3   OH271796   2.534   3.252   2.328 -0.0742  0.1553  0.6472
16794TIP3    H171797   2.519   3.174   2.275 -0.5329  0.5873  0.1349
16794TIP3    H271798   2.459   3.309   2.310  0.9048  1.2774 -0.0163
16795TIP3   OH271799   1.480   5.522   2.840  0.1540  0.2862 -0.4965
16795TIP3    H171800   1.403   5.485   2.883  0.2823  0.8571  0.2299
16795TIP3    H271801   1.446   5.597   2.791  0.1236  0.0546 -0.8370
16796TIP3   OH271802   0.872   3.858  17.186  0.3109 -0.3160 -0.4569
16796TIP3    H171803   0.807   3.789  17.199  1.8457 -1.3975  2.1209
16796TIP3    H271804   0.858   3.889  17.097 -3.3129 -0.9039 -0.1759
16797TIP3   OH271805   2.585   4.448   1.684 -0.4693  0.1464  0.5091
16797TIP3    H171806   2.639   4.384   1.637 -0.2251  1.4138 -0.9707
16797TIP3    H271807   2.508   4.398   1.712  0.6591 -1.2765  1.1793
16798TIP3   OH271808   2.469   1.397   3.799 -0.1889 -0.2081  0.2579
16798TIP3    H171809   2.476   1.355   3.713  2.0293  0.6288  0.0144
16798TIP3    H271810   2.485   1.326   3.861 -0.6112 -0.5612 -0.0254
16799TIP3   OH271811   2.879   2.484   0.474 -0.0835  0.1812 -0.2710
16799TIP3    H171812   2.812   2.443   0.419  0.4686  0.2373 -0.9984
16799TIP3    H271813   2.848   2.472   0.563 -0.5936 -0.6356 -0.5526
16800TIP3   OH271814   0.832   3.414  14.720 -0.7602 -0.6693  0.2264
16800TIP3    H171815   0.757   3.399  14.662 -1.1729 -1.3061  0.9131
16800TIP3    H271816   0.799   3.392  14.808 -0.0535 -0.0202  0.6591
16801TIP3   OH271817   5.052   2.778  12.929 -0.1133  0.1570  0.2248
16801TIP3    H171818   5.083   2.704  12.981  0.2898 -0.4733 -0.8806
16801TIP3    H271819   5.098   2.769  12.845 -0.4449  1.3749 -0.0981
16802TIP3   OH271820   2.795   5.576   3.455  0.6050  0.1262 -0.2023
16802TIP3    H171821   2.753   5.507   3.404 -0.3998  1.2025 -0.8599
16802TIP3    H271822   2.854   5.619   3.393  2.5833 -1.2565  0.6686
16803TIP3   OH271823   2.747   1.816  11.755  0.3286  0.1296  0.0480
16803TIP3    H171824   2.693   1.774  11.688  0.1987  1.2933 -0.5946
16803TIP3    H271825   2.826   1.761  11.760 -0.6170 -1.2061  0.5253
16804TIP3   OH271826   6.367   3.145  14.475 -0.4511 -0.2256 -0.1520
16804TIP3    H171827   6.451   3.159  14.519 -0.4677 -1.5877  0.3260
16804TIP3    H271828   6.367   3.209  14.404  1.3912 -0.8132 -0.7171
16805TIP3   OH271829   0.059   3.963  10.513 -0.1105 -0.1261 -0.3023
16805TIP3    H171830   0.098   3.905  10.578  1.9113  0.7841 -0.6490
16805TIP3    H271831   0.028   3.905  10.443  0.9758 -0.8555 -0.1783
16806TIP3   OH271832   6.518   0.477   4.434 -0.1981  0.0694 -0.2035
16806TIP3    H171833   6.510   0.391   4.473 -0.4552  0.0341 -0.3317
16806TIP3    H271834   6.595   0.470   4.377  1.2868  0.6624  1.6823
16807TIP3   OH271835   1.847   0.474  12.752  0.4751 -0.8792 -0.2412
16807TIP3    H171836   1.860   0.503  12.842  0.6958  0.0741 -0.5816
16807TIP3    H271837   1.753   0.455  12.746 -0.0920  1.9683 -0.6726
16808TIP3   OH271838   6.573   5.853   4.923 -0.4480  0.7722 -0.0076
16808TIP3    H171839   6.598   5.760   4.917  1.7357  1.3451 -0.2555
16808TIP3    H271840   6.578   5.872   5.017  0.1829  0.9130 -0.0671
16809TIP3   OH271841   5.786   3.532   5.833 -0.3982 -0.3863 -0.6590
16809TIP3    H171842   5.717   3.570   5.887  0.1014 -2.1931  1.3163
16809TIP3    H271843   5.797   3.595   5.761 -2.4679  1.0714  0.2325
16810TIP3   OH271844   0.168   6.202  12.477  0.3873  0.0865  0.3855
16810TIP3    H171845   0.177   6.160  12.391 -0.9305 -0.4108  0.4849
16810TIP3    H271846   0.094   6.261  12.467 -0.2436 -0.5230  1.3946
16811TIP3   OH271847   2.392   4.701   0.252 -0.8004 -0.0651  0.6490
16811TIP3    H171848   2.466   4.652   0.290 -0.2663 -0.0467 -0.3427
16811TIP3    H271849   2.374   4.770   0.316 -0.2117 -0.3082  1.0892
16812TIP3   OH271850   1.736   3.435  13.824  0.8569  0.1305  0.8137
16812TIP3    H171851   1.777   3.519  13.807  0.2895  0.1580 -0.4928
16812TIP3    H271852   1.642   3.451  13.812  0.6550 -0.4611  1.5208
16813TIP3   OH271853   1.282   2.653  10.771 -0.6707  0.5712  0.2215
16813TIP3    H171854   1.351   2.621  10.829 -0.4782 -0.4318 -0.5492
16813TIP3    H271855   1.227   2.708  10.827  1.2608  2.1573  0.6398
16814TIP3   OH271856   5.802   0.691  15.000  0.2897 -0.1837  0.0463
16814TIP3    H171857   5.805   0.639  15.081  1.1095 -0.0701  0.0990
16814TIP3    H271858   5.861   0.646  14.940 -0.6437 -0.5015 -0.6424
16815TIP3   OH271859   6.664   1.799   5.773 -0.3137 -0.2403 -0.2330
16815TIP3    H171860   6.592   1.844   5.817 -0.0684 -1.3328  1.3416
16815TIP3    H271861   6.742   1.826   5.822  0.1896 -0.0546 -1.1361
16816TIP3   OH271862   2.842   1.962   6.234  0.1788 -0.8189  0.1460
16816TIP3    H171863   2.775   2.031   6.236 -0.6041 -1.5168 -1.0335
16816TIP3    H271864   2.822   1.906   6.308  1.4713  0.7959  1.7679
16817TIP3   OH271865   2.784   5.417   3.745 -0.1113  0.1217 -1.2091
16817TIP3    H171866   2.831   5.356   3.801  0.4332  1.3810 -0.2646
16817TIP3    H271867   2.744   5.480   3.805  0.5114  1.5127 -2.2122
16818TIP3   OH271868   2.318   1.444  11.218 -0.4192 -0.6247 -0.0909
16818TIP3    H171869   2.411   1.425  11.207  0.1414  1.2064  1.3268
16818TIP3    H271870   2.293   1.485  11.135 -0.1182 -1.6531 -0.7024
16819TIP3   OH271871   3.963   1.639  12.499  0.1090 -0.1707 -0.1860
16819TIP3    H171872   3.978   1.659  12.592  0.3597  0.7748 -0.4331
16819TIP3    H271873   3.907   1.709  12.467  1.3190  0.3682 -1.1468
16820TIP3   OH271874   1.726   1.742  13.842  0.4244 -0.0226  0.5600
16820TIP3    H171875   1.796   1.805  13.826  0.4297  0.2624  1.6542
16820TIP3    H271876   1.676   1.741  13.760  2.5041 -1.2788 -0.7217
16821TIP3   OH271877   3.689   6.266  15.643  0.7218  0.5020 -0.2006
16821TIP3    H171878   3.682   6.264  15.548  0.9342  1.0970 -0.2356
16821TIP3    H271879   3.612   6.314  15.672  0.3412 -0.2102 -0.0304
16822TIP3   OH271880   0.325   4.070  15.117  0.5295 -0.1658  0.2641
16822TIP3    H171881   0.420   4.062  15.110  0.6301  0.7042  0.5114
16822TIP3    H271882   0.312   4.146  15.175 -0.3015 -1.4676  1.8197
16823TIP3   OH271883   5.641   3.379  14.047  0.2576  0.6990  0.4171
16823TIP3    H171884   5.693   3.300  14.061  2.0105  2.0765  1.9503
16823TIP3    H271885   5.551   3.347  14.038  0.9510 -1.4712  0.8071
16824TIP3   OH271886   3.779   3.554  13.302 -0.6785  0.5712 -0.5157
16824TIP3    H171887   3.778   3.482  13.239 -0.4352  0.0145  0.1235
16824TIP3    H271888   3.865   3.594  13.291 -0.3710  0.0360 -0.0302
16825TIP3   OH271889   1.545   3.049  11.972  0.7522  0.3235  0.1334
16825TIP3    H171890   1.617   3.096  11.931  0.2004  1.0060 -0.0616
16825TIP3    H271891   1.511   3.109  12.038 -0.8021  0.7589 -1.0083
16826TIP3   OH271892   4.701   3.509   2.294  0.2521 -0.5954 -0.2725
16826TIP3    H171893   4.749   3.560   2.229 -0.4617  0.4165 -0.0346
16826TIP3    H271894   4.687   3.424   2.254  1.6326 -0.6722 -0.6133
16827TIP3   OH271895   3.603   2.858   1.956  0.6158  0.0926 -0.5567
16827TIP3    H171896   3.631   2.857   2.048 -0.1818  1.3601 -0.2953
16827TIP3    H271897   3.648   2.783   1.917 -0.1064 -1.2974  1.1842
16828TIP3   OH271898   1.038   2.754  15.418 -0.2866  0.6744  0.1211
16828TIP3    H171899   1.020   2.699  15.342 -1.2001 -0.5918  1.2347
16828TIP3    H271900   1.115   2.714  15.459  0.2442  1.3929 -0.1577
16829TIP3   OH271901   6.230   1.493   3.366 -0.1906 -0.2206 -0.8204
16829TIP3    H171902   6.146   1.447   3.367  0.1761 -0.8670  0.9266
16829TIP3    H271903   6.288   1.436   3.315 -0.6217 -0.0701 -1.4959
16830TIP3   OH271904   3.204   2.812   1.024 -0.9512 -0.3292  0.0126
16830TIP3    H171905   3.253   2.894   1.012  0.3908 -1.1368 -0.1003
16830TIP3    H271906   3.134   2.817   0.959 -0.9132  0.7398  0.0301
16831TIP3   OH271907   2.473   1.465  11.648 -0.4223 -0.7734 -0.0519
16831TIP3    H171908   2.393   1.427  11.612 -1.0849  1.6071 -1.2134
16831TIP3    H271909   2.462   1.559  11.635  1.2274 -0.1852  2.5757
16832TIP3   OH271910   3.459   6.262   2.901  0.5221  0.6966 -0.2610
16832TIP3    H171911   3.506   6.179   2.895 -0.7200  0.1124 -2.6494
16832TIP3    H271912   3.520   6.326   2.864  0.1987  0.2407 -1.6459
16833TIP3   OH271913   2.898   2.043  14.430  0.3076  0.2397  0.1310
16833TIP3    H171914   2.846   2.026  14.352 -2.0670  2.2044  1.1908
16833TIP3    H271915   2.868   1.977  14.493  2.1860 -1.3135 -0.5527
16834TIP3   OH271916   6.349   5.762  14.193  0.3410 -0.2985  0.2079
16834TIP3    H171917   6.405   5.827  14.151  0.1272  0.6148  1.2773
16834TIP3    H271918   6.391   5.746  14.278 -1.4039  1.0128  1.3626
16835TIP3   OH271919   1.584   3.250  12.717  0.0467 -0.5751  0.1209
16835TIP3    H171920   1.569   3.343  12.698  0.0371 -0.6859 -0.4138
16835TIP3    H271921   1.500   3.209  12.702  0.4363 -0.9171 -1.1531
16836TIP3   OH271922   6.258   0.777   5.380  0.0093 -0.2982  0.1643
16836TIP3    H171923   6.212   0.760   5.463 -1.3080 -2.8120 -1.0039
16836TIP3    H271924   6.307   0.696   5.364 -1.2750 -0.6041 -2.4394
16837TIP3   OH271925   0.069   1.823  14.825  0.1999 -0.5212 -0.0311
16837TIP3    H171926   0.065   1.815  14.730  1.8482 -0.7612 -0.0918
16837TIP3    H271927   0.162   1.831  14.845 -0.0487 -1.4979  1.6372
16838TIP3   OH271928   4.056   5.375   0.413 -0.1383  0.2857  0.3012
16838TIP3    H171929   4.112   5.402   0.340  0.2378  0.4620  0.6521
16838TIP3    H271930   3.985   5.326   0.372  0.2513  0.0944 -0.1519
16839TIP3   OH271931   5.819   3.348  14.364  0.1241  0.5569 -0.0244
16839TIP3    H171932   5.755   3.417  14.381  0.3670  0.9571 -0.7261
16839TIP3    H271933   5.816   3.336  14.269 -0.9822 -1.4272  0.2350
16840TIP3   OH271934   6.456   3.071   1.775 -0.5157  0.1482 -0.0040
16840TIP3    H171935   6.538   3.120   1.776 -0.3194 -0.1852  0.5383
16840TIP3    H271936   6.396   3.125   1.827 -0.6380  0.3771 -0.3762
16841TIP3   OH271937   3.128   2.118  15.348  0.4534  0.0209 -0.3363
16841TIP3    H171938   3.114   2.208  15.319  0.2031 -0.2378 -1.0451
16841TIP3    H271939   3.144   2.069  15.267  0.2447 -0.6328  0.0098
16842TIP3   OH271940   4.578   4.630   6.640 -0.1131 -0.3021  0.0000
16842TIP3    H171941   4.543   4.680   6.566 -0.1834 -0.0807  0.1817
16842TIP3    H271942   4.580   4.540   6.610  0.4032 -0.1353 -0.4838
16843TIP3   OH271943   3.516   1.806  15.180 -0.1208  0.2132 -0.2108
16843TIP3    H171944   3.537   1.713  15.169 -0.9394 -0.0048  0.0810
16843TIP3    H271945   3.491   1.814  15.272 -1.1854  0.4998 -0.5245
16844TIP3   OH271946   4.620   1.261  14.160  0.2302  0.2687  0.2964
16844TIP3    H171947   4.588   1.237  14.073 -0.7583 -2.0964  1.2532
16844TIP3    H271948   4.576   1.344  14.181  2.0293  1.9136 -2.2486
16845TIP3   OH271949   4.969   2.915   2.613 -0.4139  0.5385  0.3380
16845TIP3    H171950   4.928   2.988   2.567  1.7151  0.9304 -1.0099
16845TIP3    H271951   5.026   2.957   2.678  0.4356  0.0801 -0.1027
16846TIP3   OH271952   0.079   3.342  14.542 -0.3927 -0.1553  0.3237
16846TIP3    H171953   0.082   3.274  14.475 -1.2265 -1.3824  1.5001
16846TIP3    H271954   0.167   3.344  14.579  0.0541  0.4880 -0.7637
16847TIP3   OH271955   0.276   1.516  14.092  0.3270  0.7637 -0.3900
16847TIP3    H171956   0.231   1.587  14.045 -2.6509 -0.6695  0.1327
16847TIP3    H271957   0.209   1.448  14.101  2.2312 -0.8945  1.7561
16848TIP3   OH271958   6.105   6.667  13.889  0.0858  0.1492  0.1941
16848TIP3    H171959   6.074   6.576  13.892  1.5632 -0.3431  0.7597
16848TIP3    H271960   6.029   6.716  13.856 -1.5814 -0.9002  2.3006
16849TIP3   OH271961   5.833   6.154  14.827  0.1281  0.6972 -0.1134
16849TIP3    H171962   5.831   6.135  14.921 -0.6729  2.4750  0.2427
16849TIP3    H271963   5.749   6.119  14.795  0.1019  0.7002 -0.0499
16850TIP3   OH271964   4.147   3.759   1.493 -0.1414 -0.3528 -0.1605
16850TIP3    H171965   4.090   3.719   1.559  0.3185  0.7742  0.9419
16850TIP3    H271966   4.223   3.789   1.542  0.4711 -0.0023 -1.3070
16851TIP3   OH271967   1.495   4.121  14.343  0.2420 -0.2271 -0.3804
16851TIP3    H171968   1.413   4.075  14.324 -0.0976  0.0333  0.4274
16851TIP3    H271969   1.470   4.189  14.406  1.4129 -1.3962  1.3797
16852TIP3   OH271970   2.785   4.184  14.802  0.1941 -0.1816  0.5876
16852TIP3    H171971   2.742   4.143  14.878  2.4704  0.6276  2.3672
16852TIP3    H271972   2.834   4.112  14.761 -0.3698 -0.4417  0.3629
16853TIP3   OH271973   5.071   6.332   5.168 -0.0483 -0.0662 -0.1079
16853TIP3    H171974   5.152   6.292   5.201 -0.2063 -1.1483 -0.9841
16853TIP3    H271975   5.049   6.399   5.233  2.1436  0.9945 -0.4089
16854TIP3   OH271976   2.459   4.933   5.377 -0.3517  0.0948 -1.0075
16854TIP3    H171977   2.473   4.842   5.401 -1.2414 -0.6574 -3.2444
16854TIP3    H271978   2.364   4.941   5.367 -0.4456  1.7103  0.7739
16855TIP3   OH271979   4.201   3.581   3.376 -0.6172  0.2407  0.5312
16855TIP3    H171980   4.107   3.600   3.375 -0.8048 -0.5971  1.4771
16855TIP3    H271981   4.208   3.499   3.328 -0.2778  0.6838 -0.1773
16856TIP3   OH271982   2.108   4.538   0.385 -0.3989  1.0030  0.1700
16856TIP3    H171983   2.054   4.608   0.422 -0.6023  0.9271  0.0091
16856TIP3    H271984   2.109   4.555   0.291 -4.2306 -1.8333 -0.5035
16857TIP3   OH271985   2.805   6.263   1.669 -0.2738  0.5870  0.5104
16857TIP3    H171986   2.801   6.204   1.745  0.3933  0.7242  0.6539
16857TIP3    H271987   2.889   6.308   1.678 -0.1816  0.5927 -0.3220
16858TIP3   OH271988   5.605   4.345   5.442  0.6491 -0.2274  0.5258
16858TIP3    H171989   5.681   4.297   5.475  1.2343  0.1333 -0.2610
16858TIP3    H271990   5.537   4.278   5.432  1.3484 -0.8477 -0.2313
16859TIP3   OH271991   4.603   5.590  15.484 -0.3775  0.8490  0.1973
16859TIP3    H171992   4.637   5.669  15.443 -0.5882  1.0827  0.4683
16859TIP3    H271993   4.573   5.535  15.412  2.0029 -0.0428 -0.1724
16860TIP3   OH271994   2.529   4.796  15.517 -0.3355  0.6431  0.3801
16860TIP3    H171995   2.458   4.851  15.550  0.4043  0.5483  2.2044
16860TIP3    H271996   2.588   4.786  15.592  1.5247  0.5917 -1.0612
16861TIP3   OH271997   1.731   0.514  15.482 -0.8240 -0.0424 -0.8556
16861TIP3    H171998   1.741   0.527  15.576  1.0319  0.3367 -1.0881
16861TIP3    H271999   1.674   0.437  15.475 -1.5542  0.3437  0.5641
16862TIP3   OH272000   4.260   2.855  11.097 -0.8587 -0.0139  0.0684
16862TIP3    H172001   4.271   2.923  11.163  1.2645 -1.6470  1.4611
16862TIP3    H272002   4.298   2.893  11.017  0.3708  0.4270  0.8462
16863TIP3   OH272003   5.244   4.849  15.789 -0.2927  0.4394 -0.1521
16863TIP3    H172004   5.318   4.853  15.850  0.1156 -1.3499 -0.4914
16863TIP3    H272005   5.167   4.862  15.844  0.1591  0.2597  0.5314
16864TIP3   OH272006   5.090   3.109  12.437  0.1069  0.1475 -0.5825
16864TIP3    H172007   4.997   3.130  12.428  0.0646 -0.1496 -0.8206
16864TIP3    H272008   5.116   3.075  12.352  0.3157 -0.2407 -0.3651
16865TIP3   OH272009   3.995   4.490   1.858  0.3106 -0.5495 -0.0172
16865TIP3    H172010   3.979   4.465   1.949  1.9063  0.7247  0.6398
16865TIP3    H272011   4.090   4.487   1.848  0.2122  0.2010 -1.3772
16866TIP3   OH272012   4.023   0.712  12.834 -0.0648  0.0138 -0.0509
16866TIP3    H172013   4.100   0.723  12.779  0.0276 -0.4124 -0.0069
16866TIP3    H272014   4.019   0.618  12.852  0.2998  0.2302  1.2236
16867TIP3   OH272015   4.726   1.552  16.195 -0.4744  0.6783  0.2639
16867TIP3    H172016   4.768   1.574  16.278  1.3430  3.2802 -1.2748
16867TIP3    H272017   4.642   1.597  16.198 -0.7937  0.0429  1.0336
16868TIP3   OH272018   5.156   3.586  15.141  0.0359  0.5400 -0.6404
16868TIP3    H172019   5.179   3.498  15.111 -3.2628 -1.3282  1.8838
16868TIP3    H272020   5.236   3.621  15.178  0.8551 -2.4527  0.5924
16869TIP3   OH272021   4.387   3.105   4.677 -0.3359  0.1012 -0.0658
16869TIP3    H172022   4.389   3.053   4.757  0.1875  1.1263  0.5962
16869TIP3    H272023   4.294   3.113   4.656 -0.4745 -0.1544  0.4397
16870TIP3   OH272024   5.122   2.547   4.989 -0.0200 -0.0730  0.4420
16870TIP3    H172025   5.044   2.496   5.010 -1.3119  1.6079 -0.1349
16870TIP3    H272026   5.098   2.637   5.009  1.9854  0.4116  0.7874
16871TIP3   OH272027   2.643   6.063   1.418  0.3216 -0.6460  0.3871
16871TIP3    H172028   2.650   6.065   1.513 -0.3342 -1.6096  0.4551
16871TIP3    H272029   2.674   6.150   1.390 -0.3115 -0.0405  1.5254
16872TIP3   OH272030   3.074   2.289   2.953 -0.0229 -0.3578  0.1313
16872TIP3    H172031   3.083   2.292   2.858 -0.2705 -1.0354  0.0838
16872TIP3    H272032   3.039   2.374   2.977 -4.0239 -1.6149 -0.8187
16873TIP3   OH272033   1.391   1.241  14.769  0.3781 -0.0511 -0.2214
16873TIP3    H172034   1.347   1.185  14.704 -0.4469  0.5277 -0.1564
16873TIP3    H272035   1.390   1.328  14.730  1.4483 -0.0280 -0.2068
16874TIP3   OH272036   1.323   4.195   1.483  0.1210 -0.5395 -0.2505
16874TIP3    H172037   1.414   4.212   1.508  0.2265  1.5436 -1.9344
16874TIP3    H272038   1.279   4.175   1.566  1.9002 -0.5539  0.7092
16875TIP3   OH272039   4.502   5.734   3.182 -0.0379  0.3846 -0.4668
16875TIP3    H172040   4.577   5.743   3.242 -0.4502  1.0613 -0.0407
16875TIP3    H272041   4.446   5.808   3.203 -0.4299  0.3516 -1.3643
16876TIP3   OH272042   5.097   2.644  12.218  0.1477  0.6658 -0.4099
16876TIP3    H172043   5.076   2.627  12.309 -0.9175 -1.0655 -0.9605
16876TIP3    H272044   5.180   2.598  12.203  0.5011  1.2396 -0.2308
16877TIP3   OH272045   4.794   0.714  10.892 -0.0742  0.3270  0.3596
16877TIP3    H172046   4.768   0.744  10.805  0.8675 -0.3113 -0.1380
16877TIP3    H272047   4.880   0.675  10.880 -0.0411  0.0207  1.5379
16878TIP3   OH272048   4.157   4.805  13.328 -0.1309  0.0435  0.1567
16878TIP3    H172049   4.200   4.721  13.340  0.5608  0.5268  1.1139
16878TIP3    H272050   4.224   4.860  13.287 -1.2724 -0.4972 -2.5261
16879TIP3   OH272051   5.169   1.610   2.048  0.4115 -0.2942 -0.1784
16879TIP3    H172052   5.097   1.660   2.010 -0.6603 -1.0457  0.8365
16879TIP3    H272053   5.205   1.560   1.974 -0.4139 -0.2761 -0.6029
16880TIP3   OH272054   3.436   3.179   3.260 -0.0839 -0.5597 -0.2586
16880TIP3    H172055   3.457   3.110   3.197  0.3542 -0.4695 -0.2124
16880TIP3    H272056   3.520   3.203   3.299  0.0598  1.2905 -1.5981
16881TIP3   OH272057   4.259   5.649  12.755 -0.6708 -0.6464  0.1201
16881TIP3    H172058   4.185   5.605  12.797 -0.5145  1.3264  2.6003
16881TIP3    H272059   4.246   5.742  12.774  1.9582 -0.1718 -0.1630
16882TIP3   OH272060   0.872   4.963  11.633 -0.4571  0.3675  0.4291
16882TIP3    H172061   0.833   5.004  11.556 -1.6497  1.8927  1.8208
16882TIP3    H272062   0.800   4.952  11.695  0.6478  0.0168  1.6951
16883TIP3   OH272063   1.302   1.533  16.157 -0.0175 -0.1639  0.2992
16883TIP3    H172064   1.309   1.512  16.250  1.0781  0.7040  0.4220
16883TIP3    H272065   1.389   1.563  16.132 -0.6813  1.0548 -0.6449
16884TIP3   OH272066   3.285   0.517   3.195 -0.2090 -0.0257  0.4249
16884TIP3    H172067   3.254   0.596   3.150 -2.2852 -1.4264 -0.7287
16884TIP3    H272068   3.337   0.549   3.268 -0.6243  2.4043 -0.3095
16885TIP3   OH272069   2.291   0.907   4.093 -0.4681  0.1922 -0.3218
16885TIP3    H172070   2.285   0.995   4.131 -2.2932  1.4186 -3.2785
16885TIP3    H272071   2.209   0.896   4.045  1.4240 -1.4673 -3.3574
16886TIP3   OH272072   1.864   1.618   1.606  0.3302  0.8565  0.3547
16886TIP3    H172073   1.928   1.689   1.600  0.0341  1.2494  1.7437
16886TIP3    H272074   1.797   1.651   1.665  0.0315 -0.4570  0.7611
16887TIP3   OH272075   5.280   0.376   3.361 -0.3711 -0.4280  0.0578
16887TIP3    H172076   5.284   0.293   3.314 -0.0930 -0.4043  0.0424
16887TIP3    H272077   5.272   0.442   3.293  0.6698 -0.3424  0.0119
16888TIP3   OH272078   2.414   3.420  12.251 -0.1211 -0.4362 -0.9044
16888TIP3    H172079   2.404   3.352  12.184  0.4191 -0.4188 -0.9990
16888TIP3    H272080   2.397   3.375  12.334 -1.0484 -0.4030 -1.0661
16889TIP3   OH272081   2.487   5.806   4.000 -0.0180 -0.0175 -0.0613
16889TIP3    H172082   2.547   5.854   4.056 -0.2575  0.5975 -0.3276
16889TIP3    H272083   2.402   5.814   4.043 -0.2557  0.6982 -0.6562
16890TIP3   OH272084   4.444   3.678  11.025  0.2143 -0.3487 -0.7966
16890TIP3    H172085   4.438   3.731  10.945 -0.9871 -0.8152 -1.0201
16890TIP3    H272086   4.353   3.667  11.053  0.4298 -2.4327 -0.8362
16891TIP3   OH272087   2.969   0.951   1.619  0.3174  0.5043  0.9244
16891TIP3    H172088   3.020   0.874   1.642  0.7928  0.4112 -0.4551
16891TIP3    H272089   3.018   1.024   1.657  1.0381  0.3363  0.3300
16892TIP3   OH272090   2.769   1.558   2.384 -0.3705  0.7893  0.9074
16892TIP3    H172091   2.811   1.490   2.437 -0.2893  0.0017 -0.1712
16892TIP3    H272092   2.695   1.587   2.438 -1.5158 -1.4404  0.6045
16893TIP3   OH272093   0.938   2.317   3.694 -0.3135 -0.3211  0.2302
16893TIP3    H172094   0.871   2.384   3.690 -0.5672 -0.5636  0.3859
16893TIP3    H272095   0.892   2.239   3.725 -0.3244 -0.9398 -1.2656
16894TIP3   OH272096   1.352   2.780   3.011  0.4819  0.3705 -0.1016
16894TIP3    H172097   1.296   2.748   2.941  0.3340  1.6066 -0.5690
16894TIP3    H272098   1.421   2.714   3.019 -0.2224 -0.4267 -0.5131
16895TIP3   OH272099   5.074   5.649   2.201  0.1847 -0.5342  0.9638
16895TIP3    H172100   5.000   5.614   2.151 -0.3567  0.6791  0.8870
16895TIP3    H272101   5.148   5.646   2.140 -0.2248 -0.0701  0.4311
16896TIP3   OH272102   2.986   2.957   6.665 -0.2737 -1.0282 -0.0573
16896TIP3    H172103   3.046   2.897   6.708  1.1388 -1.0371 -1.9625
16896TIP3    H272104   2.941   2.903   6.600 -2.0580 -0.9278  1.0674
16897TIP3   OH272105   0.040   1.507  14.716  0.0315 -0.5504  0.2446
16897TIP3    H172106   0.121   1.546  14.686 -0.4693  0.0524 -0.3393
16897TIP3    H272107  -0.027   1.574  14.702 -0.0439  0.2652  3.9355
16898TIP3   OH272108   2.724   3.661   3.229  0.5314  0.3638  0.1492
16898TIP3    H172109   2.686   3.662   3.141  0.3365  0.5973  0.2351
16898TIP3    H272110   2.651   3.638   3.286  1.2539 -2.5663 -0.0287
16899TIP3   OH272111   2.392   5.862   2.781  0.4012  0.0595 -0.1251
16899TIP3    H172112   2.308   5.876   2.824 -0.6412  0.0232 -2.0952
16899TIP3    H272113   2.413   5.947   2.742  0.1099 -0.5440 -1.6328
16900TIP3   OH272114   2.870   0.228   1.001 -0.0824 -0.0852  0.4292
16900TIP3    H172115   2.821   0.240   0.920 -0.6812 -0.0228  0.7964
16900TIP3    H272116   2.947   0.178   0.976  0.1367  0.6238 -0.3216
16901TIP3   OH272117   4.982   2.878  12.035  0.9637  0.2425  0.4728
16901TIP3    H172118   5.039   2.874  11.958  2.2044  2.8446  1.2134
16901TIP3    H272119   5.015   2.810  12.094  1.7459  0.1100 -0.1149
16902TIP3   OH272120   0.725   4.267  15.242 -0.0005  0.0405 -0.5643
16902TIP3    H172121   0.701   4.188  15.193  0.5295  0.7257 -1.9853
16902TIP3    H272122   0.687   4.255  15.329  0.6594 -2.0859 -0.5466
16903TIP3   OH272123   5.204   3.092   0.205  0.4530 -0.5083 -0.1708
16903TIP3    H172124   5.208   3.009   0.158  2.1741  0.3034 -1.5271
16903TIP3    H272125   5.199   3.158   0.136 -0.0234  0.5617  0.8769
16904TIP3   OH272126   5.639   5.003  13.625  0.0010  0.0537 -0.6581
16904TIP3    H172127   5.654   4.917  13.585 -1.2377 -1.5286  2.0989
16904TIP3    H272128   5.717   5.054  13.602  2.3374 -2.8939  0.3635
16905TIP3   OH272129   2.654   0.807   1.439 -0.3046 -0.5129  0.3894
16905TIP3    H172130   2.735   0.802   1.389  1.0606 -2.4579  2.6823
16905TIP3    H272131   2.645   0.899   1.463 -0.0095  0.1049 -1.8126
16906TIP3   OH272132   0.097   6.304  11.949 -0.1536 -0.1478 -0.2049
16906TIP3    H172133   0.060   6.369  12.009 -0.2279  0.5817 -1.0376
16906TIP3    H272134   0.148   6.355  11.887  1.3319 -1.0489  0.2448
16907TIP3   OH272135   0.233   1.453   5.784  0.5064  0.2675  0.1345
16907TIP3    H172136   0.213   1.521   5.848 -0.1660 -0.3805  0.6204
16907TIP3    H272137   0.325   1.431   5.801 -0.1334 -1.0885  2.0255
16908TIP3   OH272138   3.985   0.361   4.150  0.3367  0.5153 -0.0448
16908TIP3    H172139   3.913   0.300   4.164  0.5217  0.1648 -0.6166
16908TIP3    H272140   4.035   0.358   4.232  0.4090 -0.1805 -0.1161
16909TIP3   OH272141   6.377   2.997   2.865 -0.3145  0.4076  0.0978
16909TIP3    H172142   6.372   2.934   2.937  1.5506  1.1135  0.8718
16909TIP3    H272143   6.403   2.945   2.789 -1.4004 -0.1854  0.1175
16910TIP3   OH272144   3.082   6.359   1.705 -0.3396 -0.1457 -0.0529
16910TIP3    H172145   3.096   6.392   1.794 -0.1054  1.3220 -0.6168
16910TIP3    H272146   3.125   6.273   1.704  1.2632  0.6291  0.7086
16911TIP3   OH272147   5.258   6.473  11.960 -0.2027  0.0480 -0.9251
16911TIP3    H172148   5.335   6.510  12.003 -0.5891 -0.4836  0.2289
16911TIP3    H272149   5.291   6.444  11.874  0.4128  1.7080 -1.2716
16912TIP3   OH272150   6.621   3.309   1.309  0.0398  0.0813  0.4312
16912TIP3    H172151   6.548   3.311   1.371  1.0860 -0.2900  1.7014
16912TIP3    H272152   6.638   3.401   1.289 -1.3332  0.1358 -0.5585
16913TIP3   OH272153   4.572   4.600  14.013 -0.0837 -0.2647  0.0419
16913TIP3    H172154   4.607   4.618  13.926  1.1980 -2.8556 -0.0296
16913TIP3    H272155   4.564   4.505  14.016 -0.3759 -0.1819  2.6614
16914TIP3   OH272156   1.009   4.830  12.449 -0.2869  0.0582  0.7846
16914TIP3    H172157   1.032   4.750  12.496 -0.3144 -0.3363  0.1302
16914TIP3    H272158   1.092   4.877  12.438 -0.0727 -0.4965  0.0266
16915TIP3   OH272159   0.050   4.803   0.302  0.6795 -0.0411  0.0279
16915TIP3    H172160   0.016   4.728   0.253  1.0744  1.5005 -2.7236
16915TIP3    H272161  -0.027   4.844   0.340  0.3675 -1.2788  0.7569
16916TIP3   OH272162   5.563   6.774  13.788  0.7843 -0.5261  0.1642
16916TIP3    H172163   5.572   6.762  13.693 -0.1997  1.3643 -0.2006
16916TIP3    H272164   5.472   6.753  13.807  0.6796  0.1864  0.4891
16917TIP3   OH272165   2.714   1.412   0.909  0.2340 -0.5736  0.0030
16917TIP3    H172166   2.725   1.360   0.829  0.5671  1.6044 -1.4125
16917TIP3    H272167   2.764   1.364   0.975  3.5136 -0.2646 -2.1049
16918TIP3   OH272168   6.107   0.697   5.585  0.1465  0.4323 -0.2565
16918TIP3    H172169   6.139   0.670   5.671 -0.7911 -1.1163 -0.3778
16918TIP3    H272170   6.015   0.670   5.584 -0.4264  2.3070 -0.9702
16919TIP3   OH272171   2.041   2.793   3.527  0.4009  0.2415  0.4919
16919TIP3    H172172   2.029   2.749   3.611 -0.8132  0.1408  0.2749
16919TIP3    H272173   2.070   2.723   3.468 -0.8932 -0.1538  0.3038
16920TIP3   OH272174   5.412   4.575   2.477 -0.2882 -0.2113 -0.1803
16920TIP3    H172175   5.350   4.616   2.416 -1.8573 -1.9669  0.2028
16920TIP3    H272176   5.467   4.520   2.421 -0.2140 -0.0228 -0.2941
16921TIP3   OH272177   5.166   4.453   2.823  0.6929 -0.4385 -0.2501
16921TIP3    H172178   5.226   4.500   2.764 -0.4836  0.0709 -1.0489
16921TIP3    H272179   5.138   4.377   2.773 -0.3364  0.0123 -0.3655
16922TIP3   OH272180   1.974   2.807   5.328 -0.3640  0.4873  0.0425
16922TIP3    H172181   1.972   2.843   5.239 -1.7266  1.9345  0.6175
16922TIP3    H272182   1.889   2.763   5.337 -0.0523 -0.0214  0.4800
16923TIP3   OH272183   4.304   0.316   4.246 -0.0508  0.1393  0.0566
16923TIP3    H172184   4.357   0.322   4.325  0.9661  0.6500 -0.6522
16923TIP3    H272185   4.364   0.286   4.178 -1.2118 -1.5756 -0.2559
16924TIP3   OH272186   2.479   2.345   4.107  0.1977  0.0986 -0.1939
16924TIP3    H172187   2.447   2.274   4.164  0.2184 -0.5504 -0.9846
16924TIP3    H272188   2.422   2.419   4.127 -1.8180 -1.0307 -1.5757
16925TIP3   OH272189   6.146   3.611   0.978 -0.7674  0.1183  0.2869
16925TIP3    H172190   6.076   3.586   1.038  0.6859 -0.1747  1.9206
16925TIP3    H272191   6.188   3.687   1.019  0.6554 -0.4838  0.0019
16926TIP3   OH272192   0.654   2.146   4.052 -0.3692  0.6796 -0.4325
16926TIP3    H172193   0.664   2.081   3.983  1.0439  1.3744 -0.9025
16926TIP3    H272194   0.593   2.210   4.016 -1.7014 -0.3192  0.0026
16927TIP3   OH272195   2.818   0.021  13.877 -0.3589  0.4791  0.1126
16927TIP3    H172196   2.768   0.096  13.844  0.9848  0.5771 -1.7893
16927TIP3    H272197   2.875  -0.004  13.804  0.1146 -1.6080  1.1606
16928TIP3   OH272198   2.777   6.585   5.071  0.0111 -0.1469 -0.3976
16928TIP3    H172199   2.781   6.602   5.165  0.3441 -1.8126 -0.0956
16928TIP3    H272200   2.734   6.500   5.064 -3.2928  1.5653 -1.9427
16929TIP3   OH272201   4.880   2.185  15.929 -0.3845 -0.5569  0.7535
16929TIP3    H172202   4.828   2.192  16.009 -1.0661 -1.4672  0.3954
16929TIP3    H272203   4.818   2.155  15.862  0.0470  0.7433 -0.2543
16930TIP3   OH272204   2.648   2.979  13.311 -0.2978 -0.2240 -0.0918
16930TIP3    H172205   2.613   2.962  13.224  0.8502 -2.4711 -0.1539
16930TIP3    H272206   2.700   3.060  13.301  0.9907 -1.2449 -1.8503
16931TIP3   OH272207   5.501   0.250   3.137 -0.2825  0.1415  0.4385
16931TIP3    H172208   5.548   0.325   3.173  0.2086 -0.2136  0.5331
16931TIP3    H272209   5.513   0.180   3.202 -0.2534 -0.1946  0.0717
16932TIP3   OH272210   3.567   2.006  12.211 -0.8549 -0.6884  0.2030
16932TIP3    H172211   3.483   1.981  12.173 -0.1502 -2.5384 -0.1748
16932TIP3    H272212   3.553   1.996  12.306 -1.6545  0.9553  0.2844
16933TIP3   OH272213   3.829   6.744  12.732 -0.0845  0.2121 -0.3734
16933TIP3    H172214   3.761   6.702  12.678 -0.8473  0.0915  0.6644
16933TIP3    H272215   3.824   6.698  12.815 -0.6710  2.1201  0.6660
16934TIP3   OH272216   3.225   4.896   1.013 -0.5909 -0.9015 -0.1400
16934TIP3    H172217   3.215   4.991   1.011  0.2314 -0.8122 -0.3211
16934TIP3    H272218   3.189   4.867   0.929  0.2222 -0.6347 -0.5891
16935TIP3   OH272219   0.971   2.024  15.933 -0.0643  0.2868  0.2270
16935TIP3    H172220   0.951   2.117  15.932 -4.2726 -0.5291 -0.4381
16935TIP3    H272221   1.001   2.005  15.844  0.5046  0.9397  0.2784
16936TIP3   OH272222   2.683   1.803   4.334 -0.1621  0.0305 -0.1654
16936TIP3    H172223   2.642   1.867   4.392 -0.1920 -0.3466  0.2326
16936TIP3    H272224   2.658   1.831   4.246 -1.2226 -0.1552  0.0710
16937TIP3   OH272225   1.981   3.529  15.067  0.3183  0.1173 -0.0103
16937TIP3    H172226   2.013   3.591  15.002  0.7133  0.6559  0.6966
16937TIP3    H272227   1.924   3.581  15.124  1.0077 -0.0713  0.8523
16938TIP3   OH272228   6.315   2.422  11.837 -0.0137 -0.1414 -0.0527
16938TIP3    H172229   6.339   2.396  11.925  0.5135  2.6250  0.6623
16938TIP3    H272230   6.338   2.347  11.782  0.2963 -1.6081  2.0483
16939TIP3   OH272231   0.334   2.617   6.363  0.3167  0.5324 -0.4842
16939TIP3    H172232   0.427   2.601   6.348 -0.0279 -1.9734 -0.2176
16939TIP3    H272233   0.321   2.599   6.456 -1.0023 -2.3973 -1.1877
16940TIP3   OH272234   1.100   3.051  11.831  0.0661 -0.2277  0.4513
16940TIP3    H172235   1.175   3.008  11.790  0.4567  0.2915  0.6217
16940TIP3    H272236   1.040   2.979  11.851  0.4893 -0.6404  0.2611
16941TIP3   OH272237   1.244   3.221  15.328  0.1914  0.4510 -0.8195
16941TIP3    H172238   1.249   3.137  15.372 -2.0567  0.1047 -1.1590
16941TIP3    H272239   1.289   3.282  15.387  0.8152 -0.7643 -0.0294
16942TIP3   OH272240   2.521   2.125  14.829  0.1258 -0.1184 -0.3851
16942TIP3    H172241   2.591   2.187  14.812  0.7605  0.5105  3.9550
16942TIP3    H272242   2.564   2.039  14.826  1.1423  0.2713  2.3573
16943TIP3   OH272243   6.055   5.702  14.147  0.5119 -0.2972 -0.0836
16943TIP3    H172244   5.992   5.774  14.153  0.7381 -0.1902  1.3102
16943TIP3    H272245   6.138   5.746  14.128  0.9474 -0.0037  2.3204
16944TIP3   OH272246   0.791   3.488  12.362  0.1275 -0.6942 -0.3228
16944TIP3    H172247   0.778   3.464  12.270 -1.4727 -2.7990  0.4111
16944TIP3    H272248   0.870   3.441  12.388  0.8852  0.3178 -0.7231
16945TIP3   OH272249   6.375   3.497   4.507 -0.6692  0.1662  0.1538
16945TIP3    H172250   6.352   3.585   4.537  0.1363  0.2879  0.4193
16945TIP3    H272251   6.462   3.506   4.470 -0.9635 -0.3393 -0.6725
16946TIP3   OH272252   0.164   0.149   2.308 -0.8622 -0.7388 -0.1503
16946TIP3    H172253   0.116   0.231   2.307 -2.0802 -1.4170  0.8211
16946TIP3    H272254   0.164   0.120   2.217  2.4702  1.9465 -1.0948
16947TIP3   OH272255   3.196   5.137  17.137 -0.0067  0.2715  0.4177
16947TIP3    H172256   3.153   5.074  17.195 -1.2615  0.9275  0.2301
16947TIP3    H272257   3.178   5.105  17.049  0.6394  0.0737  0.3576
16948TIP3   OH272258   3.574   6.360   2.120  0.6003 -0.2120 -0.5025
16948TIP3    H172259   3.533   6.421   2.180  0.4553  0.0872 -0.9013
16948TIP3    H272260   3.546   6.389   2.033  1.1720 -0.3597 -0.7437
16949TIP3   OH272261   3.047   4.969  15.405 -0.3094 -0.6960 -1.0179
16949TIP3    H172262   3.032   4.875  15.415 -0.4388 -0.5311  0.4406
16949TIP3    H272263   3.142   4.978  15.407 -0.3195 -0.6828  0.1536
16950TIP3   OH272264   0.477   4.704  15.438 -0.5763  0.0627  0.0453
16950TIP3    H172265   0.503   4.637  15.375  1.7297 -1.4280  2.4743
16950TIP3    H272266   0.538   4.776  15.424 -1.3412  0.5770 -0.7325
16951TIP3   OH272267   6.754   3.224   3.023  0.1677 -0.0005  0.4362
16951TIP3    H172268   6.775   3.140   2.984 -0.6429  0.3218 -0.7049
16951TIP3    H272269   6.664   3.215   3.054  0.3576  0.1771  1.0481
16952TIP3   OH272270   0.800   4.083   2.442 -0.3151 -0.9232 -0.2988
16952TIP3    H172271   0.728   4.133   2.481 -0.7057  0.4463 -2.6140
16952TIP3    H272272   0.846   4.148   2.387  0.3540 -2.6605 -1.8370
16953TIP3   OH272273   2.837   4.271  14.116 -0.0308  0.0810  0.3756
16953TIP3    H172274   2.902   4.263  14.045 -0.6334  1.1423 -0.3115
16953TIP3    H272275   2.813   4.181  14.136  3.0427 -0.4485  1.9579
16954TIP3   OH272276   1.615   5.111   4.678  0.2707 -0.2595  0.2760
16954TIP3    H172277   1.623   5.020   4.649 -0.3662 -0.1475 -0.2648
16954TIP3    H272278   1.604   5.104   4.773  0.4270 -0.7379  0.2622
16955TIP3   OH272279   2.287   2.764   0.460 -0.8572  0.5201 -0.0020
16955TIP3    H172280   2.312   2.723   0.377 -0.8695  2.6816 -1.1141
16955TIP3    H272281   2.222   2.705   0.498  0.0825 -1.1398 -0.9034
16956TIP3   OH272282   5.665   1.218  13.360  0.0726 -0.1575 -0.2853
16956TIP3    H172283   5.582   1.262  13.342  0.3404 -0.1597 -1.6190
16956TIP3    H272284   5.725   1.289  13.384  0.0117 -0.0030 -0.5837
16957TIP3   OH272285   1.442   0.090  16.510 -0.4714 -0.4150 -0.4866
16957TIP3    H172286   1.363   0.139  16.485 -0.3417 -0.1793 -0.4359
16957TIP3    H272287   1.446   0.098  16.606  1.0672  1.8163 -0.7005
16958TIP3   OH272288   6.474   5.619   0.890  0.6503 -0.4228 -0.5557
16958TIP3    H172289   6.432   5.559   0.827 -0.9723  1.4762 -1.3379
16958TIP3    H272290   6.567   5.610   0.872  0.4922 -3.0263 -0.3538
16959TIP3   OH272291   0.608   0.040   1.652  0.2254 -0.1288  0.0077
16959TIP3    H172292   0.610   0.094   1.573  0.2881 -0.0000  0.0969
16959TIP3    H272293   0.556   0.091   1.714 -1.0035 -0.8455 -0.3987
16960TIP3   OH272294   2.781   6.097  13.005 -0.4045 -0.6025 -0.0024
16960TIP3    H172295   2.776   6.181  12.958  1.5334 -0.7864 -0.5844
16960TIP3    H272296   2.823   6.037  12.943  0.5383 -1.3277  1.3111
16961TIP3   OH272297   5.562   4.790  14.926 -0.4115 -0.1723 -0.0519
16961TIP3    H172298   5.495   4.765  14.863 -0.6953 -1.4232  0.7385
16961TIP3    H272299   5.577   4.712  14.979  0.7886  0.4557  0.5772
16962TIP3   OH272300   4.696   5.256  14.639 -0.1634 -0.3324 -0.3807
16962TIP3    H172301   4.625   5.318  14.657 -1.6784 -1.9197 -0.6881
16962TIP3    H272302   4.744   5.249  14.721  0.7005  2.0754 -0.6656
16963TIP3   OH272303   1.032   5.093  16.333 -0.3081  0.1334  0.1098
16963TIP3    H172304   1.085   5.020  16.300 -1.1233 -0.4815  0.1609
16963TIP3    H272305   1.036   5.085  16.428 -0.0944  0.3830  0.1255
16964TIP3   OH272306   6.250   5.612   5.803  0.6774  0.8439  0.2472
16964TIP3    H172307   6.188   5.575   5.866 -0.1002  2.0234  0.1993
16964TIP3    H272308   6.297   5.536   5.768  0.7387  0.1317  1.8422
16965TIP3   OH272309   6.232   5.162   6.477 -0.0936  0.4432 -0.7089
16965TIP3    H172310   6.181   5.081   6.489  1.4062 -0.6665 -1.5661
16965TIP3    H272311   6.302   5.156   6.543  1.6168 -0.2999 -2.5406
16966TIP3   OH272312   1.439   1.983  15.533 -0.4236 -0.0254 -0.1314
16966TIP3    H172313   1.350   2.002  15.564 -0.4629  2.5678 -1.7155
16966TIP3    H272314   1.429   1.905  15.478 -1.7121  0.2275 -0.2694
16967TIP3   OH272315   2.647   1.477   1.562 -0.0160 -0.2682  0.0193
16967TIP3    H172316   2.552   1.468   1.565 -0.0825  0.4589  0.2527
16967TIP3    H272317   2.672   1.502   1.651  0.2547  0.7350 -0.3257
16968TIP3   OH272318   0.211   1.143   2.848  0.0786 -0.3507  0.1472
16968TIP3    H172319   0.299   1.158   2.882 -0.2904 -0.6951  1.2934
16968TIP3    H272320   0.177   1.071   2.901 -0.9573 -0.0923 -0.1566
16969TIP3   OH272321   2.585   5.239   2.769 -0.1678 -0.2690  0.6447
16969TIP3    H172322   2.529   5.184   2.715 -0.1991 -0.5995  1.0199
16969TIP3    H272323   2.633   5.293   2.705 -1.2734  0.3744  0.3428
16970TIP3   OH272324   5.581   1.847   2.519  0.1997  0.2566 -0.1169
16970TIP3    H172325   5.510   1.818   2.576  2.4241 -1.6430  1.8255
16970TIP3    H272326   5.585   1.781   2.449  1.0383 -0.5175  0.6507
16971TIP3   OH272327   0.979   3.798   2.307 -0.9366 -0.0748 -0.4689
16971TIP3    H172328   0.923   3.876   2.305  0.2449  0.8190  0.7408
16971TIP3    H272329   0.940   3.742   2.373 -0.3405  0.6104  0.4766
16972TIP3   OH272330   2.348   6.357  14.159  0.1059 -0.4749 -0.5756
16972TIP3    H172331   2.285   6.420  14.126 -1.9803 -0.7660  2.6467
16972TIP3    H272332   2.392   6.402  14.231  0.3338 -1.8443  0.1581
16973TIP3   OH272333   5.050   3.345   4.132  0.2684 -0.5151  0.3269
16973TIP3    H172334   5.098   3.425   4.153  0.3772 -0.2075 -1.0688
16973TIP3    H272335   5.115   3.276   4.140  0.8485 -0.1459 -1.1429
16974TIP3   OH272336   1.847   2.901   5.748 -0.3127  0.4792 -0.5984
16974TIP3    H172337   1.821   2.879   5.837  0.7958  0.4641 -0.2705
16974TIP3    H272338   1.773   2.874   5.694 -0.7862  0.0258  0.2660
16975TIP3   OH272339   5.829   5.732   0.921 -0.4943 -0.6601 -0.5895
16975TIP3    H172340   5.849   5.674   0.849 -2.0051  0.2632 -1.7832
16975TIP3    H272341   5.905   5.726   0.979  1.8600  0.4252 -3.4289
16976TIP3   OH272342   5.038   3.082   2.106 -0.0636 -0.4676 -0.0465
16976TIP3    H172343   4.947   3.087   2.133 -0.0940 -2.0798  0.1936
16976TIP3    H272344   5.050   2.992   2.077  1.6582 -0.4854  0.6698
16977TIP3   OH272345   3.282   1.577  15.422 -0.4442  0.3897 -0.1250
16977TIP3    H172346   3.292   1.672  15.407  0.2297  0.6099  1.5965
16977TIP3    H272347   3.199   1.555  15.381  0.5123  1.2427 -2.6916
16978TIP3   OH272348   3.560   1.617   6.396 -0.3146  0.1408 -0.3198
16978TIP3    H172349   3.626   1.683   6.414 -1.8477  1.4284  0.6918
16978TIP3    H272350   3.600   1.560   6.330  2.3880 -0.0363  1.4142
16979TIP3   OH272351   3.711   0.898   2.450  0.2813  0.4670  0.2001
16979TIP3    H172352   3.696   0.888   2.356  0.0607  0.4987  0.2330
16979TIP3    H272353   3.648   0.838   2.491 -0.7353  1.6571  0.3821
16980TIP3   OH272354   6.000   5.218   2.147  0.2264 -0.4113 -0.2540
16980TIP3    H172355   6.074   5.278   2.136 -0.7516  1.2387  1.8770
16980TIP3    H272356   5.926   5.265   2.110 -0.5679 -0.2308  1.5234
16981TIP3   OH272357   4.334   5.275   4.930  0.4152  0.1958  0.3093
16981TIP3    H172358   4.338   5.214   5.003  1.5622 -1.3060 -0.9855
16981TIP3    H272359   4.422   5.274   4.893 -0.7528 -0.9199 -2.5677
16982TIP3   OH272360   4.489   1.285   2.645  0.7470  0.1792 -0.6832
16982TIP3    H172361   4.498   1.234   2.725  0.8975  0.6345 -0.4089
16982TIP3    H272362   4.465   1.373   2.675  2.1520  0.7014 -1.0569
16983TIP3   OH272363   0.132   0.602   0.800  0.2607 -0.2839 -0.0081
16983TIP3    H172364   0.167   0.638   0.719 -0.3960 -0.0930 -0.2057
16983TIP3    H272365   0.040   0.585   0.782  0.0903 -0.1757  0.7149
16984TIP3   OH272366   5.859   1.889   2.979 -0.4000  0.1174 -0.1544
16984TIP3    H172367   5.783   1.836   2.955  0.7639 -0.5999 -2.4150
16984TIP3    H272368   5.915   1.886   2.902  1.2821  1.8068  0.9673
16985TIP3   OH272369   3.500   0.994  14.998 -0.3938  0.0412 -0.2519
16985TIP3    H172370   3.579   0.957  15.037  0.3262  0.4131 -1.3248
16985TIP3    H272371   3.442   1.010  15.072  1.0553  1.0050  0.7157
16986TIP3   OH272372   1.293   4.835   2.237 -0.3285 -0.2393 -0.0770
16986TIP3    H172373   1.281   4.757   2.292 -0.2523 -0.9699 -1.0959
16986TIP3    H272374   1.208   4.849   2.195  0.4345 -1.4590 -2.0865
16987TIP3   OH272375   3.253   3.979   4.916 -0.2889 -0.1883  0.2197
16987TIP3    H172376   3.311   3.906   4.937 -1.4478 -0.9837  0.6691
16987TIP3    H272377   3.286   4.011   4.832  0.6368 -0.7959  0.3350
16988TIP3   OH272378   1.401   1.244   2.936 -0.9885 -0.0572  0.2616
16988TIP3    H172379   1.391   1.164   2.988 -0.2653  0.4221  1.1705
16988TIP3    H272380   1.376   1.219   2.847 -0.7590 -1.2877  0.5375
16989TIP3   OH272381   2.476   0.866   3.865 -0.1504 -0.8593  0.1481
16989TIP3    H172382   2.515   0.780   3.883  0.0148 -1.0698 -1.1493
16989TIP3    H272383   2.430   0.889   3.946 -0.2341 -2.1970  0.5004
16990TIP3   OH272384   1.144   4.281  16.675  0.2684  0.7067  0.7674
16990TIP3    H172385   1.171   4.206  16.728 -1.2826 -0.9996 -0.7493
16990TIP3    H272386   1.115   4.242  16.592 -0.6003  2.9919 -0.0513
16991TIP3   OH272387   2.944   5.478  14.718  0.0944 -0.0973  0.7452
16991TIP3    H172388   2.948   5.432  14.802  1.2541  0.5418  1.0562
16991TIP3    H272389   2.949   5.571  14.741 -0.9797  0.1433  0.0443
16992TIP3   OH272390   5.318   3.309  13.128  0.1149  0.2126 -0.0241
16992TIP3    H172391   5.395   3.317  13.184 -0.2815  1.5737  0.3543
16992TIP3    H272392   5.353   3.282  13.043  1.0553  1.1533  0.0561
16993TIP3   OH272393   5.372   2.466  12.959  0.2574  0.0344 -0.3136
16993TIP3    H172394   5.427   2.393  12.987 -0.4064 -0.2289  0.3029
16993TIP3    H272395   5.370   2.525  13.035 -0.0043  0.2272 -0.4689
16994TIP3   OH272396   5.296   0.521  16.973 -0.5308 -0.1890  0.1839
16994TIP3    H172397   5.325   0.607  16.941  2.0037 -0.7764  0.8009
16994TIP3    H272398   5.287   0.468  16.894  0.9571 -0.2202  0.0059
16995TIP3   OH272399   6.678   0.315  11.131 -0.2863  0.6723  0.6459
16995TIP3    H172400   6.627   0.394  11.115  2.1919  2.2545  0.2529
16995TIP3    H272401   6.678   0.304  11.226 -1.1726  0.7819  0.6556
16996TIP3   OH272402   6.267   6.080  17.013 -0.1325  0.9446  0.1345
16996TIP3    H172403   6.352   6.122  17.018  0.2967 -0.0360  1.8979
16996TIP3    H272404   6.205   6.147  17.040  0.2192  1.3325 -0.0264
16997TIP3   OH272405   4.531   1.790  14.475 -0.2824  0.1848  0.2479
16997TIP3    H172406   4.488   1.860  14.524  1.1788  0.1611  1.5986
16997TIP3    H272407   4.460   1.733  14.446 -1.3701  1.5481  0.2129
16998TIP3   OH272408   0.671   1.308  15.064  0.7485 -0.6058  0.6393
16998TIP3    H172409   0.766   1.301  15.052  0.6928 -0.6973  0.2702
16998TIP3    H272410   0.643   1.219  15.083  0.6092 -0.7191 -0.1182
16999TIP3   OH272411   5.517   4.162   5.805  0.1201  0.2602 -0.3607
16999TIP3    H172412   5.596   4.216   5.804  1.3262 -1.4061  1.2038
16999TIP3    H272413   5.533   4.095   5.739  0.5165 -0.7206  0.7042
17000TIP3   OH272414   2.466   1.147  13.926  0.5767  0.0525 -0.0280
17000TIP3    H172415   2.386   1.190  13.898  0.5819  0.1672  0.1347
17000TIP3    H272416   2.438   1.083  13.992  0.2925 -1.7107 -1.7952
17001TIP3   OH272417   5.308   1.130  16.309  0.3088  0.3043  0.2631
17001TIP3    H172418   5.366   1.130  16.385  0.9268 -0.1819 -0.2005
17001TIP3    H272419   5.264   1.214  16.313 -0.6746 -0.2636  1.9234
17002TIP3   OH272420   1.680   2.725   5.584 -0.0573  0.0305 -0.8366
17002TIP3    H172421   1.640   2.695   5.665  1.1986 -0.7193 -0.4706
17002TIP3    H272422   1.733   2.650   5.554  1.1994  1.0392 -1.1996
17003TIP3   OH272423   4.875   3.215  14.621  0.1293 -0.0819 -0.5359
17003TIP3    H172424   4.797   3.242  14.669  0.1332 -1.8402  0.5168
17003TIP3    H272425   4.932   3.292  14.623 -0.6770  0.5006  0.6269
17004TIP3   OH272426   0.463   0.998  12.104 -0.0623 -0.0676 -0.3432
17004TIP3    H172427   0.446   1.090  12.085 -2.5057 -0.3540  0.3114
17004TIP3    H272428   0.556   0.995  12.124  0.0060  2.3072 -0.1358
17005TIP3   OH272429   5.956   2.984  14.537 -0.6046  1.1017 -0.3781
17005TIP3    H172430   5.876   3.032  14.515 -0.9132  1.7165  1.8917
17005TIP3    H272431   5.925   2.909  14.588  0.2164  0.9996 -0.0257
17006TIP3   OH272432   2.547   3.044  13.583  0.1610 -0.2178  0.0301
17006TIP3    H172433   2.527   3.136  13.572 -0.3629 -0.4447 -0.9498
17006TIP3    H272434   2.538   3.006  13.496  0.1227 -1.2399  0.4603
17007TIP3   OH272435   4.362   5.106  16.819  0.3172  0.2758  0.0496
17007TIP3    H172436   4.302   5.138  16.887 -0.2626 -1.2506  0.2746
17007TIP3    H272437   4.326   5.020  16.795  0.2650  0.9978 -2.5031
17008TIP3   OH272438   3.961   4.914  15.584  0.2114 -0.3225  0.1051
17008TIP3    H172439   4.016   4.845  15.546  1.0641 -0.2190  1.1291
17008TIP3    H272440   3.896   4.867  15.636  1.2904 -0.3461  1.4624
17009TIP3   OH272441   5.798   6.462   3.399 -0.6492 -0.2891 -0.3489
17009TIP3    H172442   5.820   6.555   3.398 -1.5982 -0.0671 -3.1312
17009TIP3    H272443   5.867   6.420   3.348 -0.2307 -1.1507  0.8831
17010TIP3   OH272444   2.208   5.781   0.439  0.0790  0.2750  1.0553
17010TIP3    H172445   2.271   5.843   0.474 -1.6478  1.4655  2.1680
17010TIP3    H272446   2.126   5.830   0.434 -1.0181 -1.5216  0.6681
17011TIP3   OH272447   4.351   5.691  15.977  0.0951  0.1964  0.4157
17011TIP3    H172448   4.407   5.696  15.900 -1.8127 -2.3302 -1.1915
17011TIP3    H272449   4.294   5.768  15.970  0.6173  0.5380 -0.1357
17012TIP3   OH272450   4.321   0.787   3.800  0.0043 -0.0817 -0.0414
17012TIP3    H172451   4.291   0.873   3.769 -1.1406 -0.7275 -0.7553
17012TIP3    H272452   4.354   0.743   3.721 -1.0275 -0.9555  0.0083
17013TIP3   OH272453   0.509   2.749  16.045  0.5304 -0.4577  0.0185
17013TIP3    H172454   0.575   2.680  16.043  0.3696 -0.6257  0.4740
17013TIP3    H272455   0.506   2.782  15.955  0.9522 -0.7175 -0.0922
17014TIP3   OH272456   4.133   0.219  14.200 -0.0204 -0.0046 -0.3766
17014TIP3    H172457   4.162   0.310  14.212  0.2685 -0.4411  2.8432
17014TIP3    H272458   4.213   0.171  14.182  0.0757  0.1182 -0.2849
17015TIP3   OH272459   5.025   1.342   3.085  0.0059  0.0794 -0.4290
17015TIP3    H172460   5.034   1.249   3.106 -1.2937  0.0876  0.2371
17015TIP3    H272461   5.114   1.376   3.085  0.3750 -0.8528  0.8012
17016TIP3   OH272462   1.670   0.477   2.106 -0.5376 -0.4540 -0.0755
17016TIP3    H172463   1.698   0.482   2.198 -2.1815  2.1502  0.3278
17016TIP3    H272464   1.600   0.413   2.106 -0.2405 -0.7868  0.4022
17017TIP3   OH272465   6.396   0.213  14.346  0.7264  0.7326 -0.3856
17017TIP3    H172466   6.300   0.219  14.349  0.7348  0.1670  2.2098
17017TIP3    H272467   6.422   0.204  14.438  3.3024  1.2796 -1.0329
17018TIP3   OH272468   0.739   5.565  14.194 -0.2078  0.1850 -0.1589
17018TIP3    H172469   0.653   5.534  14.165  1.0311 -2.1119 -1.6078
17018TIP3    H272470   0.744   5.540  14.287 -1.2589  0.6808  0.0285
17019TIP3   OH272471   6.498   0.307  17.067  0.3388 -0.0300  0.1987
17019TIP3    H172472   6.586   0.316  17.105 -0.2864  2.4269  1.1438
17019TIP3    H272473   6.444   0.368  17.117 -1.5831 -0.3530 -1.4295
17020TIP3   OH272474   3.111   0.152  16.617 -0.6060 -0.4764 -0.1451
17020TIP3    H172475   3.198   0.152  16.656 -0.9374 -0.1979  0.6070
17020TIP3    H272476   3.069   0.073  16.651 -1.0659  0.0191  0.4471
17021TIP3   OH272477   3.076   4.550   3.060  0.5312 -0.2588  0.4486
17021TIP3    H172478   3.001   4.531   3.004  0.5645 -0.1051  0.3508
17021TIP3    H272479   3.055   4.635   3.100 -0.3948 -1.3018  2.2110
17022TIP3   OH272480   6.070   0.303  13.357  0.8156 -0.1450  0.0196
17022TIP3    H172481   6.141   0.359  13.390  1.1351 -0.3962 -0.2370
17022TIP3    H272482   5.990   0.352  13.378  1.1353  0.8567 -1.0261
17023TIP3   OH272483   4.412   0.193  10.855  0.0790 -0.0375 -0.1949
17023TIP3    H172484   4.363   0.158  10.929 -1.1458  1.5327 -0.2210
17023TIP3    H272485   4.345   0.234  10.799  1.3459  1.6230 -0.5415
17024TIP3   OH272486   4.787   3.566   1.109  0.3944  0.0801  0.1005
17024TIP3    H172487   4.791   3.657   1.080  0.3556  0.1893  0.4335
17024TIP3    H272488   4.697   3.556   1.140  0.1048 -0.3576 -0.8611
17025TIP3   OH272489   4.999   3.795   0.890  0.9541  0.0181  0.4348
17025TIP3    H172490   5.026   3.842   0.968  1.3347 -2.0249  1.5500
17025TIP3    H272491   5.023   3.704   0.906  0.1091 -0.6082 -1.6247
17026TIP3   OH272492   5.448   4.790   0.172 -0.3852  0.6216 -0.0148
17026TIP3    H172493   5.519   4.851   0.189  1.6152 -1.7824  0.4560
17026TIP3    H272494   5.377   4.818   0.230  1.0886  1.4684  1.3881
17027TIP3   OH272495   3.574   4.033  16.152 -0.7259  0.0150 -0.0617
17027TIP3    H172496   3.619   4.053  16.234  0.8925 -0.0173 -0.9096
17027TIP3    H272497   3.555   3.939  16.157  1.5226 -0.4961 -0.7250
17028TIP3   OH272498   5.840   6.402   1.754 -0.6720 -0.4489  0.1100
17028TIP3    H172499   5.791   6.402   1.673 -0.3650 -3.1950 -0.1261
17028TIP3    H272500   5.865   6.311   1.768  2.2814  0.4729  1.4640
17029TIP3   OH272501   1.673   2.030  13.213 -0.3827  0.3437  0.1716
17029TIP3    H172502   1.661   1.965  13.282  1.4796 -0.5824 -0.3545
17029TIP3    H272503   1.677   1.979  13.132  2.8678  0.9329 -0.0801
17030TIP3   OH272504   2.131   0.134   6.694  0.6592  0.9539  0.3031
17030TIP3    H172505   2.061   0.124   6.759  1.8300  0.3985  1.4933
17030TIP3    H272506   2.093   0.101   6.612 -0.3979  0.4444  0.9889
17031TIP3   OH272507   4.452   0.541  12.156  0.3246 -0.1358  0.1713
17031TIP3    H172508   4.392   0.473  12.127 -0.8537  0.9843 -0.0578
17031TIP3    H272509   4.418   0.570  12.241  0.2079  0.8951 -0.2162
17032TIP3   OH272510   6.127   5.848   4.554  0.2056  0.4579  0.2178
17032TIP3    H172511   6.213   5.831   4.593 -0.1871 -3.8727 -0.6369
17032TIP3    H272512   6.146   5.875   4.464  0.6537 -1.2742 -0.2124
17033TIP3   OH272513   4.267   5.205  10.920 -0.7532  0.6270 -0.8201
17033TIP3    H172514   4.272   5.156  10.838 -1.1840  0.0764 -0.5167
17033TIP3    H272515   4.187   5.257  10.912  0.1136  1.8882 -1.4728
17034TIP3   OH272516   1.628   0.026   1.392 -0.2240 -0.6209  0.4414
17034TIP3    H172517   1.701   0.050   1.450 -0.8009  0.2191  0.8358
17034TIP3    H272518   1.589   0.110   1.368  0.5516 -0.9072 -1.9097
17035TIP3   OH272519   2.836   5.597   5.630 -0.3344 -0.3667 -0.3613
17035TIP3    H172520   2.861   5.673   5.682 -0.9895  0.0067 -0.5782
17035TIP3    H272521   2.758   5.563   5.675 -0.7023 -0.2417 -0.9034
17036TIP3   OH272522   5.271   4.276   5.655  0.4170  0.2390  0.0269
17036TIP3    H172523   5.297   4.364   5.629 -1.4760  0.7323 -0.3058
17036TIP3    H272524   5.213   4.246   5.585 -0.4002 -0.5514  1.0153
17037TIP3   OH272525   1.304   2.411  15.674 -0.0330  0.4559  0.3721
17037TIP3    H172526   1.370   2.349  15.643  0.1027  0.2754  1.0058
17037TIP3    H272527   1.347   2.496  15.672  0.4595  0.2390  1.4728
17038TIP3   OH272528   3.047   5.047  15.058  0.1806 -0.2479  0.0980
17038TIP3    H172529   3.072   4.978  15.120 -2.2604 -0.2227  1.1365
17038TIP3    H272530   3.129   5.070  15.015  1.2927 -2.8235  0.7276
17039TIP3   OH272531   0.918   1.009  11.560 -0.5644  0.2344 -0.0610
17039TIP3    H172532   0.990   0.976  11.505 -0.4348 -1.1143  0.8941
17039TIP3    H272533   0.884   1.084  11.512  2.0618  1.4408 -0.0979
17040TIP3   OH272534   6.736   4.268  15.322  0.3258  0.6255 -0.0593
17040TIP3    H172535   6.677   4.343  15.321 -1.7100 -0.9270 -1.3094
17040TIP3    H272536   6.734   4.238  15.413  1.4223  2.2501  0.5256
17041TIP3   OH272537   1.895   1.613   5.678  0.5639  0.0416  0.1220
17041TIP3    H172538   1.879   1.520   5.668 -3.3310  0.4614  1.7310
17041TIP3    H272539   1.897   1.628   5.773 -1.9658  2.0295 -0.0911
17042TIP3   OH272540   3.799   6.446   4.173 -0.3371  0.2156 -0.4645
17042TIP3    H172541   3.833   6.535   4.169  0.7018 -0.1957 -0.8586
17042TIP3    H272542   3.720   6.453   4.226  1.9835  0.6814  3.0800
17043TIP3   OH272543   5.773   1.436   1.697 -0.4490 -0.4622 -0.5695
17043TIP3    H172544   5.769   1.442   1.792  1.0151 -0.3654 -0.5040
17043TIP3    H272545   5.700   1.379   1.673 -0.3569 -1.1096  0.6716
17044TIP3   OH272546   5.107   5.649   1.223 -0.4217  0.5405 -0.2538
17044TIP3    H172547   5.193   5.619   1.251 -0.3883 -0.4858 -1.4163
17044TIP3    H272548   5.119   5.674   1.131 -1.7014 -1.0008 -0.8576
17045TIP3   OH272549   0.399   3.962   5.175 -0.1705 -0.7685 -0.2270
17045TIP3    H172550   0.447   4.028   5.124 -0.4413 -1.5480 -1.4978
17045TIP3    H272551   0.377   4.007   5.257  1.6099  0.0020 -0.1451
17046TIP3   OH272552   2.327   3.819  13.129 -0.1156 -0.4847 -0.0098
17046TIP3    H172553   2.398   3.834  13.192 -2.4604  1.7015  2.2552
17046TIP3    H272554   2.348   3.876  13.056  0.3698  0.3182  0.7407
17047TIP3   OH272555   4.249   6.216  15.097  0.2172 -0.2704  0.1597
17047TIP3    H172556   4.265   6.309  15.114 -3.1616  0.4151 -0.0873
17047TIP3    H272557   4.321   6.190  15.039  1.3716  2.1022  0.4694
17048TIP3   OH272558   1.035   2.120   0.391 -0.6024  0.0135  0.0763
17048TIP3    H172559   0.959   2.062   0.381  0.5208 -1.6330  0.8036
17048TIP3    H272560   0.998   2.208   0.390 -2.3724 -0.7002 -1.0194
17049TIP3   OH272561   1.736   1.047   4.222  0.0764 -0.1470 -0.6639
17049TIP3    H172562   1.745   1.070   4.129  2.0147  1.5997 -0.0845
17049TIP3    H272563   1.746   1.130   4.268  0.2985 -1.1691  1.1871
17050TIP3   OH272564   6.670   4.390  12.150 -0.7763  0.0168  0.7899
17050TIP3    H172565   6.594   4.447  12.158 -0.2273  0.6132  1.8835
17050TIP3    H272566   6.737   4.444  12.110 -1.0665 -0.6452 -0.5963
17051TIP3   OH272567   4.283   4.177  14.573  0.3569 -0.0901  0.3980
17051TIP3    H172568   4.299   4.217  14.658 -2.8484 -2.0264  2.0352
17051TIP3    H272569   4.214   4.230  14.533  2.5844  1.4478 -1.5194
17052TIP3   OH272570   3.854   5.494   2.786  0.4592 -0.1022  0.5775
17052TIP3    H172571   3.795   5.569   2.781 -0.3813 -0.6623  1.9330
17052TIP3    H272572   3.868   5.469   2.695 -1.5926 -0.1001  0.2336
17053TIP3   OH272573   6.172   3.490  13.562 -0.1983 -0.0678  0.1343
17053TIP3    H172574   6.178   3.416  13.502  0.2145  0.5084 -0.5330
17053TIP3    H272575   6.249   3.482  13.618  0.1449  0.1713 -0.3000
17054TIP3   OH272576   4.387   5.166  12.416 -0.5084  0.2171  0.1586
17054TIP3    H172577   4.457   5.113  12.454 -1.8997 -1.3879  0.5461
17054TIP3    H272578   4.409   5.171  12.323  0.4480  0.2392  0.3793
17055TIP3   OH272579   1.166   5.934   1.512 -0.3566  0.0069  0.0777
17055TIP3    H172580   1.182   5.971   1.599  2.7264 -1.7789  0.3340
17055TIP3    H272581   1.076   5.904   1.515 -1.5067  3.3490  1.3683
17056TIP3   OH272582   1.876   2.119   6.207 -0.3087  0.1227  0.5928
17056TIP3    H172583   1.784   2.131   6.183 -0.3783  0.5335  1.0412
17056TIP3    H272584   1.921   2.193   6.166 -0.3371  0.4913  1.2196
17057TIP3   OH272585   5.432   4.350  14.770  0.1824 -0.0701  0.5005
17057TIP3    H172586   5.449   4.282  14.705  0.1294 -1.8509  2.2825
17057TIP3    H272587   5.503   4.340  14.834  0.1954  1.5916  0.7828
17058TIP3   OH272588   5.050   1.891  12.847  0.1563  0.0998  0.4321
17058TIP3    H172589   4.989   1.847  12.787  2.6604 -0.0003 -2.1858
17058TIP3    H272590   5.118   1.825  12.864  1.7304  1.5522 -0.1150
17059TIP3   OH272591   0.851   6.700   3.420  0.8505 -0.6432 -0.3167
17059TIP3    H172592   0.916   6.641   3.383  1.9685  0.7382 -0.6411
17059TIP3    H272593   0.855   6.778   3.364 -0.8749 -0.4170 -0.1510
17060TIP3   OH272594   0.871   6.662  15.449  0.3606  0.0632 -0.0632
17060TIP3    H172595   0.834   6.589  15.499  0.4612  0.9640  1.3444
17060TIP3    H272596   0.855   6.739  15.503  0.5462  1.0432 -1.3926
17061TIP3   OH272597   0.779   4.648  12.260  0.0692 -0.0184 -0.5894
17061TIP3    H172598   0.816   4.686  12.180  2.5456  1.1358  1.0507
17061TIP3    H272599   0.844   4.582  12.287 -0.6547 -0.2698  0.5679
17062TIP3   OH272600   6.041   6.423   1.991 -0.1447 -0.8076  0.6410
17062TIP3    H172601   6.112   6.377   1.948  0.3954  0.6022  0.0189
17062TIP3    H272602   6.083   6.469   2.064 -0.2475  0.8223 -0.3183
17063TIP3   OH272603   3.986   0.013  12.519  0.0409  0.1988 -0.3722
17063TIP3    H172604   4.009   0.101  12.547 -1.9139  0.9206 -0.9693
17063TIP3    H272605   3.926  -0.019  12.587  0.1230 -0.3634 -0.5622
17064TIP3   OH272606   0.397   5.787  10.109 -0.5795  0.2312  0.4990
17064TIP3    H172607   0.429   5.877  10.119 -2.2942  0.7889  1.2717
17064TIP3    H272608   0.304   5.792  10.133 -1.1808 -1.3680 -1.3244
17065TIP3   OH272609   0.457   0.345   3.823 -0.1699  0.0339 -0.3083
17065TIP3    H172610   0.443   0.253   3.844 -0.6332  0.5256  1.5755
17065TIP3    H272611   0.471   0.346   3.728  0.0570 -1.9936 -0.3151
17066TIP3   OH272612   1.038   5.546   2.770  0.4256  0.0596  0.1497
17066TIP3    H172613   1.064   5.523   2.681  1.3494 -1.1830  0.7274
17066TIP3    H272614   0.970   5.482   2.793  0.1965  0.3694  0.3414
17067TIP3   OH272615   3.741   4.124  11.075 -0.0538  0.8117 -0.5787
17067TIP3    H172616   3.788   4.050  11.113  0.9393  1.7347  0.0334
17067TIP3    H272617   3.774   4.128  10.984  1.9078  2.0989  0.1432
17068TIP3   OH272618   6.298   1.614  14.827  0.5384 -0.5772  0.3851
17068TIP3    H172619   6.327   1.697  14.866 -0.4833 -0.4019  0.8093
17068TIP3    H272620   6.320   1.548  14.892 -1.7367 -0.2107  1.6050
17069TIP3   OH272621   2.571   2.439  15.264  0.3993 -0.2656 -0.1769
17069TIP3    H172622   2.515   2.432  15.186 -0.5636 -0.4046  0.5127
17069TIP3    H272623   2.658   2.456  15.230  0.0768 -0.8609 -1.3116
17070TIP3   OH272624   0.543   0.005  16.479  0.5378  0.2759 -0.4350
17070TIP3    H172625   0.498   0.089  16.468 -0.5488 -0.0790  1.1895
17070TIP3    H272626   0.630   0.028  16.510 -0.2397  0.7504  1.4365
17071TIP3   OH272627   4.004   3.569  16.493  0.5086 -0.0428 -0.3030
17071TIP3    H172628   4.048   3.496  16.538  1.2039 -0.6882 -1.9909
17071TIP3    H272629   3.919   3.535  16.468  1.0637 -0.5066 -1.6300
17072TIP3   OH272630   3.562   4.338  11.390  0.1437  0.2236  0.1124
17072TIP3    H172631   3.490   4.276  11.378 -0.3018  0.9160 -0.8044
17072TIP3    H272632   3.521   4.416  11.426 -0.0194  1.6227 -2.9975
17073TIP3   OH272633   3.207   2.656   3.727 -0.8093  0.1258  0.0567
17073TIP3    H172634   3.130   2.602   3.710 -2.8578  3.0338 -0.3123
17073TIP3    H272635   3.216   2.656   3.822 -1.6857  0.2687  0.1482
17074TIP3   OH272636   1.701   6.619  12.270 -0.0118  0.4243 -0.1664
17074TIP3    H172637   1.652   6.626  12.352 -0.7177 -0.5154 -0.4895
17074TIP3    H272638   1.793   6.622  12.296 -0.2417  1.5533  0.5154
17075TIP3   OH272639   0.670   1.943  13.726  0.2125  0.2950  0.1953
17075TIP3    H172640   0.586   1.922  13.685  0.1147 -0.4126  0.7543
17075TIP3    H272641   0.668   2.038  13.737  0.0954  0.4556 -1.1280
17076TIP3   OH272642   2.477   1.554  12.078  0.0010  1.0831 -0.0142
17076TIP3    H172643   2.452   1.567  12.169  1.3351 -0.0838  0.5515
17076TIP3    H272644   2.497   1.641  12.045 -0.5599  1.5170  0.7883
17077TIP3   OH272645   4.503   6.065   3.659 -0.5191  0.4915  0.0444
17077TIP3    H172646   4.505   6.059   3.563  0.1114 -1.2740  0.1533
17077TIP3    H272647   4.594   6.051   3.686 -0.8025  0.3452  0.9398
17078TIP3   OH272648   2.493   1.677  16.945 -0.0846  0.5329  0.8636
17078TIP3    H172649   2.430   1.746  16.964  0.0439  1.1852 -0.9372
17078TIP3    H272650   2.571   1.700  16.994 -0.7888  0.4432  2.0459
17079TIP3   OH272651   0.443   1.135   1.711 -0.5760 -0.1384  0.5545
17079TIP3    H172652   0.436   1.084   1.630 -0.1386  0.5236  0.0929
17079TIP3    H272653   0.538   1.146   1.723 -0.5712 -1.6199  2.0410
17080TIP3   OH272654   3.545   4.721   3.817  0.5982  0.2877  0.1918
17080TIP3    H172655   3.628   4.703   3.772  0.4595  1.0089 -0.3515
17080TIP3    H272656   3.532   4.644   3.873  1.5815  0.1146  0.2061
17081TIP3   OH272657   5.736   4.517   0.056  0.3590 -0.3571  0.2520
17081TIP3    H172658   5.809   4.577   0.073  1.0036 -1.0198 -0.1789
17081TIP3    H272659   5.769   4.431   0.082  0.1584 -0.8536 -1.1360
17082TIP3   OH272660   3.722   6.132   4.062 -0.1575 -0.4309 -0.1601
17082TIP3    H172661   3.764   6.217   4.046  0.2929 -0.6849 -0.3172
17082TIP3    H272662   3.655   6.151   4.129 -2.8741  0.8703 -3.1119
17083TIP3   OH272663   4.406   6.405  15.361  0.7068 -0.7376 -0.0386
17083TIP3    H172664   4.479   6.368  15.310  0.8163  1.2777 -1.4158
17083TIP3    H272665   4.353   6.451  15.296 -0.6373 -0.3832  1.2939
17084TIP3   OH272666   0.299   5.864   5.458  0.2974  0.1615 -0.1863
17084TIP3    H172667   0.323   5.858   5.365  0.6695 -2.6422  0.0356
17084TIP3    H272668   0.381   5.884   5.502 -0.1172  2.8273 -0.5439
17085TIP3   OH272669   3.688   5.669  14.566 -0.4546  0.1941  0.2512
17085TIP3    H172670   3.735   5.646  14.647 -0.6138 -0.7583  0.0748
17085TIP3    H272671   3.627   5.596  14.552 -1.7528  1.2583  0.2876
17086TIP3   OH272672   5.468   4.874   2.453  0.5251  0.4080  0.4789
17086TIP3    H172673   5.440   4.790   2.489  3.3180  0.5631  3.1545
17086TIP3    H272674   5.518   4.851   2.374  0.2304 -0.3632  0.5153
17087TIP3   OH272675   1.312   2.754  11.924 -0.2754  0.9329 -0.3473
17087TIP3    H172676   1.290   2.778  12.014  1.4617  1.1176  0.0502
17087TIP3    H272677   1.324   2.838  11.879 -0.5607  0.8351 -0.6135
17088TIP3   OH272678   3.221   6.208  11.264 -0.0225  0.6302  0.6274
17088TIP3    H172679   3.219   6.221  11.169  0.2234 -1.5875  0.2747
17088TIP3    H272680   3.253   6.118  11.274 -1.4282  0.3467  2.7663
17089TIP3   OH272681   3.525   0.404  14.448  0.1022 -0.8242 -0.0753
17089TIP3    H172682   3.525   0.487  14.495  1.3483 -1.4778  1.1238
17089TIP3    H272683   3.547   0.428  14.358 -1.2895  0.3239 -0.1206
17090TIP3   OH272684   6.382   2.958  11.314 -0.2172 -0.2898  0.5132
17090TIP3    H172685   6.287   2.964  11.314 -0.1814  0.6990  2.3000
17090TIP3    H272686   6.409   2.995  11.230 -1.3714  0.0627  0.2938
17091TIP3   OH272687   5.255   1.805   3.564  0.2101 -0.1170  0.6723
17091TIP3    H172688   5.264   1.805   3.468  0.1221  2.4697  0.6373
17091TIP3    H272689   5.167   1.772   3.580  0.2667 -0.6765 -0.1423
17092TIP3   OH272690   4.500   3.482   4.601 -0.8945 -0.4086 -0.0738
17092TIP3    H172691   4.427   3.460   4.543 -0.4302  0.3589 -0.9573
17092TIP3    H272692   4.538   3.560   4.563  1.4763 -1.7816 -0.6073
17093TIP3   OH272693   4.977   1.409  11.212  0.4875 -0.6275 -0.1973
17093TIP3    H172694   4.970   1.478  11.147  2.4361 -2.8640 -2.9310
17093TIP3    H272695   5.045   1.440  11.273  0.5593  0.3361 -0.7597
17094TIP3   OH272696   1.832   1.204  11.546  0.0388 -0.2090 -0.1238
17094TIP3    H172697   1.824   1.166  11.633 -0.4076 -1.3148 -0.6330
17094TIP3    H272698   1.926   1.214  11.532  0.1916 -1.8539 -0.2837
17095TIP3   OH272699   3.497   1.953  12.502 -0.5737 -0.6384 -0.7440
17095TIP3    H172700   3.420   2.009  12.494  0.1756  0.4314 -0.6266
17095TIP3    H272701   3.477   1.894  12.575 -0.7841  0.4575  0.0964
17096TIP3   OH272702   6.584   2.204  11.367 -0.4753  0.1704 -0.1400
17096TIP3    H172703   6.626   2.272  11.420  3.0576 -1.6291 -0.5257
17096TIP3    H272704   6.493   2.233  11.358  0.4773  3.7987  1.3766
17097TIP3   OH272705   2.534   3.598   5.168 -1.0925 -0.5551 -0.5478
17097TIP3    H172706   2.591   3.625   5.096  0.1112 -0.7808  0.3053
17097TIP3    H272707   2.489   3.678   5.195  0.0359 -0.0439 -0.1638
17098TIP3   OH272708   2.957   0.939  10.637  0.0856  0.2437  0.2725
17098TIP3    H172709   3.017   0.965  10.568  0.1612  0.2787  0.3509
17098TIP3    H272710   2.887   1.003  10.633  0.9874  1.3305  1.3959
17099TIP3   OH272711   3.726   2.665  12.213  0.0913 -0.7506 -0.2457
17099TIP3    H172712   3.646   2.700  12.252 -0.0318 -0.4486 -0.7564
17099TIP3    H272713   3.792   2.732  12.230  0.0422 -0.6280 -0.5264
17100TIP3   OH272714   6.297   4.897   5.570 -0.2732  0.3862  0.3584
17100TIP3    H172715   6.309   4.987   5.602 -1.7808  1.2345 -1.3471
17100TIP3    H272716   6.208   4.874   5.596 -1.6558  1.2003 -3.3125
17101TIP3   OH272717   5.164   5.970  12.638  0.4813 -0.3090 -0.1975
17101TIP3    H172718   5.259   5.981  12.631  0.5041  0.8005  1.5979
17101TIP3    H272719   5.152   5.895  12.696  0.2588 -0.9255 -1.0364
17102TIP3   OH272720   3.020   5.050   5.870  0.0866 -0.3628  0.2237
17102TIP3    H172721   3.011   4.967   5.823  1.7586 -0.1282 -0.5378
17102TIP3    H272722   3.113   5.055   5.892 -0.0893  1.0976  0.6780
17103TIP3   OH272723   5.178   2.980   3.641 -0.8420 -0.2411  0.2798
17103TIP3    H172724   5.191   2.907   3.701 -0.4160 -0.3347  0.0761
17103TIP3    H272725   5.210   3.056   3.689  0.7589 -0.5117 -0.3241
17104TIP3   OH272726   0.847   1.165   5.459 -0.1254  0.4572  0.2844
17104TIP3    H172727   0.834   1.184   5.552  0.3453 -0.6818  0.5893
17104TIP3    H272728   0.801   1.082   5.446  2.1338 -0.8006  0.1320
17105TIP3   OH272729   0.629   0.501   3.290 -0.4791 -0.1168  0.4959
17105TIP3    H172730   0.615   0.474   3.381  1.4913  2.1460  1.5333
17105TIP3    H272731   0.721   0.529   3.288 -1.3566  2.8768 -1.3762
17106TIP3   OH272732   2.123   4.551   4.826  0.1095  0.6269 -0.0469
17106TIP3    H172733   2.086   4.464   4.810 -0.7344  1.2557 -1.6811
17106TIP3    H272734   2.135   4.555   4.921 -0.2590 -1.1054  0.0895
17107TIP3   OH272735   2.469   5.182   1.143 -0.4487 -0.5722  0.1294
17107TIP3    H172736   2.437   5.125   1.072 -0.6780  0.4155 -0.5734
17107TIP3    H272737   2.435   5.269   1.121  0.7691  0.0484  0.6298
17108TIP3   OH272738   3.250   3.330  14.499  0.0835 -0.2289  0.3840
17108TIP3    H172739   3.323   3.300  14.553  0.5961  0.9700  0.3755
17108TIP3    H272740   3.195   3.381  14.559  0.3192  0.5678 -0.0593
17109TIP3   OH272741   4.763   4.705   2.110  0.1778  0.4365 -0.1611
17109TIP3    H172742   4.719   4.725   2.028  1.9305 -0.3650 -1.3169
17109TIP3    H272743   4.699   4.729   2.178 -2.2029 -1.1046 -1.7856
17110TIP3   OH272744   5.187   0.669  12.467 -0.2681 -0.5132  0.4260
17110TIP3    H172745   5.159   0.754  12.433 -0.0632 -0.4216  0.4815
17110TIP3    H272746   5.156   0.606  12.403  0.7788 -0.2794 -0.3321
17111TIP3   OH272747   4.436   6.274   3.053 -0.4746  0.3472 -0.1700
17111TIP3    H172748   4.454   6.343   3.116  2.3214 -0.2255 -0.2813
17111TIP3    H272749   4.507   6.281   2.988 -1.8496 -0.6912 -1.8385
17112TIP3   OH272750   4.783   3.675   5.352  0.1589 -0.5272 -0.2922
17112TIP3    H172751   4.762   3.587   5.321 -0.9451  0.0580 -1.2772
17112TIP3    H272752   4.830   3.715   5.279 -0.5444  0.1456 -0.3801
17113TIP3   OH272753   4.617   5.464   3.911 -0.3573 -0.3998  0.0641
17113TIP3    H172754   4.626   5.501   3.823  1.1409 -2.3865 -0.6634
17113TIP3    H272755   4.573   5.532   3.962  0.9420  1.7376 -1.5958
17114TIP3   OH272756   2.272   0.543  13.938 -0.2482  0.2239 -0.1153
17114TIP3    H172757   2.326   0.608  13.892  1.6147 -0.1353  1.4577
17114TIP3    H272758   2.204   0.595  13.980 -0.0763  0.9164 -0.6756
17115TIP3   OH272759   5.382   4.616  13.855  0.0432 -0.5411  0.2539
17115TIP3    H172760   5.404   4.606  13.947  1.8622 -1.3969 -0.2575
17115TIP3    H272761   5.348   4.531  13.828 -1.0733 -0.1140  0.2687
17116TIP3   OH272762   2.092   3.399   1.015  0.4997  0.2790  0.3754
17116TIP3    H172763   2.162   3.439   0.963 -0.5534  1.9747  0.2188
17116TIP3    H272764   2.120   3.411   1.106  1.1594 -0.4891  0.2873
17117TIP3   OH272765   4.121   1.933   0.571  0.2112  0.4188 -0.0702
17117TIP3    H172766   4.207   1.892   0.583  0.6467  1.6094  1.0666
17117TIP3    H272767   4.074   1.916   0.652 -1.0828 -1.2050 -1.1225
17118TIP3   OH272768   5.132   5.296   2.104 -0.0420 -0.1634 -0.0459
17118TIP3    H172769   5.060   5.287   2.167  1.1880 -0.6830  1.3148
17118TIP3    H272770   5.092   5.279   2.019 -0.9218 -3.6037  0.9855
17119TIP3   OH272771   3.397   5.243   4.096  0.3854 -0.1952  0.3981
17119TIP3    H172772   3.378   5.236   4.189 -2.4702  0.5712 -0.0790
17119TIP3    H272773   3.318   5.212   4.053  1.7028 -0.6255 -1.7978
17120TIP3   OH272774   2.587   5.441  12.487  0.2691 -0.7360  0.0173
17120TIP3    H172775   2.569   5.360  12.441 -3.2805 -0.2476  0.4406
17120TIP3    H272776   2.552   5.428  12.575  1.5064  0.5372  0.7344
17121TIP3   OH272777   1.384   3.435  10.571  0.5045 -0.3909  0.5732
17121TIP3    H172778   1.437   3.405  10.644  0.3708 -1.4940  0.2292
17121TIP3    H272779   1.423   3.518  10.545  0.1925  0.3125  2.2595
17122TIP3   OH272780   6.731   5.281   3.461 -0.2753  0.7123  0.1774
17122TIP3    H172781   6.790   5.219   3.503  1.0015  1.0893 -1.0288
17122TIP3    H272782   6.788   5.348   3.424 -1.4563  1.1737 -0.8834
17123TIP3   OH272783   4.044   6.363  16.311 -0.1974 -0.7011  0.1836
17123TIP3    H172784   4.068   6.276  16.342  0.1906 -1.0079 -0.9579
17123TIP3    H272785   3.969   6.348  16.253 -1.4747 -0.0401  1.6359
17124TIP3   OH272786   0.931   0.705  15.345 -0.3907  0.1733 -0.0730
17124TIP3    H172787   1.022   0.734  15.357 -0.5615  1.2048 -1.1502
17124TIP3    H272788   0.931   0.661  15.261 -0.6181 -1.0050  0.5382
17125TIP3   OH272789   1.400   2.752   2.365 -0.4012  0.1090 -0.3361
17125TIP3    H172790   1.489   2.721   2.347 -0.5566  0.1840 -1.2460
17125TIP3    H272791   1.349   2.726   2.289 -1.0262  0.6120 -0.0992
17126TIP3   OH272792   0.592   5.680  16.540 -0.1203 -0.9347 -0.1924
17126TIP3    H172793   0.567   5.657  16.451 -1.8145  2.4243 -0.6772
17126TIP3    H272794   0.640   5.763  16.531 -0.5316 -0.4055  2.0390
17127TIP3   OH272795   2.814   4.283  11.827  0.7285 -0.1224 -0.0349
17127TIP3    H172796   2.748   4.226  11.868  0.1049  0.8413  0.3264
17127TIP3    H272797   2.829   4.245  11.741  0.5872 -1.0390  0.3371
17128TIP3   OH272798   5.736   4.099  17.043 -0.3352 -0.5474  0.1038
17128TIP3    H172799   5.741   4.012  17.002  0.1109 -0.4733  0.0001
17128TIP3    H272800   5.727   4.160  16.969  2.2359 -0.2598 -0.0198
17129TIP3   OH272801   4.753   4.772   5.838  0.2835 -0.2910 -0.6397
17129TIP3    H172802   4.821   4.793   5.902 -1.6006  3.2915  0.3111
17129TIP3    H272803   4.706   4.698   5.877 -1.4558  2.4284  2.7315
17130TIP3   OH272804   6.769   0.658  11.044  0.8930 -0.1133  0.1206
17130TIP3    H172805   6.721   0.725  10.995 -0.2782 -1.2499 -0.3289
17130TIP3    H272806   6.746   0.673  11.135  0.9887  0.3738  0.0627
17131TIP3   OH272807   0.456   1.755   1.925 -0.8882 -0.1144 -0.8021
17131TIP3    H172808   0.375   1.785   1.968  0.2022  1.4273  0.2004
17131TIP3    H272809   0.471   1.818   1.855  0.4505  0.6950  0.1971
17132TIP3   OH272810   6.522   5.862   1.693 -0.1607 -0.2604 -0.1754
17132TIP3    H172811   6.501   5.931   1.756  0.0689  1.2631 -1.7034
17132TIP3    H272812   6.610   5.886   1.661 -0.2807 -0.9899 -1.0590
17133TIP3   OH272813   1.153   2.048  12.601  0.5456 -0.1730 -0.2141
17133TIP3    H172814   1.067   2.063  12.639 -0.0854  0.3468 -1.8050
17133TIP3    H272815   1.187   1.971  12.647 -0.5365 -0.0650  0.7794
17134TIP3   OH272816   1.278   6.501   5.754  0.2185 -0.8227 -0.2723
17134TIP3    H172817   1.268   6.518   5.660 -2.2568  0.2132  0.1177
17134TIP3    H272818   1.369   6.476   5.764  0.8852  0.3598 -2.7695
17135TIP3   OH272819   4.308   5.350   3.496 -0.0060  0.0331 -0.1792
17135TIP3    H172820   4.381   5.328   3.554  0.7547 -1.0949 -1.5690
17135TIP3    H272821   4.299   5.275   3.438 -1.7964  0.4850 -0.5099
17136TIP3   OH272822   5.240   4.189  14.019 -0.1375  0.3140  0.2293
17136TIP3    H172823   5.225   4.096  14.035  0.8380  0.6436  3.4823
17136TIP3    H272824   5.157   4.232  14.042 -0.6824  0.2687 -1.5436
17137TIP3   OH272825   3.057   4.459   3.709 -0.2603 -0.1020  0.2490
17137TIP3    H172826   3.045   4.367   3.684  0.6253 -0.2462  0.3224
17137TIP3    H272827   3.146   4.480   3.679 -0.8259  1.0203 -0.6672
17138TIP3   OH272828   3.043   3.560  14.039  0.2712  0.6565 -0.1262
17138TIP3    H172829   3.137   3.570  14.023  0.3078  2.8560  1.2248
17138TIP3    H272830   3.005   3.643  14.012 -1.4455 -0.5514 -1.5396
17139TIP3   OH272831   4.105   0.100  11.457 -0.1244 -0.4973  0.1121
17139TIP3    H172832   4.142   0.161  11.520  1.4193 -3.2427  1.9501
17139TIP3    H272833   4.029   0.063  11.502 -0.4982 -0.6404 -0.6325
17140TIP3   OH272834   3.449   1.959  11.308 -0.1910 -0.1590  0.5118
17140TIP3    H172835   3.538   1.995  11.310 -0.0443 -0.2435 -2.2121
17140TIP3    H272836   3.392   2.035  11.312  0.0602  0.0839 -0.3261
17141TIP3   OH272837   4.243   3.354  12.836  0.3082  0.1528 -0.2311
17141TIP3    H172838   4.293   3.312  12.765 -0.3661 -1.0618  0.0040
17141TIP3    H272839   4.152   3.336  12.814  0.1118 -0.6489  1.1978
17142TIP3   OH272840   5.202   3.781  16.990  0.3925  0.3159 -0.2545
17142TIP3    H172841   5.224   3.852  17.051  0.6598 -0.6352  0.7785
17142TIP3    H272842   5.286   3.749  16.958  0.3108 -0.1250 -0.0308
17143TIP3   OH272843   5.949   4.968   4.162 -0.4315 -0.2314  0.1155
17143TIP3    H172844   5.948   5.021   4.242 -1.2568 -0.2192  0.0940
17143TIP3    H272845   6.028   4.915   4.171  0.4118  1.0063  0.1256
17144TIP3   OH272846   1.426   4.714  15.383 -0.1581  0.0941  0.7495
17144TIP3    H172847   1.426   4.764  15.464 -0.1448  0.3899  0.5682
17144TIP3    H272848   1.342   4.734  15.342 -0.6050 -0.8878  1.1961
17145TIP3   OH272849   3.103   2.854   3.373 -0.0513 -0.1048  0.5184
17145TIP3    H172850   3.186   2.819   3.342 -0.3210 -0.3992  0.1342
17145TIP3    H272851   3.037   2.815   3.316 -0.5002 -0.2488  1.1282
17146TIP3   OH272852   4.741   5.954  13.227 -0.2316  0.0156 -0.1990
17146TIP3    H172853   4.796   5.995  13.160 -1.2083  0.4696 -0.7215
17146TIP3    H272854   4.700   6.027  13.272 -1.0303 -0.3481 -0.3331
17147TIP3   OH272855   3.013   6.288  16.056 -0.9309 -0.0494  0.4644
17147TIP3    H172856   3.031   6.195  16.068  0.0702 -0.2235 -1.9907
17147TIP3    H272857   2.966   6.314  16.135  0.3502 -2.2148  2.0032
17148TIP3   OH272858   0.754   4.251  12.046  0.0737  0.4896  0.1999
17148TIP3    H172859   0.716   4.164  12.059  0.9608  0.1734  0.6821
17148TIP3    H272860   0.759   4.288  12.134  1.0981  0.4428  0.1592
17149TIP3   OH272861   4.220   6.099   6.884  0.0976  0.1275  0.1559
17149TIP3    H172862   4.311   6.078   6.906  0.2721  0.7057 -0.0141
17149TIP3    H272863   4.204   6.049   6.803 -0.5563 -2.0258  1.5602
17150TIP3   OH272864   5.363   2.968   2.090  0.4041  0.2265 -0.4046
17150TIP3    H172865   5.409   3.046   2.120  1.8273 -0.3837 -0.9588
17150TIP3    H272866   5.344   2.919   2.169  2.3408 -0.4004 -0.3202
17151TIP3   OH272867   6.360   6.439  12.637  0.5181  0.3774 -0.2234
17151TIP3    H172868   6.271   6.463  12.610  0.0058 -1.5914 -0.4004
17151TIP3    H272869   6.367   6.468  12.728 -0.4588  0.1741 -0.0815
17152TIP3   OH272870   6.074   3.161  10.616 -0.2983 -0.1166 -0.6132
17152TIP3    H172871   6.098   3.242  10.661  0.2648  1.1231 -3.0866
17152TIP3    H272872   6.152   3.106  10.624 -0.9345 -0.7565  1.7089
17153TIP3   OH272873   2.373   5.202  13.102  0.0428  0.0558 -0.7065
17153TIP3    H172874   2.447   5.146  13.076 -0.1215 -0.7751  0.5382
17153TIP3    H272875   2.389   5.220  13.195 -0.1697  1.6891 -0.9841
17154TIP3   OH272876   4.241   1.141   3.222 -0.5665 -0.0137  0.1709
17154TIP3    H172877   4.297   1.095   3.285  1.3932  2.9635  0.7225
17154TIP3    H272878   4.297   1.151   3.144 -2.6152 -2.7465 -1.7534
17155TIP3   OH272879   0.165   2.710  12.016 -0.0792  0.9243  0.2074
17155TIP3    H172880   0.215   2.737  11.939  1.4173 -0.7729  0.5718
17155TIP3    H272881   0.142   2.619  12.000  1.8526 -0.0345  2.5762
17156TIP3   OH272882   5.281   1.828  11.570  0.2772  0.0713 -0.2522
17156TIP3    H172883   5.234   1.796  11.493 -0.8038 -3.3797  1.6932
17156TIP3    H272884   5.366   1.784  11.566 -0.2418 -1.1073  1.1099
17157TIP3   OH272885   1.395   4.608  16.227  0.2128 -0.7166 -0.1883
17157TIP3    H172886   1.391   4.621  16.133  2.0063  0.0014 -0.1825
17157TIP3    H272887   1.469   4.662  16.256 -0.6597 -0.4807  1.7001
17158TIP3   OH272888   6.071   5.684   2.817 -0.1563 -0.4197 -0.5075
17158TIP3    H172889   6.140   5.744   2.789 -0.9492  0.7870  0.0857
17158TIP3    H272890   6.112   5.631   2.886  0.0195  0.6992  0.2663
17159TIP3   OH272891   0.673   5.160   4.040  0.5951  0.1762  0.0718
17159TIP3    H172892   0.608   5.153   4.109  0.5446 -0.0281  0.0035
17159TIP3    H272893   0.696   5.069   4.019 -0.4995  0.1786 -1.2174
17160TIP3   OH272894   3.601   1.594  13.291 -0.2947 -0.8143  0.1994
17160TIP3    H172895   3.624   1.522  13.350 -0.5434 -1.0759 -0.0230
17160TIP3    H272896   3.530   1.640  13.336  0.7476  0.0828  0.9533
17161TIP3   OH272897   1.380   5.179   1.753  0.2225  0.0560  0.3936
17161TIP3    H172898   1.300   5.231   1.750  0.1240 -0.1853 -1.1991
17161TIP3    H272899   1.354   5.098   1.796 -0.2742  0.1450  0.2564
17162TIP3   OH272900   3.129   0.337  11.423 -0.4863  0.2955 -0.3689
17162TIP3    H172901   3.092   0.413  11.468 -2.1848 -1.7069  1.7475
17162TIP3    H272902   3.221   0.359  11.410 -1.1649  3.1194 -0.7472
17163TIP3   OH272903   1.247   1.606  13.896  0.1193 -0.8644 -0.0517
17163TIP3    H172904   1.341   1.622  13.908 -0.0930  1.2618 -1.0657
17163TIP3    H272905   1.242   1.555  13.815  0.3447 -0.4403 -0.3303
17164TIP3   OH272906   1.301   2.471   4.506  0.2034  0.6227 -0.0015
17164TIP3    H172907   1.263   2.413   4.440  0.2147  1.1686 -0.4898
17164TIP3    H272908   1.226   2.506   4.554  0.0331  2.2098 -1.3899
17165TIP3   OH272909   2.680   1.177   4.264  0.0695 -0.0975  0.1151
17165TIP3    H172910   2.711   1.156   4.351 -1.0010 -1.2641  0.2295
17165TIP3    H272911   2.595   1.219   4.278  1.2860  2.6460 -0.2175
17166TIP3   OH272912   0.026   4.901  14.915 -0.0559  0.3437  0.4116
17166TIP3    H172913   0.061   4.986  14.941 -0.3089 -0.0785  2.1901
17166TIP3    H272914   0.094   4.838  14.941 -0.2245 -0.0819 -0.1561
17167TIP3   OH272915   0.610   1.728   4.406 -0.1040  0.2054  0.3943
17167TIP3    H172916   0.582   1.730   4.314  0.9815 -3.0759 -0.0620
17167TIP3    H272917   0.537   1.769   4.454 -0.6413  2.0358 -1.9080
17168TIP3   OH272918   0.444   3.247   6.282 -0.1372  0.2854 -0.5450
17168TIP3    H172919   0.535   3.272   6.298  1.1081 -3.6896 -0.9244
17168TIP3    H272920   0.427   3.176   6.343 -2.0801 -0.8618 -2.3503
17169TIP3   OH272921   2.635   3.320   3.784  0.2712  0.1643 -0.1574
17169TIP3    H172922   2.611   3.408   3.814 -0.7852 -0.5610  1.1682
17169TIP3    H272923   2.552   3.282   3.756  0.8320 -0.1770 -1.4165
17170TIP3   OH272924   6.611   3.266   0.587  0.2750 -0.1770  0.1277
17170TIP3    H172925   6.532   3.221   0.619  1.1312 -0.9734  1.1491
17170TIP3    H272926   6.602   3.355   0.620  1.0933 -0.9630  2.5596
17171TIP3   OH272927   0.138   1.661   0.656 -0.0116  0.5780 -0.1923
17171TIP3    H172928   0.202   1.618   0.599  0.9406  1.8273 -0.1019
17171TIP3    H272929   0.066   1.686   0.597  0.7704  1.4751 -0.7891
17172TIP3   OH272930   0.298   0.816  13.537  0.0810 -0.1484  0.3182
17172TIP3    H172931   0.329   0.907  13.537 -0.6957  0.1378  1.4843
17172TIP3    H272932   0.377   0.764  13.553  0.5272  0.3205 -0.3369
17173TIP3   OH272933   3.808   3.473   4.235 -1.1456  0.3154 -0.3978
17173TIP3    H172934   3.896   3.508   4.244 -0.3398 -1.7099 -0.2005
17173TIP3    H272935   3.762   3.536   4.180  0.6724  0.9582 -1.1989
17174TIP3   OH272936   3.509   4.195  10.465  0.0758  0.2272  0.6386
17174TIP3    H172937   3.508   4.135  10.390  0.3357  0.7641  0.1978
17174TIP3    H272938   3.542   4.143  10.538 -0.7303 -0.4583  0.5188
17175TIP3   OH272939   3.138   1.651   0.675 -0.5870  0.5161 -0.5695
17175TIP3    H172940   3.222   1.674   0.634  0.0716  2.3441  1.7047
17175TIP3    H272941   3.106   1.733   0.711 -2.7132 -0.4419 -0.2027
17176TIP3   OH272942   3.353   6.460  13.283 -0.3416  0.4305  0.2630
17176TIP3    H172943   3.299   6.381  13.282  0.3448 -0.0362 -0.5388
17176TIP3    H272944   3.436   6.432  13.322 -0.4987  1.0320  1.0396
17177TIP3   OH272945   3.877   4.205  16.686  0.0969  0.3041  0.1758
17177TIP3    H172946   3.798   4.167  16.649  0.0922  0.0023  0.5025
17177TIP3    H272947   3.944   4.137  16.675  0.0436  0.1304  0.9223
17178TIP3   OH272948   4.560   3.719  10.730  0.0476  0.0051  0.3177
17178TIP3    H172949   4.600   3.806  10.723  1.0585 -0.4795 -0.1195
17178TIP3    H272950   4.498   3.715  10.657 -2.0469  1.3744  1.9618
17179TIP3   OH272951   5.192   4.502  12.045 -0.1952 -0.2343 -0.9079
17179TIP3    H172952   5.133   4.547  12.106 -0.4550 -0.7025 -0.8128
17179TIP3    H272953   5.210   4.418  12.087 -2.7263 -1.8076 -2.8232
17180TIP3   OH272954   0.192   0.929  14.515  0.1332 -0.0859  0.1027
17180TIP3    H172955   0.227   0.903  14.600 -0.9772  1.3663  1.0079
17180TIP3    H272956   0.258   0.987  14.478 -0.0745  0.4793  0.6236
17181TIP3   OH272957   4.308   2.037   1.685 -0.4886 -0.0776 -0.4021
17181TIP3    H172958   4.265   1.966   1.734  1.0955 -0.8053 -0.0368
17181TIP3    H272959   4.354   1.993   1.614 -1.4360  0.8304 -1.6143
17182TIP3   OH272960   3.632   2.422   2.599  0.4068 -0.5110  0.3169
17182TIP3    H172961   3.664   2.451   2.514 -0.0901 -1.4149 -0.1879
17182TIP3    H272962   3.683   2.473   2.662 -0.9767  1.9996 -0.5291
17183TIP3   OH272963   4.388   0.367  11.328 -0.4284 -0.1746 -0.5307
17183TIP3    H172964   4.326   0.320  11.384  0.2036  0.6738  0.8847
17183TIP3    H272965   4.332   0.423  11.274 -1.1345 -1.9490 -1.7043
17184TIP3   OH272966   0.347   1.757   3.248  0.0135  0.2101 -0.5631
17184TIP3    H172967   0.403   1.775   3.173  1.0188 -1.8689 -0.3417
17184TIP3    H272968   0.258   1.767   3.215  0.4267 -1.5117 -2.2832
17185TIP3   OH272969   6.109   3.602  12.060 -0.2612  0.2375 -0.4402
17185TIP3    H172970   6.121   3.660  11.985  2.5620 -0.4206 -0.5537
17185TIP3    H272971   6.039   3.642  12.111  0.8004  3.1059 -1.1494
17186TIP3   OH272972   3.611   1.319   5.751 -0.2435  0.4633  0.0648
17186TIP3    H172973   3.702   1.289   5.759  0.0757  1.6439  1.0964
17186TIP3    H272974   3.601   1.382   5.822 -1.8119  0.5164 -0.1938
17187TIP3   OH272975   6.229   4.821   1.680 -0.0603 -0.1928  0.1640
17187TIP3    H172976   6.195   4.906   1.652 -0.8080 -0.1910  1.0941
17187TIP3    H272977   6.174   4.795   1.753  0.2996 -1.3870  0.0238
17188TIP3   OH272978   0.173   3.539  16.724  0.5265  0.3706  0.6918
17188TIP3    H172979   0.267   3.526  16.715  0.5595  0.0127  1.5233
17188TIP3    H272980   0.163   3.582  16.809 -0.2011 -1.2710  1.4549
17189TIP3   OH272981   1.428   5.248   3.164 -0.3864 -0.4169 -0.2086
17189TIP3    H172982   1.422   5.154   3.148 -0.2980 -0.4821  0.1333
17189TIP3    H272983   1.519   5.271   3.144 -0.6852 -0.1948 -1.3718
17190TIP3   OH272984   6.233   2.661  14.745  0.0057  0.3028 -0.2066
17190TIP3    H172985   6.204   2.751  14.756  1.8478  0.8387  0.2983
17190TIP3    H272986   6.203   2.616  14.824  2.1522  1.2852  1.2115
17191TIP3   OH272987   1.763   5.646  14.071  0.4693  0.4967 -0.1224
17191TIP3    H172988   1.749   5.662  13.977  1.8750  1.7251 -0.1441
17191TIP3    H272989   1.728   5.724  14.114 -2.3402 -1.0893  0.5799
17192TIP3   OH272990   1.423   1.182  11.675 -0.0818 -0.0231  0.4568
17192TIP3    H172991   1.423   1.277  11.690  1.3260 -0.0489  0.6570
17192TIP3    H272992   1.384   1.145  11.754  2.9813  0.1533  2.1435
17193TIP3   OH272993   3.141   4.966  16.305  0.6639 -0.1649 -0.6664
17193TIP3    H172994   3.102   5.002  16.225  1.6118  0.0620 -1.0321
17193TIP3    H272995   3.216   5.023  16.322  0.6538 -0.4173  0.1970
17194TIP3   OH272996   2.526   5.290   4.057  0.1183  0.3316  0.0169
17194TIP3    H172997   2.466   5.360   4.029 -0.7905 -0.7492 -0.7832
17194TIP3    H272998   2.587   5.333   4.116 -0.4122  1.8174 -0.4981
17195TIP3   OH272999   4.330   3.023   0.389  0.1332 -0.2920 -0.1218
17195TIP3    H173000   4.261   3.046   0.327 -0.6069 -0.0035  0.7913
17195TIP3    H273001   4.348   3.104   0.436  0.8823 -0.4413 -0.1488
17196TIP3   OH273002   2.068   2.926   5.571 -0.3688 -0.1425 -0.2473
17196TIP3    H173003   2.021   2.878   5.503 -1.8490  0.6232  0.2347
17196TIP3    H273004   2.012   2.921   5.648  0.9432 -0.3450  0.7140
17197TIP3   OH273005   5.781   2.897  10.749 -0.0902 -0.4863 -0.1972
17197TIP3    H173006   5.841   2.885  10.676 -0.7232 -2.1482 -0.4605
17197TIP3    H273007   5.694   2.894  10.709 -0.4043  0.2957  0.4059
17198TIP3   OH273008   5.921   5.422  16.650 -0.0246  1.0015  0.0336
17198TIP3    H173009   5.956   5.335  16.630  0.2895  1.0045  0.5518
17198TIP3    H273010   5.983   5.482  16.610  1.1145  1.0242  1.7648
17199TIP3   OH273011   2.139   4.004   2.251  0.1777 -0.3583  0.3814
17199TIP3    H173012   2.125   4.096   2.275 -0.0778 -0.3105  0.0617
17199TIP3    H273013   2.150   4.006   2.156 -0.8468 -0.7712  0.2454
17200TIP3   OH273014   3.323   6.061  13.923 -0.7700 -0.1063  0.6211
17200TIP3    H173015   3.366   5.993  13.870  0.3678  0.2066  1.1204
17200TIP3    H273016   3.246   6.018  13.960  0.3671 -1.3504  1.5651
17201TIP3   OH273017   3.897   4.647   5.447 -0.0953  0.2463 -0.5473
17201TIP3    H173018   3.871   4.603   5.366  0.5139 -2.0642  0.4772
17201TIP3    H273019   3.866   4.590   5.517 -0.0020  1.8636  0.8465
17202TIP3   OH273020   5.365   5.096   0.091  0.3288 -0.2016  0.1139
17202TIP3    H173021   5.300   5.030   0.067 -0.8364  1.4540 -1.3637
17202TIP3    H273022   5.335   5.128   0.176  0.2025 -0.6800  0.2533
17203TIP3   OH273023   5.732   5.532   3.500  0.2034 -0.0333 -0.4296
17203TIP3    H173024   5.680   5.612   3.505  1.2610  0.6677 -0.5541
17203TIP3    H273025   5.675   5.469   3.455 -1.1380  0.2233  0.8550
17204TIP3   OH273026   0.023   5.216  10.558 -1.0602  0.6292  0.4054
17204TIP3    H173027   0.058   5.221  10.469  0.7281 -1.5319  0.9491
17204TIP3    H273028   0.031   5.305  10.592 -0.2392  1.1088 -1.0257
17205TIP3   OH273029   6.639   0.947  10.654  0.1778 -0.1074 -0.3411
17205TIP3    H173030   6.667   1.030  10.615 -0.3844 -0.2535 -1.0769
17205TIP3    H273031   6.547   0.961  10.677  0.5536  0.0349  1.1196
17206TIP3   OH273032   1.672   1.935  16.560 -0.0627 -0.1048  0.1797
17206TIP3    H173033   1.639   1.900  16.477 -0.7997  2.2469 -0.5629
17206TIP3    H273034   1.764   1.955  16.543  0.5788 -2.3062  0.8456
17207TIP3   OH273035   6.533   0.622  15.381 -0.4645 -0.5818  0.4454
17207TIP3    H173036   6.509   0.554  15.444  0.6548  0.0258  1.5287
17207TIP3    H273037   6.545   0.575  15.298  1.6743 -1.9058  1.4908
17208TIP3   OH273038   4.545   1.330  16.090  0.4512  0.1376  0.1249
17208TIP3    H173039   4.501   1.289  16.165  1.1469 -0.4975  0.1930
17208TIP3    H273040   4.600   1.399  16.130 -0.0727  0.5776  0.0869
17209TIP3   OH273041   4.581   6.336  11.946  0.7792 -0.4578  0.1330
17209TIP3    H173042   4.624   6.352  11.862  1.4765 -0.9020  0.4017
17209TIP3    H273043   4.575   6.241  11.952 -0.3587 -0.3961  0.0405
17210TIP3   OH273044   5.472   4.398  15.313  0.3429 -0.6238  0.1464
17210TIP3    H173045   5.429   4.370  15.232 -1.1970 -2.6143  1.5958
17210TIP3    H273046   5.565   4.398  15.291 -0.0696 -0.6296 -1.7560
17211TIP3   OH273047   2.948   3.482  10.583 -0.3929 -0.1779 -0.6166
17211TIP3    H173048   2.949   3.575  10.607  1.0675 -0.2317 -0.4425
17211TIP3    H273049   3.040   3.457  10.580 -0.8188 -1.9871  0.7708
17212TIP3   OH273050   1.943   6.623  13.763  0.2836 -0.4427 -0.0351
17212TIP3    H173051   1.950   6.719  13.761  0.7468 -0.4781 -0.3741
17212TIP3    H273052   1.917   6.599  13.674 -0.0738 -0.6177  0.1156
17213TIP3   OH273053   3.431   2.415  10.372  0.2236 -0.6399  0.6281
17213TIP3    H173054   3.398   2.505  10.371 -1.0758 -1.0677 -2.5964
17213TIP3    H273055   3.516   2.420  10.327 -0.1394 -1.0981 -0.1229
17214TIP3   OH273056   2.956   5.402   2.868  0.3012  0.5534 -0.4078
17214TIP3    H173057   2.948   5.442   2.782  2.6319 -0.9527 -1.3777
17214TIP3    H273058   2.911   5.318   2.861  0.1077  0.6227 -0.0273
17215TIP3   OH273059   0.133   4.206   4.060  0.2025  0.3241  0.1233
17215TIP3    H173060   0.165   4.220   3.971 -0.6964  0.2645 -0.2129
17215TIP3    H273061   0.212   4.209   4.114  0.7591  0.3312 -0.6736
17216TIP3   OH273062   3.229   4.457   6.096 -0.5074  0.1331  0.2919
17216TIP3    H173063   3.256   4.365   6.095 -1.4089 -0.1316 -0.2924
17216TIP3    H273064   3.186   4.468   6.181  1.0734  0.4621  1.0712
17217TIP3   OH273065   4.551   4.219   0.902  0.7157 -0.2780  0.0630
17217TIP3    H173066   4.565   4.213   0.997 -1.0608  1.5704  0.4826
17217TIP3    H273067   4.575   4.133   0.869  1.7658 -0.8173  2.1473
17218TIP3   OH273068   2.263   0.768  12.272 -0.2579  0.3776  0.1679
17218TIP3    H173069   2.272   0.856  12.308 -0.2139  1.4480 -2.3400
17218TIP3    H273070   2.352   0.741  12.251 -0.3885  0.2222 -0.1808
17219TIP3   OH273071   4.883   5.326   0.442  0.2630 -0.6709 -0.1304
17219TIP3    H173072   4.821   5.378   0.492  1.8236 -0.5219  1.7234
17219TIP3    H273073   4.857   5.337   0.350 -1.0408  1.1909  0.4551
17220TIP3   OH273074   3.340   1.714  12.929 -0.1607 -0.4949  0.2621
17220TIP3    H173075   3.301   1.643  12.877 -0.1050  0.1155 -0.6183
17220TIP3    H273076   3.352   1.785  12.867  0.1748  0.1459  1.0574
17221TIP3   OH273077   5.223   6.257  10.984 -0.0165 -0.0387 -0.3863
17221TIP3    H173078   5.196   6.348  10.996  1.0031  0.2786 -0.5129
17221TIP3    H273079   5.299   6.261  10.926  2.0633 -0.7074  2.1764
17222TIP3   OH273080   3.592   1.277  14.285 -0.2261 -0.3103  0.6204
17222TIP3    H173081   3.558   1.366  14.286  1.2523  0.2685 -0.4036
17222TIP3    H273082   3.574   1.245  14.196  0.9755 -0.3582  0.3914
17223TIP3   OH273083   5.936   2.915   3.218  0.3756 -0.1495  0.1945
17223TIP3    H173084   5.961   2.989   3.273 -0.2813 -1.1815  1.8917
17223TIP3    H273085   6.012   2.857   3.221 -0.2194 -0.8778  1.1764
17224TIP3   OH273086   5.747   0.032  10.584  0.1158 -0.2527 -0.3353
17224TIP3    H173087   5.709   0.119  10.599  1.5515 -0.0750  2.7044
17224TIP3    H273088   5.736  -0.013  10.668  3.8660 -1.2143 -0.2803
17225TIP3   OH273089   5.704   2.671   3.647 -0.1938 -0.1152  0.5367
17225TIP3    H173090   5.715   2.642   3.738 -1.6575 -0.8504  0.4893
17225TIP3    H273091   5.683   2.591   3.598 -2.3612  0.6772  0.0856
17226TIP3   OH273092   0.168   2.773  15.988  0.0562  0.7728 -0.8498
17226TIP3    H173093   0.106   2.707  15.956  0.2153  0.1015  0.1858
17226TIP3    H273094   0.170   2.839  15.919 -0.6767  0.0634 -1.5737
17227TIP3   OH273095   0.353   0.902   0.105  0.3085 -0.4980 -0.1974
17227TIP3    H173096   0.356   0.961   0.030  0.1650  1.7650  1.5602
17227TIP3    H273097   0.263   0.870   0.107  0.2736 -0.4489 -0.8865
17228TIP3   OH273098   2.832   6.070   5.926  0.0195 -0.3020  0.0165
17228TIP3    H173099   2.831   6.013   6.003  0.0986  0.1076  0.3227
17228TIP3    H273100   2.790   6.151   5.956  1.5957  0.4811  0.1157
17229TIP3   OH273101   2.655   1.415  12.546  0.6506  0.3579  0.1194
17229TIP3    H173102   2.701   1.498  12.559  0.8605  0.0147  1.6077
17229TIP3    H273103   2.726   1.350  12.538  0.4660 -0.0123  1.3409
17230TIP3   OH273104   5.231   5.771  15.336 -0.7130  0.1852 -0.4577
17230TIP3    H173105   5.166   5.701  15.338 -0.1637 -0.3408 -0.7677
17230TIP3    H273106   5.202   5.834  15.402 -1.6332  0.0434 -0.7317
17231TIP3   OH273107   1.690   2.481   4.273 -0.1620  0.2698 -0.2398
17231TIP3    H173108   1.599   2.497   4.249  0.2545  0.8842 -1.4508
17231TIP3    H273109   1.687   2.462   4.367 -1.5425  0.2040 -0.2904
17232TIP3   OH273110   3.645   5.674   2.128 -0.4967 -0.3381  0.1217
17232TIP3    H173111   3.689   5.733   2.066 -1.9819 -0.6439 -1.2443
17232TIP3    H273112   3.697   5.594   2.125 -0.7168 -0.4586 -0.9826
17233TIP3   OH273113   5.618   3.179   1.541  0.5918 -0.8527 -0.3511
17233TIP3    H173114   5.642   3.271   1.539 -0.1375 -0.5389  2.6632
17233TIP3    H273115   5.550   3.170   1.474 -1.0544  1.3369  0.9793
17234TIP3   OH273116   5.756   0.479   6.350 -0.3380  0.2123  0.2302
17234TIP3    H173117   5.771   0.572   6.369 -0.7345  0.0595  1.3021
17234TIP3    H273118   5.752   0.437   6.436 -2.8839 -0.3811 -0.1365
17235TIP3   OH273119   0.005   5.040  12.333  0.1580 -0.5045  0.0979
17235TIP3    H173120   0.084   5.010  12.288  0.8136 -0.1177  0.9846
17235TIP3    H273121  -0.027   4.961  12.378 -0.9698 -1.0967 -1.7155
17236TIP3   OH273122   2.292   0.596  11.233 -0.0066 -0.0096 -0.0315
17236TIP3    H173123   2.372   0.587  11.284 -0.6084 -1.0439  0.7306
17236TIP3    H273124   2.222   0.605  11.298 -0.3835  2.1448 -0.6879
17237TIP3   OH273125   0.909   0.109   1.043  0.1912 -0.3695  0.1292
17237TIP3    H173126   0.942   0.189   1.002 -1.1669  1.5248  2.5592
17237TIP3    H273127   0.986   0.066   1.080  0.9908 -0.4412 -1.6156
17238TIP3   OH273128   0.243   6.731   1.042 -0.5094  0.1650  0.2757
17238TIP3    H173129   0.287   6.790   0.982 -0.3362  1.2368  1.4320
17238TIP3    H273130   0.282   6.749   1.127 -1.3692 -0.6912  0.8731
17239TIP3   OH273131   6.136   3.209   3.844  0.3399  0.0317  0.5082
17239TIP3    H173132   6.042   3.195   3.858  0.4552 -0.0685  1.2078
17239TIP3    H273133   6.174   3.121   3.851  0.3440 -0.0793 -0.8897
17240TIP3   OH273134   4.368   3.900  12.891 -0.2334  0.0536  0.2263
17240TIP3    H173135   4.372   3.804  12.889 -1.7580 -0.0373  0.9942
17240TIP3    H273136   4.404   3.927  12.807 -0.1029 -1.1994 -0.1317
17241TIP3   OH273137   4.764   5.592   0.135  0.5715 -0.0465  0.1373
17241TIP3    H173138   4.828   5.520   0.130 -2.8404 -3.2459  0.2244
17241TIP3    H273139   4.740   5.596   0.228 -0.3362  0.1902 -0.0994
17242TIP3   OH273140   4.227   6.208  15.386 -0.2067 -0.4543 -0.6245
17242TIP3    H173141   4.296   6.274  15.374 -0.9423  0.1435 -1.5418
17242TIP3    H273142   4.209   6.176  15.298 -1.7395  0.0353 -0.5005
17243TIP3   OH273143   5.424   6.255  16.627  0.5126 -0.3824  0.5454
17243TIP3    H173144   5.494   6.200  16.592 -2.2323 -2.1055 -2.4834
17243TIP3    H273145   5.410   6.224  16.716  2.1344 -1.4342  0.4414
17244TIP3   OH273146   3.513   4.964   3.955  0.2276 -0.2288  0.1789
17244TIP3    H173147   3.532   4.876   3.921 -0.4397 -0.5143  0.5442
17244TIP3    H273148   3.467   5.008   3.884  1.6963  0.2737 -0.4968
17245TIP3   OH273149   5.260   5.927  15.799  0.7017 -0.2110 -0.4016
17245TIP3    H173150   5.172   5.900  15.772 -1.0313  3.0615  1.7074
17245TIP3    H273151   5.305   5.945  15.716 -0.9814 -0.8451 -1.4901
17246TIP3   OH273152   4.870   1.391   0.335  0.0709  0.2133  0.1142
17246TIP3    H173153   4.777   1.408   0.352  0.1758  1.7777 -0.7712
17246TIP3    H273154   4.884   1.421   0.245  1.4299 -0.0108  0.2429
17247TIP3   OH273155   4.732   0.281   1.375  0.0077  0.2849 -0.3281
17247TIP3    H173156   4.644   0.318   1.373  0.2628  0.9957  0.9294
17247TIP3    H273157   4.787   0.347   1.335  0.0925  0.2109 -0.3337
17248TIP3   OH273158   6.077   5.211   5.054  0.4814 -0.2625 -0.2007
17248TIP3    H173159   6.073   5.115   5.046  3.5244 -0.3282 -1.5800
17248TIP3    H273160   6.120   5.226   5.138  2.1677 -0.1838 -1.0532
17249TIP3   OH273161   4.542   5.420  11.773  0.3283 -0.3313 -0.5130
17249TIP3    H173162   4.498   5.391  11.853 -0.5138  3.8796  0.6939
17249TIP3    H273163   4.635   5.421  11.796  0.2685 -1.0026 -0.2379
17250TIP3   OH273164   0.444   1.695   4.200 -0.1874  0.1737 -0.4065
17250TIP3    H173165   0.364   1.686   4.252  0.5286 -0.7428  0.5619
17250TIP3    H273166   0.425   1.651   4.117 -0.4028 -0.7882  0.1437
17251TIP3   OH273167   5.861   4.863   2.586  0.3270  0.5073 -0.2980
17251TIP3    H173168   5.826   4.927   2.649 -0.0049 -0.7731  0.8572
17251TIP3    H273169   5.919   4.808   2.639  0.5766 -0.1655 -1.2713
17252TIP3   OH273170   1.244   6.472  15.315 -0.2754 -0.6034  0.2743
17252TIP3    H173171   1.218   6.392  15.362 -0.9356  0.7357  2.2470
17252TIP3    H273172   1.339   6.473  15.320 -0.2571 -1.3123  0.1674
17253TIP3   OH273173   4.911   0.331  12.105 -0.4348 -0.2943  0.3396
17253TIP3    H173174   4.848   0.299  12.040  1.2656 -0.5593 -1.2096
17253TIP3    H273175   4.985   0.271  12.097 -0.1961 -0.3264  2.5453
17254TIP3   OH273176   4.241   1.627  15.316  0.0547 -0.5989  0.0300
17254TIP3    H173177   4.178   1.620  15.388  0.5905 -1.4129  0.4214
17254TIP3    H273178   4.243   1.721  15.296  0.4508 -0.2675  1.5720
17255TIP3   OH273179   5.384   6.156   3.787  0.3022 -0.2433 -0.3266
17255TIP3    H173180   5.337   6.088   3.738 -2.0050 -0.3271  1.8769
17255TIP3    H273181   5.350   6.238   3.752  0.1882 -0.2706 -0.2788
17256TIP3   OH273182   6.768   2.977   2.861  0.0349 -0.6068  0.1795
17256TIP3    H173183   6.791   2.918   2.789  0.4154 -0.6587  0.3426
17256TIP3    H273184   6.730   2.919   2.927  0.9948 -0.7722  0.6030
17257TIP3   OH273185   0.909   6.220   1.278  0.2413 -0.2831  0.0688
17257TIP3    H173186   0.964   6.295   1.301  0.5166 -0.2478 -0.6681
17257TIP3    H273187   0.867   6.195   1.360  0.7166  0.2120  0.4719
17258TIP3   OH273188   4.496   1.195  13.916 -0.1324 -0.0381 -0.6367
17258TIP3    H173189   4.577   1.160  13.879 -1.6287 -0.9131 -3.1987
17258TIP3    H273190   4.440   1.210  13.841 -1.9512  1.6712  1.0124
17259TIP3   OH273191   6.628   0.603  16.297  0.1306  0.0754  0.2580
17259TIP3    H173192   6.541   0.619  16.261 -0.0892  0.9009  1.1323
17259TIP3    H273193   6.612   0.550  16.375  0.5104 -0.7823 -0.2481
17260TIP3   OH273194   5.032   6.085  11.202  0.0983 -0.2058 -0.8424
17260TIP3    H173195   4.991   6.029  11.136  0.7129 -0.0606 -1.3549
17260TIP3    H273196   5.125   6.060  11.199  0.2043  0.1301 -0.3576
17261TIP3   OH273197   4.572   4.774  16.550  0.4181  0.0939 -0.5350
17261TIP3    H173198   4.656   4.734  16.527  1.8618  2.3993  0.5264
17261TIP3    H273199   4.515   4.757  16.475  1.4973 -2.3885 -0.8210
17262TIP3   OH273200   6.715   2.797  17.131 -0.2240 -0.0211  0.1476
17262TIP3    H173201   6.654   2.856  17.087 -0.1971  0.5323  0.8556
17262TIP3    H273202   6.781   2.777  17.064  0.0118  1.1072  0.0403
17263TIP3   OH273203   0.941   5.343   3.127  0.0260  0.2572 -0.2872
17263TIP3    H173204   0.925   5.418   3.185 -0.8607 -1.4857  1.7625
17263TIP3    H273205   0.855   5.302   3.117  0.7007 -1.1162 -0.5106
17264TIP3   OH273206   5.676   2.877  17.132  0.6103 -0.0655 -0.1159
17264TIP3    H173207   5.619   2.948  17.102  0.6127 -1.5180 -3.8847
17264TIP3    H273208   5.663   2.874  17.227 -1.7066  2.9347 -0.2585
17265TIP3   OH273209   2.281   1.181  14.897  0.2569  0.2735 -0.2454
17265TIP3    H173210   2.344   1.232  14.948 -0.5396 -0.6036  1.6664
17265TIP3    H273211   2.196   1.204  14.935 -0.2114 -1.5257 -0.1637
17266TIP3   OH273212   1.789   1.942   0.394  0.8613  0.1385  0.2889
17266TIP3    H173213   1.757   1.852   0.384  0.5851  0.0567  1.8269
17266TIP3    H273214   1.716   1.990   0.433  0.7508  1.2218 -1.1948
17267TIP3   OH273215   4.860   1.339   2.859  0.1461  0.1329 -0.2430
17267TIP3    H173216   4.914   1.348   2.938  0.0792 -1.1947 -0.0359
17267TIP3    H273217   4.878   1.251   2.827  0.0083  0.5845 -1.6027
17268TIP3   OH273218   3.094   4.978   2.848  0.1446  0.1460 -0.1620
17268TIP3    H173219   3.120   5.029   2.771 -2.0143 -0.4195 -1.3087
17268TIP3    H273220   3.095   5.041   2.920  1.9724  0.7327 -0.6717
17269TIP3   OH273221   5.263   6.496   0.264 -0.5276  0.1675  0.4314
17269TIP3    H173222   5.184   6.452   0.295 -0.1835  0.1921  1.3567
17269TIP3    H273223   5.333   6.433   0.281 -0.2545  0.4197  0.2316
17270TIP3   OH273224   0.988   5.577  14.093 -0.0079  0.0511  0.5774
17270TIP3    H173225   1.031   5.496  14.065 -0.5358  0.1729 -0.6258
17270TIP3    H273226   0.904   5.547  14.130  0.6789 -0.1071  2.0360
17271TIP3   OH273227   5.997   0.733  14.161 -0.3521 -0.0262 -0.2418
17271TIP3    H173228   5.964   0.804  14.106  0.0417  0.4600  0.1517
17271TIP3    H273229   6.056   0.685  14.104  1.2693  1.3970  0.2134
17272TIP3   OH273230   1.828   4.238   3.513  0.2113  0.1070 -1.2295
17272TIP3    H173231   1.856   4.279   3.431 -3.3858  1.6175 -1.7873
17272TIP3    H273232   1.772   4.165   3.485 -0.3590  0.1108 -0.1249
17273TIP3   OH273233   2.499   5.819  12.907 -0.2338 -0.0085  0.0796
17273TIP3    H173234   2.558   5.744  12.908  0.4050  0.4776 -0.5053
17273TIP3    H273235   2.427   5.792  12.850  1.3908  0.8420 -2.4627
17274TIP3   OH273236   0.332   3.176   1.890 -0.1324 -0.0507 -0.1702
17274TIP3    H173237   0.396   3.120   1.847  0.8155  1.2170 -0.4350
17274TIP3    H273238   0.382   3.250   1.924 -1.2944  0.4249  0.5741
17275TIP3   OH273239   1.249   6.755   4.019 -0.3555 -0.4803 -0.2110
17275TIP3    H173240   1.340   6.736   3.996 -0.7909 -2.4550 -0.4373
17275TIP3    H273241   1.209   6.668   4.028 -2.4735  0.3696 -1.1966
17276TIP3   OH273242   0.222   5.616   5.791 -0.7665  0.2080 -0.5628
17276TIP3    H173243   0.234   5.703   5.830 -0.2077 -0.0901 -0.0671
17276TIP3    H273244   0.309   5.590   5.763 -0.7725 -0.5941  0.1495
17277TIP3   OH273245   2.017   1.432   1.067  0.5730 -0.5050 -0.3017
17277TIP3    H173246   2.064   1.475   1.138 -0.1941 -0.1563 -0.0080
17277TIP3    H273247   1.925   1.435   1.092  0.2990 -0.4494 -1.2737
17278TIP3   OH273248   6.596   5.783   2.330 -0.0421 -0.5608  0.0125
17278TIP3    H173249   6.536   5.804   2.259  0.4759 -0.4473 -0.3920
17278TIP3    H273250   6.648   5.709   2.299  1.6025  0.7984 -0.5633
17279TIP3   OH273251   0.951   5.902  11.541  0.1351 -0.3018 -0.3757
17279TIP3    H173252   0.907   5.838  11.486 -2.6761  0.6168  0.7142
17279TIP3    H273253   1.030   5.858  11.571 -0.9955 -2.6996 -0.8574
17280TIP3   OH273254   6.364   1.949   1.651 -0.2556  0.2113  0.2513
17280TIP3    H173255   6.364   1.917   1.741 -0.9729 -0.3306  0.0691
17280TIP3    H273256   6.278   1.989   1.640 -0.3234 -0.0825 -0.3133
17281TIP3   OH273257   0.376   0.136  12.295 -0.1810  0.2911  0.1571
17281TIP3    H173258   0.355   0.138  12.388  0.4929 -0.5573  0.3347
17281TIP3    H273259   0.452   0.079  12.289 -0.3556  0.1623 -0.9390
17282TIP3   OH273260   3.914   0.834   4.819 -0.0066  0.2296  0.0335
17282TIP3    H173261   3.847   0.765   4.826 -1.3295  1.5700  0.8675
17282TIP3    H273262   3.996   0.786   4.808 -0.8396 -1.5122  1.1485
17283TIP3   OH273263   4.059   0.005   2.062 -0.7914 -0.0729  0.7239
17283TIP3    H173264   4.055   0.011   1.967 -1.5182  0.3400  0.7738
17283TIP3    H273265   4.110   0.081   2.089  0.7191 -1.0217  0.5729
17284TIP3   OH273266   2.904   6.058  11.786  0.2176  0.5624  0.4963
17284TIP3    H173267   2.986   6.087  11.748  0.5546 -0.9591  0.0229
17284TIP3    H273268   2.851   6.138  11.793  1.4956  1.4448  0.2316
17285TIP3   OH273269   0.668   0.236   4.550  0.0773 -0.0114  0.2656
17285TIP3    H173270   0.669   0.283   4.633 -1.5664  2.8639 -1.2801
17285TIP3    H273271   0.760   0.219   4.531  0.6059  1.3234  1.5773
17286TIP3   OH273272   2.613   6.531  12.640  0.2448 -0.3799  0.0635
17286TIP3    H173273   2.593   6.500  12.728 -1.0450  2.0299  0.6291
17286TIP3    H273274   2.701   6.568  12.647  0.8701 -1.7939 -0.1015
17287TIP3   OH273275   6.287   2.468  13.827 -0.3213 -0.4979 -0.1364
17287TIP3    H173276   6.331   2.546  13.861 -0.7947  0.2778 -1.2702
17287TIP3    H273277   6.198   2.473  13.861 -0.7362  0.1716 -1.2727
17288TIP3   OH273278   6.160   0.834   0.580  0.6335  0.8190  0.0574
17288TIP3    H173279   6.066   0.842   0.568  0.2060 -1.2826  1.6434
17288TIP3    H273280   6.197   0.852   0.494 -1.3415  0.0575 -0.9821
17289TIP3   OH273281   3.415   2.868   5.381 -0.5326 -0.8580  0.3839
17289TIP3    H173282   3.426   2.777   5.406 -0.5759 -0.5817  1.4468
17289TIP3    H273283   3.332   2.895   5.420  0.9131  0.4679  2.6965
17290TIP3   OH273284   1.705   2.468  15.527  0.0879  0.3498  0.6581
17290TIP3    H173285   1.670   2.488  15.440 -1.2813  0.3594  1.1959
17290TIP3    H273286   1.631   2.428  15.573  1.4072 -1.5856  1.1406
17291TIP3   OH273287   5.037   3.547  13.461  0.0420 -0.3150  0.2060
17291TIP3    H173288   5.030   3.476  13.525  0.7916  1.8938  2.8675
17291TIP3    H273289   5.090   3.613  13.505  2.2655  0.5182 -3.4722
17292TIP3   OH273290   2.533   1.742  16.021 -0.0818  0.5414 -0.1527
17292TIP3    H173291   2.556   1.650  16.007 -0.6885  0.8468 -3.3307
17292TIP3    H273292   2.549   1.756  16.115  0.2763 -2.7133  0.3301
17293TIP3   OH273293   6.570   4.988  15.399  0.3696  0.3884  0.0931
17293TIP3    H173294   6.550   4.990  15.493  0.2027 -1.9139  0.1211
17293TIP3    H273295   6.664   5.010  15.395  0.0463  1.9913  0.6468
17294TIP3   OH273296   5.512   6.320   6.327 -0.3108  0.0990 -0.0515
17294TIP3    H173297   5.536   6.324   6.419  0.8359 -0.5780 -0.2993
17294TIP3    H273298   5.564   6.390   6.286  0.9293 -1.0686 -0.5243
17295TIP3   OH273299   4.021   3.166   4.997  0.2963 -0.3913  0.2743
17295TIP3    H173300   3.952   3.231   4.989  1.3876  0.7157 -0.2003
17295TIP3    H273301   4.071   3.193   5.074  1.2654 -0.1839 -0.4204
17296TIP3   OH273302   3.060   5.447  15.914 -0.4727 -0.2961 -0.5168
17296TIP3    H173303   2.993   5.446  15.983 -1.4421  0.4708 -1.4262
17296TIP3    H273304   3.125   5.510  15.945 -0.0452 -1.1933  0.4694
17297TIP3   OH273305   0.231   6.542  12.938  0.1343 -0.4054  0.2607
17297TIP3    H173306   0.136   6.558  12.935  0.3375  0.8431  0.4067
17297TIP3    H273307   0.248   6.516  13.029  0.0802  0.3693  0.4991
17298TIP3   OH273308   4.447   5.559   2.582  0.6773 -0.1984  0.4111
17298TIP3    H173309   4.420   5.472   2.552  0.1124  0.4139 -0.9038
17298TIP3    H273310   4.368   5.595   2.622  0.8704 -0.2352  0.8235
17299TIP3   OH273311   3.998   5.213  16.007  0.1674 -0.4007  0.0106
17299TIP3    H173312   3.917   5.214  15.955 -0.1225  0.1811  0.4660
17299TIP3    H273313   3.968   5.219  16.098  0.8058  2.5076  0.0796
17300TIP3   OH273314   2.647   5.722  11.741 -0.1128 -0.4419 -0.0382
17300TIP3    H173315   2.688   5.691  11.822  0.8982 -0.7968 -0.6652
17300TIP3    H273316   2.553   5.722  11.759  0.1391 -0.0087  1.3038
17301TIP3   OH273317   5.715   2.066  12.484 -0.7578 -0.1113  0.2594
17301TIP3    H173318   5.725   2.151  12.441  1.3992 -1.1744 -1.4001
17301TIP3    H273319   5.719   2.086  12.578  1.2794  1.4803 -0.1296
17302TIP3   OH273320   1.791   3.054   4.507 -0.2773  0.6650 -0.1699
17302TIP3    H173321   1.772   2.988   4.573 -3.7076 -0.0922 -1.7805
17302TIP3    H273322   1.806   3.135   4.557 -1.3416 -0.2013  1.6026
17303TIP3   OH273323   3.745   0.716   3.500 -0.0209 -0.9309  0.8988
17303TIP3    H173324   3.727   0.626   3.474  0.6983 -0.5927 -0.8974
17303TIP3    H273325   3.799   0.751   3.429 -0.5670  1.0074  1.3958
17304TIP3   OH273326   1.653   5.968   0.913 -0.4288  0.1524  0.5872
17304TIP3    H173327   1.608   5.922   0.983 -0.5044  0.9651  1.0807
17304TIP3    H273328   1.701   6.039   0.956 -1.7250  1.6290 -0.3035
17305TIP3   OH273329   6.138   6.460   1.675  0.1189  0.0611 -0.1045
17305TIP3    H173330   6.129   6.442   1.581  0.1068 -1.1769  0.1253
17305TIP3    H273331   6.229   6.438   1.695  0.1091  0.2805  0.1777
17306TIP3   OH273332   3.866   3.100  14.749 -0.6959  0.2633 -0.5688
17306TIP3    H173333   3.780   3.063  14.728 -1.4241  1.5883  0.0207
17306TIP3    H273334   3.903   3.038  14.812 -0.7238 -0.9185 -1.6853
17307TIP3   OH273335   4.055   0.731  17.149  0.2911  0.3673 -0.2149
17307TIP3    H173336   4.134   0.771  17.113  0.1896 -0.0531 -0.8996
17307TIP3    H273337   4.058   0.752  17.243  1.9487 -0.9093  0.0252
17308TIP3   OH273338   3.181   2.525   6.268 -0.1511  0.1614  0.6985
17308TIP3    H173339   3.231   2.607   6.268 -1.5472  1.0348 -0.1181
17308TIP3    H273340   3.243   2.460   6.237  1.6241  0.4614  3.3828
17309TIP3   OH273341   4.254   3.147  14.206  0.6510 -0.0203 -0.0725
17309TIP3    H173342   4.296   3.183  14.284 -0.4179  0.4836  0.2870
17309TIP3    H273343   4.292   3.196  14.133  1.1778 -0.0384  0.1869
17310TIP3   OH273344   2.728   3.118   0.964  0.1807 -0.3095  0.1693
17310TIP3    H173345   2.695   3.046   0.910 -4.3547 -0.5628  2.9881
17310TIP3    H273346   2.683   3.196   0.932  1.5800  0.4904  0.1024
17311TIP3   OH273347   5.705   4.542   3.171  0.1347 -0.2982 -0.0903
17311TIP3    H173348   5.741   4.616   3.123  0.1135 -0.1574  0.1099
17311TIP3    H273349   5.672   4.483   3.104 -1.0425  0.4753 -0.1962
17312TIP3   OH273350   2.250   6.559  13.166  0.1545 -0.1735 -0.4364
17312TIP3    H173351   2.266   6.563  13.072  4.5632  2.5484  0.2748
17312TIP3    H273352   2.210   6.643  13.187 -1.7240 -1.1617 -0.0018
17313TIP3   OH273353   3.667   2.700   5.274  0.2498 -0.4068  0.0497
17313TIP3    H173354   3.698   2.704   5.183 -0.2116  0.3954 -0.0728
17313TIP3    H273355   3.681   2.788   5.308  2.6863 -1.3294  1.5215
17314TIP3   OH273356   5.928   6.328  14.626 -0.0797 -0.2748 -0.2459
17314TIP3    H173357   5.876   6.407  14.636 -1.3195 -1.0770 -0.3271
17314TIP3    H273358   5.910   6.276  14.704  2.9971  0.7948  1.2588
17315TIP3   OH273359   5.351   1.312  12.755 -0.2305  0.4407  0.5209
17315TIP3    H173360   5.381   1.221  12.755 -1.9179 -0.1711 -2.1239
17315TIP3    H273361   5.423   1.361  12.715 -0.1242 -0.0358  0.1253
17316TIP3   OH273362   1.072   3.399   4.312  0.5507 -0.4324  0.4776
17316TIP3    H173363   1.123   3.368   4.388  0.3079 -0.4396  0.6366
17316TIP3    H273364   0.981   3.379   4.334  0.5511 -1.1453 -0.1500
17317TIP3   OH273365   0.628   5.473   4.099  0.1668  0.1972 -0.6686
17317TIP3    H173366   0.603   5.533   4.029 -1.9083  0.4678  0.2650
17317TIP3    H273367   0.546   5.449   4.141  1.4678  1.0225  2.4776
17318TIP3   OH273368   4.888   3.591   4.615  0.6537  0.5785  0.0025
17318TIP3    H173369   4.863   3.601   4.523  0.8804  0.6462 -0.0535
17318TIP3    H273370   4.911   3.680   4.643 -2.3273  1.0874  0.9939
17319TIP3   OH273371   1.527   0.050  14.669  0.1789 -0.1628  0.4288
17319TIP3    H173372   1.525  -0.044  14.689  0.9559 -0.5878 -1.4235
17319TIP3    H273373   1.614   0.078  14.695  1.2925 -0.7766 -2.4960
17320TIP3   OH273374   3.314   3.279  11.464  0.2778 -0.0260 -0.4887
17320TIP3    H173375   3.365   3.198  11.457  0.1089  0.1196 -4.7898
17320TIP3    H273376   3.378   3.348  11.447 -0.0753  0.6063  0.7163
17321TIP3   OH273377   6.518   5.645  11.395 -0.1121  0.1090 -0.5584
17321TIP3    H173378   6.565   5.573  11.438 -1.7206 -0.9635 -0.5339
17321TIP3    H273379   6.468   5.686  11.466 -0.8108 -0.0770 -0.9382
17322TIP3   OH273380   4.042   1.456  12.769 -0.7477 -0.6813 -0.5560
17322TIP3    H173381   4.090   1.414  12.841 -0.2247 -0.9699 -1.0637
17322TIP3    H273382   3.990   1.386  12.731 -0.2260 -0.7712 -1.1135
17323TIP3   OH273383   0.479   5.884  10.410  0.5690 -0.3088  0.1267
17323TIP3    H173384   0.437   5.890  10.496  0.1102  0.4307 -0.1424
17323TIP3    H273385   0.439   5.954  10.359  0.9807 -0.6203 -0.6320
17324TIP3   OH273386   2.602   2.327   0.037  0.0318 -0.3575  0.4360
17324TIP3    H173387   2.541   2.360   0.103 -0.5903  0.5899 -0.5712
17324TIP3    H273388   2.568   2.241   0.012 -1.5266  0.6069 -0.8700
17325TIP3   OH273389   1.228   4.182   0.041  0.1640  0.1350  1.1930
17325TIP3    H173390   1.212   4.129   0.120 -0.2883  0.3351  1.2344
17325TIP3    H273391   1.143   4.220   0.020  0.6432  1.4249  1.5771
17326TIP3   OH273392   5.321   1.389  14.056  0.5472 -0.1940  0.1078
17326TIP3    H173393   5.257   1.415  14.123  0.4217 -0.3190  0.0389
17326TIP3    H273394   5.406   1.411  14.094  0.3161  3.3451 -1.2708
17327TIP3   OH273395   2.024   5.658   4.592 -0.0412 -0.2211  0.2442
17327TIP3    H173396   2.073   5.707   4.657  1.3239  0.4163 -1.2237
17327TIP3    H273397   2.014   5.718   4.518 -2.7510 -0.4626  0.3606
17328TIP3   OH273398   3.890   4.402  15.390  0.8229 -0.1971  0.4031
17328TIP3    H173399   3.838   4.454  15.328 -1.0041 -0.1084  1.9873
17328TIP3    H273400   3.979   4.409  15.357  0.3457  2.4660 -0.4581
17329TIP3   OH273401   3.069   6.026   2.565 -0.1630  0.1408  0.3000
17329TIP3    H173402   2.992   6.051   2.514  0.8581  2.9862  0.0447
17329TIP3    H273403   3.034   5.983   2.643 -1.8672 -1.0759 -1.1133
17330TIP3   OH273404   6.124   0.339   4.190  0.0774 -0.1249 -0.7216
17330TIP3    H173405   6.185   0.290   4.135  0.6750 -1.4330  1.0743
17330TIP3    H273406   6.039   0.298   4.173  0.5174 -1.5947  0.5048
17331TIP3   OH273407   0.108   0.806   3.548 -0.2153  0.2144  0.8226
17331TIP3    H173408   0.143   0.769   3.467  0.5464 -0.6164  1.5241
17331TIP3    H273409   0.163   0.883   3.565  1.0090 -0.8494  1.7001
17332TIP3   OH273410   2.494   1.814   4.695 -0.2577  0.2038  0.1836
17332TIP3    H173411   2.568   1.848   4.644  0.9796 -0.3413  1.5487
17332TIP3    H273412   2.477   1.883   4.759  1.5805 -1.1970  2.2940
17333TIP3   OH273413   4.736   2.013   0.123 -0.3509 -0.0899 -0.1018
17333TIP3    H173414   4.693   2.052   0.047 -1.7357 -0.1600  0.6307
17333TIP3    H273415   4.761   1.925   0.093 -0.1935  0.1603 -0.7180
17334TIP3   OH273416   3.519   0.789  10.259  0.1547 -0.1642 -0.2088
17334TIP3    H173417   3.569   0.871  10.265  0.4253 -0.3137 -0.3856
17334TIP3    H273418   3.582   0.721  10.284 -0.7041 -0.1122  2.2330
17335TIP3   OH273419   6.627   3.259  12.656  0.2122 -0.4033 -0.1850
17335TIP3    H173420   6.621   3.166  12.633 -1.2920 -0.1771 -0.7639
17335TIP3    H273421   6.673   3.260  12.740  0.7096 -1.6283 -0.4322
17336TIP3   OH273422   4.054   4.572   4.610 -0.3716  0.1736 -0.1155
17336TIP3    H173423   4.009   4.576   4.525  0.0908 -1.6448 -0.4779
17336TIP3    H273424   4.049   4.661   4.644 -0.1521  1.0426 -2.2717
17337TIP3   OH273425   4.114   0.936  11.798  0.1372  0.1988 -0.1802
17337TIP3    H173426   4.076   0.946  11.711  0.9623 -0.5543 -0.6399
17337TIP3    H273427   4.046   0.965  11.858 -0.6656  0.1298 -1.0492
17338TIP3   OH273428   2.806   6.524  16.539  0.4450 -0.6713 -0.5112
17338TIP3    H173429   2.771   6.464  16.473 -1.0991  0.0330 -0.3465
17338TIP3    H273430   2.737   6.529  16.606  1.6972 -0.8272  0.8059
17339TIP3   OH273431   0.093   4.460   0.706 -0.5155 -0.2226  0.3747
17339TIP3    H173432   0.056   4.407   0.635  0.5321  1.6712 -1.6256
17339TIP3    H273433   0.085   4.550   0.676  3.1190  0.4210  1.1394
17340TIP3   OH273434   5.751   4.436  15.270  0.3693 -0.2244 -0.2353
17340TIP3    H173435   5.805   4.510  15.300  1.5514 -0.6751 -1.1797
17340TIP3    H273436   5.802   4.358  15.295  0.2322 -0.6541 -1.2659
17341TIP3   OH273437   6.017   5.931  10.900  0.0102 -0.3451  0.0515
17341TIP3    H173438   5.929   5.950  10.934  0.2822 -1.8814  1.6955
17341TIP3    H273439   6.011   5.841  10.868  0.8953 -0.3370 -0.1312
17342TIP3   OH273440   1.667   3.055  16.321 -0.0386 -0.4051 -0.2153
17342TIP3    H173441   1.627   3.065  16.408 -0.6299 -1.6911 -0.3300
17342TIP3    H273442   1.753   3.019  16.339 -0.1416 -0.6245 -0.1574
17343TIP3   OH273443   3.606   3.980  12.901 -0.1700  0.0377  0.6482
17343TIP3    H173444   3.558   4.063  12.905 -1.5868 -0.8501  2.9270
17343TIP3    H273445   3.545   3.919  12.858  0.2024 -0.2583  0.5342
17344TIP3   OH273446   1.501   2.914  10.950  0.6990  0.0142 -0.1674
17344TIP3    H173447   1.432   2.860  10.989  1.6167  0.7316  2.5705
17344TIP3    H273448   1.564   2.851  10.916 -0.4622 -0.6411 -1.1316
17345TIP3   OH273449   0.069   5.220   4.543  0.0109  0.1358 -0.4889
17345TIP3    H173450  -0.018   5.258   4.561  1.1087  1.1248  3.1937
17345TIP3    H273451   0.108   5.279   4.479 -1.2849  0.8176 -0.6673
17346TIP3   OH273452   1.634   5.637  13.204  0.3301 -0.8093 -0.1622
17346TIP3    H173453   1.589   5.655  13.121  1.1275  1.5427 -0.1174
17346TIP3    H273454   1.708   5.582  13.179  0.5212 -0.1795 -1.0068
17347TIP3   OH273455   5.195   6.501  11.451  0.2569 -0.3731 -0.5400
17347TIP3    H173456   5.125   6.446  11.416 -0.2550  0.6918 -1.2002
17347TIP3    H273457   5.183   6.586  11.408 -1.1271  1.3463  3.0391
17348TIP3   OH273458   3.479   1.306   1.220 -0.1475 -0.0145  0.0612
17348TIP3    H173459   3.559   1.275   1.261 -1.2517 -0.8649  1.5968
17348TIP3    H273460   3.452   1.235   1.162 -1.1260 -0.7877  1.4310
17349TIP3   OH273461   2.597   6.259  14.547  0.0625 -0.0690  0.8459
17349TIP3    H173462   2.687   6.238  14.572 -0.0418 -2.3008 -0.5464
17349TIP3    H273463   2.604   6.287  14.455 -0.9532 -2.6843 -0.0658
17350TIP3   OH273464   1.648   2.049   0.022 -0.3517 -0.5397  0.1246
17350TIP3    H173465   1.712   2.026  -0.046 -0.6551 -1.1920  0.0583
17350TIP3    H273466   1.698   2.043   0.104 -0.1806 -0.4895  0.0253
17351TIP3   OH273467   5.413   4.765  16.798  0.1223  0.2318 -0.0417
17351TIP3    H173468   5.401   4.734  16.708  0.4101  1.8264 -0.6377
17351TIP3    H273469   5.508   4.771  16.808  0.1713 -1.8423  1.0509
17352TIP3   OH273470   0.350   2.712   2.615 -0.0988  0.4262 -0.7783
17352TIP3    H173471   0.388   2.721   2.702 -1.6850  1.8068 -0.2230
17352TIP3    H273472   0.300   2.630   2.619  1.2444 -0.4219 -0.9459
17353TIP3   OH273473   0.519   5.071   3.369  0.0726  0.3754  0.8072
17353TIP3    H173474   0.534   5.165   3.380  2.0226  0.3112 -1.1154
17353TIP3    H273475   0.602   5.031   3.393 -0.3503 -0.7689  0.3697
17354TIP3   OH273476   2.775   4.586  14.037  0.8818  0.1117 -0.8435
17354TIP3    H173477   2.854   4.533  14.044  1.1437  0.6694  0.5978
17354TIP3    H273478   2.706   4.534  14.078  1.3292  1.2341  1.3890
17355TIP3   OH273479   3.003   1.683   5.427 -0.4031  0.7672  0.5900
17355TIP3    H173480   2.948   1.739   5.481 -0.8939 -1.4279  2.4438
17355TIP3    H273481   3.083   1.672   5.479 -0.8162 -1.2282  0.8321
17356TIP3   OH273482   0.457   4.891   0.587 -0.1676  0.2757 -0.1962
17356TIP3    H173483   0.479   4.968   0.639 -2.8547  0.3307  0.9407
17356TIP3    H273484   0.488   4.912   0.499  2.0572  1.2775  0.7952
17357TIP3   OH273485   2.077   2.628   2.597  0.3172  1.0007 -0.2919
17357TIP3    H173486   2.057   2.709   2.550 -1.4034  1.6534  1.5155
17357TIP3    H273487   2.137   2.655   2.666 -0.8077  0.8587  0.7455
17358TIP3   OH273488   2.994   3.925   4.821 -0.7831  0.0326  0.4650
17358TIP3    H173489   3.084   3.925   4.852 -0.5817  0.1514 -0.1201
17358TIP3    H273490   2.984   3.841   4.776 -0.3258  0.8974 -1.3038
17359TIP3   OH273491   6.343   2.814   0.890  0.1175  0.3679 -0.3090
17359TIP3    H173492   6.351   2.726   0.854 -1.1938  0.7106 -1.4691
17359TIP3    H273493   6.267   2.809   0.948  0.9651  0.3525  0.8174
17360TIP3   OH273494   5.279   2.323   3.086 -0.3846  0.0065  0.2970
17360TIP3    H173495   5.308   2.317   2.994  1.5569  3.6627  0.5715
17360TIP3    H273496   5.267   2.416   3.101 -1.7611 -0.6318  3.4954
17361TIP3   OH273497   1.994   1.353   3.904  0.2403  0.0903 -0.2814
17361TIP3    H173498   2.046   1.417   3.952  0.1060  0.6069 -0.8286
17361TIP3    H273499   1.944   1.307   3.972  2.0003 -0.9664  0.3264
17362TIP3   OH273500   0.618   1.161  11.612 -0.6383  0.4085  0.2121
17362TIP3    H173501   0.613   1.191  11.521 -0.8471 -1.9802 -0.5912
17362TIP3    H273502   0.601   1.067  11.608 -3.5289  0.7131  3.0399
17363TIP3   OH273503   0.721   4.852  15.359 -0.1049  0.1166  0.2159
17363TIP3    H173504   0.790   4.788  15.346 -1.4158 -1.4825  0.9325
17363TIP3    H273505   0.761   4.921  15.413  1.6818  0.5860 -1.6302
17364TIP3   OH273506   0.621   2.372   4.399  0.3460  0.2030  0.3537
17364TIP3    H173507   0.643   2.402   4.311  1.9012 -1.1545  0.2522
17364TIP3    H273508   0.554   2.305   4.385 -0.7628  1.2963  0.3517
17365TIP3   OH273509   0.743   3.198  14.378  0.1939 -0.0631  0.3715
17365TIP3    H173510   0.825   3.237  14.409  0.2744  0.2291 -0.1940
17365TIP3    H273511   0.744   3.110  14.414  0.9316 -0.1834  0.0782
17366TIP3   OH273512   2.679   4.198  10.792  0.0031  0.1240  0.8930
17366TIP3    H173513   2.691   4.103  10.801  0.8321  0.3484  2.3086
17366TIP3    H273514   2.737   4.223  10.720  0.7739 -0.2517  1.3756
17367TIP3   OH273515   5.926   0.100   4.159  0.5956 -0.3083 -0.3893
17367TIP3    H173516   5.898   0.009   4.170  0.3320 -0.0124  1.5443
17367TIP3    H273517   6.007   0.094   4.109 -0.9589 -1.3961 -2.8851
17368TIP3   OH273518   5.626   0.241  16.985  1.0843  0.2027  0.3151
17368TIP3    H173519   5.623   0.329  16.947 -0.5726 -0.2313 -0.5665
17368TIP3    H273520   5.571   0.188  16.928  0.6769 -1.0342  1.8309
17369TIP3   OH273521   3.087   4.847   3.565 -0.2348 -0.0414 -0.2545
17369TIP3    H173522   3.032   4.910   3.520 -0.4191 -0.3363 -0.4430
17369TIP3    H273523   3.172   4.854   3.522  0.2923  1.4349  0.9702
17370TIP3   OH273524   3.263   2.109   3.654 -0.1968 -0.0612  0.1032
17370TIP3    H173525   3.315   2.040   3.695 -0.0311  1.0111  1.7343
17370TIP3    H273526   3.240   2.074   3.568 -1.0418 -2.6168  1.3281
17371TIP3   OH273527   3.006   4.052   0.478  0.1267 -0.0038 -0.1567
17371TIP3    H173528   2.946   4.090   0.414  0.1334  0.9730  0.4009
17371TIP3    H273529   3.001   3.958   0.463 -0.4786  0.1654 -1.0543
17372TIP3   OH273530   5.003   4.465   3.924 -0.2180 -0.0409  0.2231
17372TIP3    H173531   4.974   4.422   4.005  1.3036 -1.2273  0.1564
17372TIP3    H273532   5.011   4.395   3.860 -0.6715  0.7840 -0.7585
17373TIP3   OH273533   4.220   4.721  11.737  0.0147 -0.6293 -0.2938
17373TIP3    H173534   4.231   4.627  11.754 -1.2103 -0.4748  1.4889
17373TIP3    H273535   4.140   4.745  11.783  1.0200  1.5731  0.3966
17374TIP3   OH273536   2.367   3.964  14.993  0.5439 -0.2343 -0.0001
17374TIP3    H173537   2.435   3.909  14.954  0.0441 -0.7666 -0.1314
17374TIP3    H273538   2.413   4.044  15.020  1.2314 -0.6293  0.0022
17375TIP3   OH273539   2.714   6.273  16.075 -0.1900  0.4063  0.3571
17375TIP3    H173540   2.685   6.336  16.009 -0.9818 -0.4071 -0.0757
17375TIP3    H273541   2.676   6.189  16.047  1.4501 -0.4185  0.5138
17376TIP3   OH273542   5.038   3.901   5.424  0.2727 -0.0859 -0.4218
17376TIP3    H173543   4.952   3.926   5.389  0.4119 -0.9097 -1.3856
17376TIP3    H273544   5.018   3.835   5.491  0.1471 -0.2967 -0.6629
17377TIP3   OH273545   1.195   3.720   5.504  0.4757  0.2285 -0.0885
17377TIP3    H173546   1.240   3.754   5.582  0.9961  0.7984 -0.6420
17377TIP3    H273547   1.245   3.641   5.481  1.1354  0.8117 -0.6517
17378TIP3   OH273548   1.812   4.762  13.771 -0.4933  0.2917 -0.1658
17378TIP3    H173549   1.754   4.742  13.697  2.0945 -0.6353 -2.0169
17378TIP3    H273550   1.821   4.857  13.769 -0.3061  0.2572 -1.1558
17379TIP3   OH273551   2.131   1.127  14.426  0.1378  0.2620  0.3497
17379TIP3    H173552   2.168   1.192  14.366 -0.2187  0.7291  0.6419
17379TIP3    H273553   2.052   1.168  14.460  0.2954 -0.0468  1.0765
17380TIP3   OH273554   0.759   2.470  12.677  1.0035 -0.4434 -0.5868
17380TIP3    H173555   0.700   2.507  12.612 -0.2855 -1.3017  0.0838
17380TIP3    H273556   0.702   2.432  12.744  2.3024 -0.9229  0.2887
17381TIP3   OH273557   3.215   3.647   6.305 -0.2914 -0.8477 -0.0962
17381TIP3    H173558   3.168   3.730   6.310  0.7354 -0.0362 -2.6254
17381TIP3    H273559   3.163   3.593   6.245  0.6251 -0.8774 -0.8835
17382TIP3   OH273560   2.756   2.660   1.991  0.0033 -0.0512 -0.0233
17382TIP3    H173561   2.836   2.677   1.941 -0.3819 -1.6901 -1.2698
17382TIP3    H273562   2.699   2.614   1.929 -0.5461 -2.0214  1.8865
17383TIP3   OH273563   4.514   5.387   0.725 -0.6774 -0.2816  0.1841
17383TIP3    H173564   4.534   5.295   0.714  0.7271 -0.0637  0.8840
17383TIP3    H273565   4.562   5.414   0.804 -1.1099  1.0282  0.0233
17384TIP3   OH273566   4.187   2.123  16.618  0.1950 -0.0346 -0.4462
17384TIP3    H173567   4.107   2.131  16.670 -0.1704 -0.1027 -0.9884
17384TIP3    H273568   4.170   2.049  16.559  0.9262 -0.4926 -0.0956
17385TIP3   OH273569   1.730   0.853  13.992  0.7022 -0.0093  0.2386
17385TIP3    H173570   1.705   0.826  13.903  1.8855  0.7600 -0.3277
17385TIP3    H273571   1.649   0.888  14.030  0.2159 -0.2576 -0.5699
17386TIP3   OH273572   6.264   3.299  11.362 -0.2006  0.0934  0.7915
17386TIP3    H173573   6.230   3.385  11.337  0.8702  0.1368 -0.5029
17386TIP3    H273574   6.207   3.237  11.317 -2.9974 -0.0054  4.1972
17387TIP3   OH273575   3.164   5.429  16.648  0.3283  0.0723  0.4488
17387TIP3    H173576   3.140   5.518  16.624 -0.2170 -0.4831 -1.0692
17387TIP3    H273577   3.118   5.414  16.731  0.2827  1.1269  0.6228
17388TIP3   OH273578   4.785   4.511   2.492  0.3809 -0.2661  0.5004
17388TIP3    H173579   4.811   4.585   2.547 -0.4916  0.4573 -0.0438
17388TIP3    H273580   4.698   4.487   2.524 -0.5860  0.8265 -1.2056
17389TIP3   OH273581   1.856   5.430   5.840 -0.4889 -0.0333  0.3599
17389TIP3    H173582   1.815   5.352   5.802  0.9979 -0.2123 -0.9562
17389TIP3    H273583   1.902   5.398   5.917  0.8509 -0.6224 -0.6788
17390TIP3   OH273584   6.274   4.475  17.003  0.0211 -0.4854  0.4143
17390TIP3    H173585   6.350   4.417  16.995 -0.2347 -0.8509  0.6052
17390TIP3    H273586   6.267   4.518  16.917  0.7604 -0.0525  0.5724
17391TIP3   OH273587   0.452   6.446   1.408 -0.3593 -0.3448 -0.2330
17391TIP3    H173588   0.380   6.480   1.462  1.2717  1.3286  0.9364
17391TIP3    H273589   0.431   6.353   1.397 -1.0049 -0.6485  2.8958
17392TIP3   OH273590   3.874   0.794  10.757  0.4597 -0.6463 -0.1895
17392TIP3    H173591   3.879   0.837  10.842 -1.9920  0.3019 -0.4813
17392TIP3    H273592   3.942   0.727  10.759  2.0498  0.9667  1.5851
17393TIP3   OH273593   4.616   5.082   3.628  0.3988  0.0207  0.2269
17393TIP3    H173594   4.605   5.177   3.627  0.2787  0.0127  1.0627
17393TIP3    H273595   4.545   5.050   3.682  1.0905 -0.4620  0.8521
17394TIP3   OH273596   2.819   4.786  13.243 -0.5364 -0.0890 -0.8197
17394TIP3    H173597   2.755   4.749  13.183 -1.2587  0.3323 -0.3184
17394TIP3    H273598   2.778   4.777  13.330 -0.3230  1.0276 -0.5986
17395TIP3   OH273599   2.750   5.831   7.074 -0.6032  0.4143 -0.1121
17395TIP3    H173600   2.764   5.739   7.052 -2.3167  0.1490 -0.1636
17395TIP3    H273601   2.838   5.866   7.089 -0.0995 -2.1557  3.7219
17396TIP3   OH273602   3.206   2.705   1.655  0.3761 -0.8208  0.0177
17396TIP3    H173603   3.211   2.643   1.582  1.0112 -0.0561 -0.6004
17396TIP3    H273604   3.225   2.790   1.616 -0.2893 -0.2545  0.8974
17397TIP3   OH273605   5.939   6.604   2.549 -0.0780  0.0202  0.1090
17397TIP3    H173606   6.021   6.641   2.583 -0.3326 -0.3388  1.1529
17397TIP3    H273607   5.877   6.614   2.621 -0.9443  0.2510 -0.6639
17398TIP3   OH273608   3.448   3.808   0.464  0.1380 -0.6942  0.4047
17398TIP3    H173609   3.533   3.833   0.500  0.0944  0.6556 -0.3929
17398TIP3    H273610   3.464   3.723   0.422  1.4407  0.1639 -0.9179
17399TIP3   OH273611   4.322   2.747  12.370  0.5428  0.1937  0.4396
17399TIP3    H173612   4.385   2.799  12.320 -0.0952 -0.0286 -0.6184
17399TIP3    H273613   4.247   2.737  12.311 -0.1486 -0.2423  1.3708
17400TIP3   OH273614   2.173   2.066  12.153  0.0527 -0.0941  0.1621
17400TIP3    H173615   2.195   2.146  12.106 -0.5935 -0.8482 -1.4565
17400TIP3    H273616   2.240   2.003  12.127 -1.1356 -0.9446 -0.9018
17401TIP3   OH273617   0.575   2.210   5.111  0.0206  0.2068 -0.2572
17401TIP3    H173618   0.587   2.223   5.205 -2.0552  0.4932  0.0001
17401TIP3    H273619   0.611   2.289   5.071  0.9373  0.0707  0.3008
17402TIP3   OH273620   2.960   4.936  13.853  0.6226  0.8596  0.3495
17402TIP3    H173621   2.895   4.870  13.830  3.3463 -2.3026  1.2670
17402TIP3    H273622   2.926   4.976  13.933 -0.3274 -0.5442  0.6697
17403TIP3   OH273623   3.991   5.310   2.952 -0.2095  0.2401  0.0808
17403TIP3    H173624   4.025   5.261   2.877 -2.4135 -1.9636  0.4471
17403TIP3    H273625   3.941   5.382   2.913 -0.2668 -0.1257 -0.5251
17404TIP3   OH273626   3.655   4.322  14.561  0.6078  0.3068 -0.1317
17404TIP3    H173627   3.573   4.309  14.609 -0.8101  0.8176 -2.3333
17404TIP3    H273628   3.715   4.257  14.598 -0.8511 -0.2110  1.3818
17405TIP3   OH273629   4.160   1.910  14.037 -0.1393  0.0069 -0.2365
17405TIP3    H173630   4.085   1.956  14.000  0.9388  0.2177 -2.2131
17405TIP3    H273631   4.153   1.924  14.131 -3.1219 -0.8044 -0.2913
17406TIP3   OH273632   4.938   1.004  11.739  0.1771 -0.3240 -0.5599
17406TIP3    H173633   4.870   1.071  11.738  2.5861  2.2838  1.9672
17406TIP3    H273634   4.929   0.962  11.825  1.0544 -0.7377 -0.6659
17407TIP3   OH273635   4.021   3.062   1.370  0.8508  0.1840  0.4332
17407TIP3    H173636   3.996   2.981   1.415  2.0017 -0.5469 -0.2204
17407TIP3    H273637   3.942   3.116   1.374  0.7196 -0.0961  2.7766
17408TIP3   OH273638   2.353   6.508  15.582  0.1396  0.1256 -0.7092
17408TIP3    H173639   2.274   6.515  15.529  0.0619  0.8436 -0.4968
17408TIP3    H273640   2.423   6.490  15.519 -0.3171 -1.3361 -0.8168
17409TIP3   OH273641   3.349   2.786   6.569  0.0139 -0.6985 -0.6021
17409TIP3    H173642   3.427   2.800   6.623 -0.0823 -3.3962  0.3469
17409TIP3    H273643   3.282   2.756   6.630 -1.4133  0.3762 -1.5984
17410TIP3   OH273644   6.376   2.375   1.559  0.1766  0.0904  0.3521
17410TIP3    H173645   6.291   2.363   1.601 -0.5029 -0.7310 -1.2268
17410TIP3    H273646   6.439   2.370   1.631 -1.1766  1.8713  1.6992
17411TIP3   OH273647   0.339   5.181   1.707 -0.0685  0.1418 -0.3809
17411TIP3    H173648   0.398   5.219   1.641  1.9175 -0.3315  1.0606
17411TIP3    H273649   0.381   5.098   1.731 -2.8317 -1.6109 -1.3522
17412TIP3   OH273650   0.828   0.201   5.957  0.0510 -0.0001 -0.1629
17412TIP3    H173651   0.860   0.129   6.012  0.0201 -0.3893 -0.6528
17412TIP3    H273652   0.822   0.276   6.017 -1.1671 -0.7287  0.6409
17413TIP3   OH273653   2.964   5.148   4.963  0.1962  0.7697 -0.6013
17413TIP3    H173654   3.054   5.165   4.992  0.0757  0.1490  0.1698
17413TIP3    H273655   2.914   5.225   4.992 -0.3677 -0.8296  2.9542
17414TIP3   OH273656   0.714   2.646  13.334 -0.0603  0.4753 -0.2877
17414TIP3    H173657   0.769   2.690  13.399  1.4345 -1.1490 -0.4160
17414TIP3    H273658   0.729   2.552  13.349  0.2715  0.0681 -2.9536
17415TIP3   OH273659   1.576   2.249   3.619  0.0230 -0.4027  0.1897
17415TIP3    H173660   1.562   2.174   3.676 -0.8491 -0.4711 -0.1139
17415TIP3    H273661   1.670   2.247   3.599  0.2472 -0.6338  1.2604
17416TIP3   OH273662   1.226   6.519  13.294 -0.3757 -0.1883 -0.2642
17416TIP3    H173663   1.274   6.453  13.345  1.7056  0.7275 -1.0052
17416TIP3    H273664   1.226   6.485  13.204 -1.2167 -0.2192 -0.2600
17417TIP3   OH273665   6.617   3.841   5.497  0.3090 -0.0013  0.0428
17417TIP3    H173666   6.655   3.795   5.423  1.1964  1.6397 -0.5315
17417TIP3    H273667   6.584   3.771   5.554  1.0037 -1.3134 -1.1439
17418TIP3   OH273668   6.508   3.475   3.852 -0.0440 -0.2758  0.0295
17418TIP3    H173669   6.503   3.508   3.942  1.3810  0.6867 -0.2318
17418TIP3    H273670   6.591   3.428   3.848 -1.0429 -2.0697 -0.2292
17419TIP3   OH273671   1.122   4.437  13.273 -0.1730 -0.2407  0.0707
17419TIP3    H173672   1.110   4.475  13.360 -1.7446 -0.5133 -0.0110
17419TIP3    H273673   1.039   4.454  13.228 -0.0513 -1.7369 -0.7459
17420TIP3   OH273674   2.616   4.647   6.251  0.4751 -0.0410  0.0023
17420TIP3    H173675   2.661   4.570   6.217  1.0100  0.9527 -1.5850
17420TIP3    H273676   2.660   4.721   6.211 -2.0142  1.0020 -0.9407
17421TIP3   OH273677   5.041   6.225  13.160 -0.0329  0.7605  0.3070
17421TIP3    H173678   4.989   6.166  13.106  0.5458  0.8654 -0.3849
17421TIP3    H273679   5.130   6.216  13.126  0.3443  0.8030  1.2756
17422TIP3   OH273680   3.271   3.086  16.158 -0.0616  0.4114  0.2706
17422TIP3    H173681   3.268   3.059  16.250  1.5418 -0.9129 -0.0452
17422TIP3    H273682   3.364   3.096  16.139 -0.3247 -0.2088 -1.4615
17423TIP3   OH273683   1.691   0.418  14.608  0.0478  0.0569  0.2671
17423TIP3    H173684   1.738   0.393  14.687  2.1816  1.1427 -0.6317
17423TIP3    H273685   1.696   0.340  14.552 -1.2549 -0.6276  1.0800
17424TIP3   OH273686   3.653   0.765   4.749 -0.0029  0.4582 -0.2796
17424TIP3    H173687   3.616   0.715   4.822  1.1439 -1.0961 -0.7361
17424TIP3    H273688   3.613   0.852   4.757 -0.1946  0.1928  1.9616
17425TIP3   OH273689   2.052   5.821   0.885 -0.3580 -0.0471 -0.2397
17425TIP3    H173690   2.016   5.833   0.797  0.4842 -0.0385 -0.5900
17425TIP3    H273691   1.997   5.877   0.941  0.4849  1.6876 -1.1088
17426TIP3   OH273692   0.325   5.485   2.149  0.2760 -0.2983 -0.2191
17426TIP3    H173693   0.289   5.534   2.223  2.5043 -1.4730  1.7603
17426TIP3    H273694   0.416   5.468   2.175  1.0416 -0.9385 -3.1678
17427TIP3   OH273695   4.851   0.833   2.046 -0.3791 -0.8098  0.2572
17427TIP3    H173696   4.848   0.801   2.136  2.2703 -0.7731  0.4032
17427TIP3    H273697   4.942   0.818   2.019 -1.5187 -2.2725 -2.9555
17428TIP3   OH273698   0.142   3.266   1.191  0.4952 -0.2728  0.0321
17428TIP3    H173699   0.090   3.274   1.271 -1.1970 -1.0734 -0.9502
17428TIP3    H273700   0.228   3.237   1.221 -0.0006 -0.1491  1.6014
17429TIP3   OH273701   3.353   4.876   3.494 -0.0507  0.1151 -0.1583
17429TIP3    H173702   3.327   4.958   3.451  0.9961  1.1384  1.0685
17429TIP3    H273703   3.439   4.897   3.532 -0.7244 -0.8916  1.9657
17430TIP3   OH273704   2.064   2.287   3.325 -0.0524  0.4766 -0.7396
17430TIP3    H173705   2.147   2.308   3.368  0.8797 -1.0465 -1.7501
17430TIP3    H273706   2.084   2.212   3.270 -2.2107 -0.1638 -0.6885
17431TIP3   OH273707   3.242   1.493  14.115 -0.5956 -0.5911  0.2484
17431TIP3    H173708   3.306   1.491  14.187 -2.0635 -1.9984  1.5325
17431TIP3    H273709   3.157   1.483  14.158 -1.6314  0.2830 -1.5382
17432TIP3   OH273710   1.411   1.005  15.680  0.4995 -0.0793 -0.0469
17432TIP3    H173711   1.326   1.004  15.724  0.8347  0.2462  0.6270
17432TIP3    H273712   1.470   1.044  15.744  0.9199  0.7718 -0.9396
17433TIP3   OH273713   1.953   4.488   2.091  0.3855  0.3768 -0.2267
17433TIP3    H173714   1.946   4.513   2.183  1.4122  1.0085 -0.3104
17433TIP3    H273715   1.958   4.571   2.044  0.2600  0.0532 -0.8171
17434TIP3   OH273716   2.280   5.642  15.022  0.3189  0.6252 -0.2737
17434TIP3    H173717   2.355   5.609  15.072  0.8148 -0.4609 -1.7137
17434TIP3    H273718   2.252   5.720  15.070  0.3145 -0.7961  2.1328
17435TIP3   OH273719   3.598   2.293  13.941  0.0311 -0.0587 -0.1199
17435TIP3    H173720   3.547   2.338  14.008  1.0083 -0.0146  0.6163
17435TIP3    H273721   3.611   2.205  13.975  1.7325  0.3727  0.4473
17436TIP3   OH273722   1.669   6.782  16.895  0.3914 -0.0251 -0.6501
17436TIP3    H173723   1.705   6.762  16.808 -0.5590 -1.0108 -0.8251
17436TIP3    H273724   1.739   6.759  16.956  0.6458 -0.4108 -1.0841
17437TIP3   OH273725   0.784   3.582  16.011 -0.7103 -0.3809 -0.4761
17437TIP3    H173726   0.825   3.497  16.029  1.4476  0.5283 -0.9193
17437TIP3    H273727   0.813   3.639  16.083 -0.3401  0.5650 -1.3657
17438TIP3   OH273728   0.419   2.863  12.037 -0.0624 -0.0819 -0.4182
17438TIP3    H173729   0.466   2.882  12.118  0.9379  1.8499 -1.4183
17438TIP3    H273730   0.332   2.903  12.050  1.0115  2.6777 -1.3240
17439TIP3   OH273731   4.153   2.638  11.906 -0.3284  0.3148 -0.4829
17439TIP3    H173732   4.099   2.700  11.856  0.0572 -0.3898 -1.7969
17439TIP3    H273733   4.241   2.647  11.869 -0.5973 -2.2195 -1.9030
17440TIP3   OH273734   4.019   1.299   0.825 -0.3700  0.1091 -0.3123
17440TIP3    H173735   4.100   1.294   0.876 -1.0999 -0.1331  0.8280
17440TIP3    H273736   3.980   1.212   0.832 -0.5157  0.0914 -1.2387
17441TIP3   OH273737   3.681   0.439   3.313  0.1742 -0.4394 -0.1583
17441TIP3    H173738   3.629   0.381   3.258 -0.6342 -0.2566  0.4144
17441TIP3    H273739   3.765   0.393   3.323 -0.0728 -0.9929 -0.6079
17442TIP3   OH273740   6.311   4.433   1.623 -0.2150 -0.1250 -0.1490
17442TIP3    H173741   6.228   4.387   1.610 -0.8555  0.9869 -0.0634
17442TIP3    H273742   6.301   4.479   1.707  1.0140 -1.0958  0.5521
17443TIP3   OH273743   0.823   5.177  12.125  0.2788 -0.4660  0.3788
17443TIP3    H173744   0.817   5.139  12.213 -0.5782  1.0842  1.0123
17443TIP3    H273745   0.905   5.227  12.126 -0.9241  1.5309  1.1161
17444TIP3   OH273746   6.500   6.449  11.444  0.0174  0.6423  0.1181
17444TIP3    H173747   6.420   6.457  11.494  0.3706 -2.3903  1.2708
17444TIP3    H273748   6.570   6.458  11.508  0.5170 -0.6956 -0.2184
17445TIP3   OH273749   5.378   3.797   5.469 -0.0014  0.0240 -0.3423
17445TIP3    H173750   5.460   3.781   5.423  0.5485  2.5875 -0.3177
17445TIP3    H273751   5.314   3.812   5.399 -0.5935 -2.4203 -0.3740
17446TIP3   OH273752   5.582   0.309   0.779  0.0360 -0.0391 -0.1182
17446TIP3    H173753   5.646   0.303   0.708  0.2594 -3.0933  0.2990
17446TIP3    H273754   5.601   0.393   0.820  2.1783  0.2076 -1.5197
17447TIP3   OH273755   0.944   2.159  15.522 -0.2149  0.4402  0.4707
17447TIP3    H173756   0.939   2.064  15.535 -0.3435  0.6126  1.7098
17447TIP3    H273757   0.856   2.190  15.542 -0.2890  0.7791 -0.3617
17448TIP3   OH273758   0.375   4.255  13.358  0.0153  0.0814 -0.3986
17448TIP3    H173759   0.319   4.275  13.283 -1.2577  0.0217  0.5115
17448TIP3    H273760   0.347   4.169  13.387  2.1218 -0.9359 -1.2853
17449TIP3   OH273761   0.856   3.494   0.672 -0.0746 -0.8869  0.0794
17449TIP3    H173762   0.824   3.555   0.605 -1.0668 -1.2869  0.1806
17449TIP3    H273763   0.779   3.475   0.725  0.6309 -0.8559  1.1219
17450TIP3   OH273764   2.066   4.543  16.895 -0.6526 -0.5421  0.3740
17450TIP3    H173765   2.078   4.638  16.905 -1.0417 -0.3193 -1.1017
17450TIP3    H273766   2.152   4.510  16.871 -0.7967 -0.3631 -0.4112
17451TIP3   OH273767   0.667   3.691   5.036 -0.0624 -0.2876 -0.5254
17451TIP3    H173768   0.725   3.690   4.960 -0.7172 -0.5919 -1.0189
17451TIP3    H273769   0.666   3.600   5.067 -0.5646 -0.3490 -0.7305
17452TIP3   OH273770   0.140   3.715  16.345 -0.2176  0.0918 -0.6177
17452TIP3    H173771   0.202   3.716  16.273  2.2197 -2.3473  1.3193
17452TIP3    H273772   0.161   3.793  16.396 -1.7558  1.6629 -2.3040
17453TIP3   OH273773   6.234   0.607   4.257 -0.0292 -0.5056 -0.3207
17453TIP3    H173774   6.185   0.677   4.216  0.4233 -0.2745 -0.4666
17453TIP3    H273775   6.192   0.527   4.225 -0.0508 -0.3179 -0.7673
17454TIP3   OH273776   3.307   1.210  15.673 -0.1783 -0.4032  0.5638
17454TIP3    H173777   3.395   1.245  15.658 -1.0776  1.6156 -0.1102
17454TIP3    H273778   3.292   1.223  15.767 -0.1922  0.3097  0.4664
17455TIP3   OH273779   0.183   2.018  13.794  0.0719  0.5714  0.2969
17455TIP3    H173780   0.225   1.968  13.723  0.7039  3.5166 -1.4628
17455TIP3    H273781   0.250   2.081  13.822 -1.6669  2.3683  0.4803
17456TIP3   OH273782   3.658   1.794  12.946  0.2054 -0.2309  0.4116
17456TIP3    H173783   3.679   1.704  12.973 -1.7183  0.0446  3.1012
17456TIP3    H273784   3.661   1.844  13.027 -2.4723  1.3625 -0.3893
17457TIP3   OH273785   1.457   4.879  15.593 -0.1111 -0.6017 -0.0600
17457TIP3    H173786   1.448   4.895  15.687  0.8243 -0.2707 -0.0147
17457TIP3    H273787   1.535   4.930  15.568  0.1661 -1.3970 -0.8328
17458TIP3   OH273788   1.880   1.800   2.869  0.4219  1.1093 -0.0644
17458TIP3    H173789   1.932   1.791   2.949  0.9561  0.2673 -0.5014
17458TIP3    H273790   1.817   1.727   2.874 -1.6346  2.9063  1.1318
17459TIP3   OH273791   3.237   3.177  14.818 -0.6444  0.4997 -0.3326
17459TIP3    H173792   3.273   3.168  14.730 -1.1098 -0.2963 -0.4414
17459TIP3    H273793   3.313   3.170  14.876 -0.3812  0.6918 -0.6520
17460TIP3   OH273794   2.361   6.103   4.774 -0.0884  0.1191  0.2534
17460TIP3    H173795   2.375   6.087   4.681  1.0840 -2.2761  0.7755
17460TIP3    H273796   2.387   6.021   4.816 -0.8514  1.0612  2.6726
17461TIP3   OH273797   4.264   0.590  11.154  0.0852  0.0287  0.0263
17461TIP3    H173798   4.236   0.675  11.121 -0.0635 -0.4741 -1.1533
17461TIP3    H273799   4.239   0.527  11.086  3.6712 -0.5010 -0.9233
17462TIP3   OH273800   4.488   6.077  11.890 -0.5185 -0.3005  0.1521
17462TIP3    H173801   4.452   6.026  11.963  2.4160 -1.5896  0.7627
17462TIP3    H273802   4.536   6.012  11.838  1.4770  1.4803 -0.2502
17463TIP3   OH273803   2.912   5.742  14.833  0.3177  0.1546 -0.2348
17463TIP3    H173804   2.889   5.822  14.785 -1.1603 -0.0020  0.1869
17463TIP3    H273805   2.881   5.758  14.922 -1.0519 -1.3401 -0.4198
17464TIP3   OH273806   6.125   2.701   2.949  0.1339  0.0401 -0.1687
17464TIP3    H173807   6.183   2.626   2.933  0.2179  0.2216 -0.7069
17464TIP3    H273808   6.176   2.758   3.007 -0.1667 -0.6064  0.7444
17465TIP3   OH273809   5.307   5.395   4.356  0.1100 -0.3987  0.3562
17465TIP3    H173810   5.393   5.386   4.398  0.2269 -0.9411  0.0055
17465TIP3    H273811   5.244   5.391   4.428  0.3456 -0.7070  0.5447
17466TIP3   OH273812   5.751   2.347   3.783  0.0295  0.4092 -0.0562
17466TIP3    H173813   5.690   2.342   3.709  0.8049 -1.0063 -0.6192
17466TIP3    H273814   5.751   2.259   3.820  1.2157  0.5808  0.3712
17467TIP3   OH273815   0.774   0.362  15.844 -0.4488  0.1413 -0.4361
17467TIP3    H173816   0.762   0.396  15.933 -1.4536 -0.1064 -0.4671
17467TIP3    H273817   0.690   0.380  15.801 -0.3984 -0.8708 -0.9527
17468TIP3   OH273818   5.192   4.611   1.354  0.2326 -0.4391  0.1413
17468TIP3    H173819   5.193   4.558   1.275 -1.5780 -0.9675  0.4419
17468TIP3    H273820   5.185   4.701   1.323 -1.9954 -0.7384 -0.2944
17469TIP3   OH273821   3.417   6.340   6.816  0.6713  0.1981  0.5851
17469TIP3    H173822   3.378   6.293   6.742  2.2234  0.1232 -0.2084
17469TIP3    H273823   3.342   6.374   6.866 -0.3801  0.4601 -1.1508
17470TIP3   OH273824   1.178   4.702   3.700 -0.1598 -0.3088  0.3050
17470TIP3    H173825   1.273   4.690   3.690 -0.2104 -0.0491 -0.4782
17470TIP3    H273826   1.141   4.618   3.671  0.0830 -2.4327  5.6029
17471TIP3   OH273827   1.424   3.380   0.235  0.2353  0.5694  0.9010
17471TIP3    H173828   1.500   3.393   0.178 -1.3361  0.9512 -1.1705
17471TIP3    H273829   1.427   3.454   0.295  1.6372  0.4440  1.0134
17472TIP3   OH273830   1.388   2.948  11.264  0.4078 -0.1159  0.2019
17472TIP3    H173831   1.459   2.994  11.220 -0.4758 -0.1779 -1.3199
17472TIP3    H273832   1.312   2.961  11.207 -1.0420  0.7591  2.2812
17473TIP3   OH273833   3.779   0.341   5.040 -0.8287  0.2713  0.2689
17473TIP3    H173834   3.737   0.256   5.050 -1.4546  0.6800  1.1910
17473TIP3    H273835   3.773   0.381   5.127 -2.7293  2.2577 -0.7274
17474TIP3   OH273836   4.672   0.192   5.484  0.1914 -0.4186 -0.1359
17474TIP3    H173837   4.704   0.186   5.394  0.7207 -0.3912  0.0480
17474TIP3    H273838   4.696   0.108   5.523  1.3806  0.1711  0.4319
17475TIP3   OH273839   1.105   1.142   4.992  0.5355  0.6525  0.1043
17475TIP3    H173840   1.076   1.141   4.901  0.1155  0.8214  0.2351
17475TIP3    H273841   1.159   1.064   5.001 -0.9775 -0.3987  0.2129
17476TIP3   OH273842   3.739   1.356  14.613 -0.3994  0.0117 -0.0280
17476TIP3    H173843   3.712   1.406  14.536  2.7848 -1.2867 -2.1052
17476TIP3    H273844   3.831   1.379  14.625 -0.2693 -1.5040  2.0614
17477TIP3   OH273845   4.547   5.205  11.017  0.2367 -0.5088  0.4959
17477TIP3    H173846   4.467   5.188  10.966  0.9318 -1.7325 -0.1829
17477TIP3    H273847   4.576   5.119  11.047  0.5441  0.0782  1.9029
17478TIP3   OH273848   3.257   5.414   3.380 -0.0385 -0.4393 -0.0554
17478TIP3    H173849   3.255   5.333   3.330  2.1837 -0.9281  0.5743
17478TIP3    H273850   3.335   5.460   3.347  0.7962 -0.2397  2.0965
17479TIP3   OH273851   2.765   5.160  17.182  0.2688  0.0990  0.0577
17479TIP3    H173852   2.787   5.071  17.152 -1.1960 -0.4015  0.4211
17479TIP3    H273853   2.760   5.211  17.101 -0.1140 -0.4378 -0.2688
17480TIP3   OH273854   3.395   3.652  13.659 -0.7866  0.0273 -0.2128
17480TIP3    H173855   3.402   3.743  13.688  2.1382 -0.5124  0.9371
17480TIP3    H273856   3.437   3.650  13.573 -0.3040 -0.3447  0.0283
17481TIP3   OH273857   3.871   4.776   6.271 -0.1622  0.1560  0.4419
17481TIP3    H173858   3.840   4.811   6.354 -0.8143  1.2932 -0.2631
17481TIP3    H273859   3.832   4.688   6.266 -0.5668  0.2973  1.0948
17482TIP3   OH273860   3.843   6.098  15.856  0.8198 -0.5284  0.3356
17482TIP3    H173861   3.811   6.169  15.800  0.9753 -0.7259 -0.0080
17482TIP3    H273862   3.928   6.128  15.887  0.4412 -0.1366  0.9962
17483TIP3   OH273863   0.369   6.750   5.667 -0.3643 -0.0173  0.7260
17483TIP3    H173864   0.441   6.799   5.706  0.8649 -0.9655 -0.2880
17483TIP3    H273865   0.412   6.681   5.616 -1.8940  0.9850 -2.0462
17484TIP3   OH273866   4.684   2.457  14.393 -0.5775  0.3026 -0.4713
17484TIP3    H173867   4.700   2.426  14.482 -2.0437  0.9766  0.0602
17484TIP3    H273868   4.609   2.517  14.402  0.4225  1.8200 -1.8651
17485TIP3   OH273869   6.608   6.106   1.416  0.0863 -0.0637  0.7638
17485TIP3    H173870   6.684   6.059   1.451 -0.0988 -0.1190  1.0914
17485TIP3    H273871   6.546   6.037   1.392 -1.0788  0.0539  3.2559
17486TIP3   OH273872   1.776   5.510  16.927 -0.2813 -0.4636 -0.3417
17486TIP3    H173873   1.788   5.463  16.844 -1.2946  0.4092 -0.9858
17486TIP3    H273874   1.696   5.559  16.916 -2.6251 -3.3730  2.5705
17487TIP3   OH273875   1.235   2.329  12.631  0.0721 -0.4585 -0.7671
17487TIP3    H173876   1.302   2.390  12.600  1.6900 -2.9188 -2.2492
17487TIP3    H273877   1.282   2.270  12.689 -1.4939 -0.3355  0.6789
17488TIP3   OH273878   2.787   1.538   3.689  0.2135 -0.2233 -0.2850
17488TIP3    H173879   2.731   1.465   3.715  0.3053 -0.1064  0.2309
17488TIP3    H273880   2.812   1.517   3.598  0.9572 -1.2849  0.1510
17489TIP3   OH273881   3.770   2.128   1.568  0.0847  0.4387  0.3016
17489TIP3    H173882   3.705   2.063   1.541  2.2401 -2.8578  2.6497
17489TIP3    H273883   3.781   2.185   1.492 -2.3530 -1.5643 -1.6196
17490TIP3   OH273884   4.174   0.335   1.356  0.2281  0.0356 -0.5211
17490TIP3    H173885   4.099   0.396   1.356  0.2351  0.0496  0.7230
17490TIP3    H273886   4.212   0.344   1.268 -2.0683 -1.0081 -1.6738
17491TIP3   OH273887   3.955   5.790  15.780  0.1191  0.2522  0.1505
17491TIP3    H173888   3.925   5.702  15.756  1.6030  0.1616 -1.5497
17491TIP3    H273889   3.892   5.821  15.844 -1.8494 -1.0868 -1.0790
17492TIP3   OH273890   3.896   2.487   0.141 -0.1998 -0.1892 -0.2793
17492TIP3    H173891   3.922   2.556   0.201 -2.5873 -0.4987  1.1559
17492TIP3    H273892   3.876   2.533   0.059 -1.1284  0.7602  0.4646
17493TIP3   OH273893   1.778   1.918  14.882  0.4480  0.6982  0.5669
17493TIP3    H173894   1.708   1.853  14.883 -1.5245  2.7908  2.4562
17493TIP3    H273895   1.854   1.871  14.847 -1.2175 -2.2938  0.8579
17494TIP3   OH273896   3.393   4.293  14.712 -0.3354 -0.2420  0.8919
17494TIP3    H173897   3.335   4.218  14.726 -0.4648 -0.5914 -1.4543
17494TIP3    H273898   3.334   4.365  14.690  0.0673 -0.4386 -0.8545
17495TIP3   OH273899   6.381   2.323   4.769 -0.4706  0.7438 -0.2144
17495TIP3    H173900   6.298   2.278   4.759 -1.4051  1.9394  1.7865
17495TIP3    H273901   6.377   2.396   4.706 -0.5426  0.2697 -0.7589
17496TIP3   OH273902   2.002   5.953   3.154 -0.1235 -1.0807  0.4486
17496TIP3    H173903   1.909   5.960   3.130  0.3203  0.9664 -0.8093
17496TIP3    H273904   2.017   5.859   3.164 -2.2739 -1.4609  0.4461
17497TIP3   OH273905   0.647   1.867  15.116 -0.3637  0.3408  0.3728
17497TIP3    H173906   0.631   1.883  15.022 -1.8290  1.4726  0.7937
17497TIP3    H273907   0.588   1.928  15.161 -0.6920 -1.1686  2.0444
17498TIP3   OH273908   1.526   1.000  12.296 -0.7458  0.1734  0.1784
17498TIP3    H173909   1.544   0.970  12.207  1.4117  0.5876  0.4412
17498TIP3    H273910   1.441   0.962  12.318 -0.2621 -1.7922 -1.2252
17499TIP3   OH273911   6.517   6.090   3.057 -0.5406 -0.3960  0.2654
17499TIP3    H173912   6.453   6.026   3.026 -2.0217 -0.0097  2.4290
17499TIP3    H273913   6.528   6.071   3.150 -0.2871  1.8735  0.7408
17500TIP3   OH273914   5.357   5.998  12.889 -0.2950 -0.6748  0.8123
17500TIP3    H173915   5.269   5.983  12.922  1.0369 -2.7275  3.7018
17500TIP3    H273916   5.391   6.069  12.943 -0.2466  0.2567 -0.4349
17501TIP3   OH273917   1.590   4.095   1.799  0.1508  0.7434  0.2105
17501TIP3    H173918   1.655   4.052   1.744 -1.2116  0.2510 -1.0349
17501TIP3    H273919   1.544   4.155   1.741 -1.0975  0.4461  0.8563
17502TIP3   OH273920   5.595   6.003  16.499 -0.7361  0.4088  0.5188
17502TIP3    H173921   5.589   5.955  16.582  0.2615 -0.6472 -0.0074
17502TIP3    H273922   5.689   6.015  16.485 -0.9320  1.3289 -0.0435
17503TIP3   OH273923   1.665   5.582  16.512 -0.1055 -0.3565  0.2585
17503TIP3    H173924   1.580   5.610  16.478  0.3503  0.4061 -0.2678
17503TIP3    H273925   1.718   5.662  16.513  0.7589 -0.9216  0.1210
17504TIP3   OH273926   1.722   5.840   1.183 -0.0064 -0.2122  0.4591
17504TIP3    H173927   1.743   5.748   1.197  0.2609 -0.5576 -1.9458
17504TIP3    H273928   1.626   5.842   1.174  0.2376 -0.9064 -3.3065
17505TIP3   OH273929   0.563   1.898   3.924  0.8114  0.2474  0.4572
17505TIP3    H173930   0.504   1.866   3.856  0.3689 -0.6090  1.2316
17505TIP3    H273931   0.646   1.854   3.906  0.6107 -0.2109  0.6553
17506TIP3   OH273932   3.900   5.202   3.593  0.1121  0.4442 -0.2030
17506TIP3    H173933   3.820   5.238   3.631 -0.5614 -0.6913 -0.5113
17506TIP3    H273934   3.920   5.260   3.520 -0.8570  0.3078 -0.5875
17507TIP3   OH273935   4.801   0.208  16.298  0.4142  0.1498 -0.2259
17507TIP3    H173936   4.823   0.219  16.206  1.4250 -0.7758 -0.1003
17507TIP3    H273937   4.756   0.124  16.303  0.7291 -0.0015  0.1799
17508TIP3   OH273938   4.632   4.847   3.420 -0.0620  0.0630  0.1267
17508TIP3    H173939   4.587   4.842   3.505 -0.8585  0.2247 -0.2823
17508TIP3    H273940   4.725   4.845   3.442 -0.2528  1.0063  1.0755
17509TIP3   OH273941   2.501   6.734  15.656  0.0419 -0.0427  0.0553
17509TIP3    H173942   2.466   6.802  15.599 -0.6408  0.7586  1.4065
17509TIP3    H273943   2.458   6.654  15.628 -0.2316  0.3306 -0.6003
17510TIP3   OH273944   6.102   2.544  13.295  0.2049 -0.4669 -0.6638
17510TIP3    H173945   6.135   2.552  13.384  2.5372  0.9810 -1.6198
17510TIP3    H273946   6.127   2.456  13.268  1.0581 -0.2852 -0.4804
17511TIP3   OH273947   3.337   3.046   1.060 -0.0477  0.2894 -0.3958
17511TIP3    H173948   3.431   3.062   1.061 -0.1595  1.0827 -1.9479
17511TIP3    H273949   3.298   3.129   1.033 -1.2672  0.2275  1.0947
17512TIP3   OH273950   2.778   3.439  11.365 -0.0473 -1.0313 -0.4721
17512TIP3    H173951   2.747   3.350  11.381 -0.5086 -0.4912  1.7575
17512TIP3    H273952   2.716   3.495  11.412  1.5989  0.3298  0.1175
17513TIP3   OH273953   5.668   2.291  13.161  0.2273  0.1896  0.1378
17513TIP3    H173954   5.629   2.265  13.078  1.3992  0.3929 -0.4899
17513TIP3    H273955   5.598   2.335  13.208 -1.5223 -3.1418  0.7920
17514TIP3   OH273956   2.682   0.920   5.335  0.0135 -0.4753 -0.5493
17514TIP3    H173957   2.711   0.889   5.249  0.6032 -1.3841 -0.0257
17514TIP3    H273958   2.666   1.014   5.322 -0.6669 -0.7549 -1.8425
17515TIP3   OH273959   4.675   6.126   1.803 -0.3310 -0.0422 -0.5485
17515TIP3    H173960   4.662   6.092   1.715 -1.0745  0.0735 -0.4838
17515TIP3    H273961   4.700   6.049   1.855  0.0112 -0.1248 -0.8312
17516TIP3   OH273962   6.520   3.455   2.415 -0.1541 -0.3748  0.1273
17516TIP3    H173963   6.568   3.381   2.377 -0.5950 -0.0504 -1.0727
17516TIP3    H273964   6.488   3.422   2.499 -0.5043 -1.6129 -0.4744
17517TIP3   OH273965   3.144   0.653  16.981 -0.0996  0.1745 -0.6748
17517TIP3    H173966   3.172   0.566  17.011 -1.0299  0.4270  0.9862
17517TIP3    H273967   3.179   0.660  16.892 -1.6524 -2.7227 -1.6158
17518TIP3   OH273968   0.996   5.366  14.938 -0.9848  0.5337 -0.2653
17518TIP3    H173969   1.053   5.442  14.951 -1.5618  0.7665  1.0057
17518TIP3    H273970   0.915   5.403  14.902 -1.3088  0.5465  0.4657
17519TIP3   OH273971   0.938   6.678   1.508 -0.2186 -0.3180 -0.4792
17519TIP3    H173972   0.848   6.645   1.513  1.0626 -4.0821 -1.2124
17519TIP3    H273973   0.965   6.689   1.599 -1.5773  1.4821 -0.2492
17520TIP3   OH273974   3.536   0.030   5.766 -0.2852 -0.0023 -0.7529
17520TIP3    H173975   3.479   0.093   5.811 -1.6097 -0.1375 -2.1974
17520TIP3    H273976   3.623   0.069   5.771 -0.7798  1.0500 -0.0157
17521TIP3   OH273977   5.768   2.704  16.424 -0.1631  0.6023 -0.4173
17521TIP3    H173978   5.692   2.708  16.367 -1.3466 -2.2409  0.8503
17521TIP3    H273979   5.837   2.666  16.369 -0.2761  1.1831 -0.9584
17522TIP3   OH273980   1.865   5.606   4.276 -0.2217  0.2863 -0.6088
17522TIP3    H173981   1.877   5.527   4.329  1.3424  0.2991 -0.9068
17522TIP3    H273982   1.870   5.575   4.186  2.9586  1.0174 -0.7583
17523TIP3   OH273983   4.088   6.581  12.066 -0.3315  0.3987  0.1506
17523TIP3    H173984   4.057   6.498  12.103  1.7456 -0.6011 -0.2037
17523TIP3    H273985   4.094   6.640  12.140 -1.4112  0.0967  0.4874
17524TIP3   OH273986   2.391   6.534  15.912 -0.2333 -0.0018  0.0868
17524TIP3    H173987   2.323   6.587  15.955  0.4712 -0.3151  1.6086
17524TIP3    H273988   2.356   6.518  15.824 -1.3338  1.3396  0.2587
17525TIP3   OH273989   6.765   0.706   2.868  0.3412 -0.4102  0.4525
17525TIP3    H173990   6.735   0.652   2.795  1.0899 -0.2470  0.0237
17525TIP3    H273991   6.859   0.718   2.853  0.5072 -0.3912  1.4501
17526TIP3   OH273992   0.596   3.256  13.110 -0.5843  0.6986 -0.2619
17526TIP3    H173993   0.558   3.344  13.119  1.0114  1.5546 -1.5934
17526TIP3    H273994   0.524   3.203  13.076 -1.3418  1.6884 -0.2290
17527TIP3   OH273995   3.388   0.706   4.330  0.1258  0.2351  0.3954
17527TIP3    H173996   3.345   0.647   4.392 -1.0183 -0.1857 -0.7866
17527TIP3    H273997   3.327   0.779   4.319  0.1949  0.1717 -0.4472
17528TIP3   OH273998   4.187   0.978   2.241  0.2411 -0.7088 -0.4988
17528TIP3    H173999   4.226   1.059   2.275 -0.0033 -1.8469  2.6374
17528TIP3    H274000   4.102   1.005   2.207  0.9505  0.6601 -1.2448
17529TIP3   OH274001   0.148   3.646  14.730 -0.6958 -0.1184  0.3966
17529TIP3    H174002   0.069   3.701  14.729 -0.5780  0.0753  1.0804
17529TIP3    H274003   0.205   3.689  14.793 -0.4752 -0.8601  0.7049
17530TIP3   OH274004   6.276   6.405   2.958  0.0420  0.0481 -0.1755
17530TIP3    H174005   6.275   6.475   3.022 -0.5948 -0.3629  0.2694
17530TIP3    H274006   6.366   6.371   2.960  0.3115  0.7355 -0.2845
17531TIP3   OH274007   6.625   3.180   1.065 -0.3280  0.6333  0.6907
17531TIP3    H174008   6.650   3.244   0.999 -1.5268 -0.1620 -0.5681
17531TIP3    H274009   6.576   3.230   1.130  0.5184  1.3480  0.7952
17532TIP3   OH274010   5.727   6.308   0.292 -0.0757 -0.4582  0.6401
17532TIP3    H174011   5.790   6.243   0.261 -0.5980 -0.6925  0.0332
17532TIP3    H274012   5.771   6.392   0.282  0.2738 -0.6481  0.5731
17533TIP3   OH274013   3.522   6.011   3.647  0.0727  0.2264  0.0111
17533TIP3    H174014   3.555   6.088   3.602 -0.5245 -0.1189 -1.0443
17533TIP3    H274015   3.473   6.045   3.722  0.2403  0.8359 -0.1558
17534TIP3   OH274016   0.543   1.846  17.067 -0.0347 -0.0221  0.6597
17534TIP3    H174017   0.613   1.880  17.012 -1.5038  1.3262 -0.4268
17534TIP3    H274018   0.462   1.870  17.021 -1.2120 -2.0836  1.5513
17535TIP3   OH274019   0.568   0.116  15.309 -0.7118 -0.3682  0.0306
17535TIP3    H174020   0.576   0.068  15.227  1.4456 -0.2163  0.1454
17535TIP3    H274021   0.573   0.049  15.377 -0.8050 -0.3055  0.1003
17536TIP3   OH274022   6.688   2.023  10.839  0.1944  0.2863 -0.5344
17536TIP3    H174023   6.651   2.077  10.769  0.1282  1.3579  0.3173
17536TIP3    H274024   6.773   2.064  10.859  0.4362 -0.3092 -0.3329
17537TIP3   OH274025   4.522   2.186   2.876 -0.2793  0.0284 -0.2044
17537TIP3    H174026   4.574   2.154   2.802  0.2154  0.6858 -0.1568
17537TIP3    H274027   4.445   2.130   2.878 -0.2575 -0.0470 -1.1738
17538TIP3   OH274028   5.510   6.269   1.960 -0.0964  0.2182 -0.3721
17538TIP3    H174029   5.457   6.280   1.881  0.6163 -0.1778 -0.9129
17538TIP3    H274030   5.532   6.359   1.986  0.8230  0.3199 -1.4310
17539TIP3   OH274031   2.135   2.056   6.372 -0.5461  0.0945  0.1551
17539TIP3    H174032   2.043   2.068   6.347 -0.5228  2.7654  1.1737
17539TIP3    H274033   2.170   2.145   6.377  1.8065 -0.8447  0.8728
17540TIP3   OH274034   5.042   1.180  15.356  0.3126 -0.4971 -0.4415
17540TIP3    H174035   4.967   1.139  15.312 -0.0124 -1.0925  0.6440
17540TIP3    H274036   5.004   1.225  15.431  0.8861  0.3577 -0.6622
17541TIP3   OH274037   2.558   3.835   0.597 -0.2812 -0.5101  0.4071
17541TIP3    H174038   2.604   3.898   0.653  0.9642 -0.1951 -0.9283
17541TIP3    H274039   2.628   3.781   0.560 -1.2004 -1.5418  0.1477
17542TIP3   OH274040   3.063   2.223  11.984 -0.3094 -0.4979 -0.4476
17542TIP3    H174041   3.057   2.140  11.937 -0.0052 -0.5444 -0.4073
17542TIP3    H274042   2.985   2.226  12.039 -0.1219 -0.9437 -0.1524
17543TIP3   OH274043   2.401   5.345   5.524 -0.0617  0.1282  0.0414
17543TIP3    H174044   2.435   5.274   5.579 -1.8794  0.7270  2.0153
17543TIP3    H274045   2.305   5.335   5.528 -0.3784  2.9222  0.7361
17544TIP3   OH274046   6.561   0.851   5.304 -0.6067 -0.0636 -0.2529
17544TIP3    H174047   6.532   0.943   5.308 -0.9107 -0.1571 -0.2956
17544TIP3    H274048   6.506   0.806   5.369  0.5097  0.0453  0.7860
17545TIP3   OH274049   4.555   5.278   5.571  0.3547  0.3288  0.4830
17545TIP3    H174050   4.547   5.284   5.666 -1.0738  1.8265  0.2767
17545TIP3    H274051   4.490   5.213   5.545 -0.2776  0.9847  0.3987
17546TIP3   OH274052   6.128   2.853   6.458  0.0770 -0.1926  0.5508
17546TIP3    H174053   6.086   2.932   6.423 -0.2700 -1.3776 -1.8205
17546TIP3    H274054   6.073   2.828   6.532 -0.7417  0.9013  0.3284
17547TIP3   OH274055   5.477   5.238  14.723 -0.2852 -0.5606  0.7169
17547TIP3    H174056   5.404   5.225  14.662 -0.4956 -0.3529  0.9265
17547TIP3    H274057   5.483   5.333  14.733  1.8039 -0.3954 -1.4743
17548TIP3   OH274058   5.333   0.381   4.681 -0.4667 -0.4004 -0.3479
17548TIP3    H174059   5.351   0.292   4.650  1.0734  0.0197 -0.6840
17548TIP3    H274060   5.328   0.372   4.776 -1.1326 -0.9847 -0.4348
17549TIP3   OH274061   2.068   6.593  15.558 -0.2780  0.3274  0.1387
17549TIP3    H174062   2.100   6.605  15.647 -0.6429 -2.5409  0.7165
17549TIP3    H274063   1.973   6.595  15.566 -0.3199 -0.4279 -0.0944
17550TIP3   OH274064   4.353   1.852  12.099 -0.9754 -0.7419 -0.4685
17550TIP3    H174065   4.427   1.909  12.119 -1.1104  0.0604 -2.1391
17550TIP3    H274066   4.361   1.779  12.160  0.5320 -0.0876  0.1382
17551TIP3   OH274067   3.922   5.513   1.759  0.5175  0.5386  0.2726
17551TIP3    H174068   3.899   5.585   1.817  1.4467  0.0016  1.3130
17551TIP3    H274069   3.985   5.551   1.697  0.4573  0.7968  0.3694
17552TIP3   OH274070   2.459   3.900   4.197 -0.8251 -0.2208  0.1986
17552TIP3    H174071   2.519   3.845   4.146 -0.7164  0.1221 -0.0411
17552TIP3    H274072   2.384   3.914   4.139 -0.9534 -0.3022  0.3449
17553TIP3   OH274073   6.762   5.563  12.132 -0.0174  0.1405 -0.2961
17553TIP3    H174074   6.846   5.598  12.162  0.9770 -0.9807 -1.6935
17553TIP3    H274075   6.765   5.470  12.154 -0.6132 -0.0361 -0.9366
17554TIP3   OH274076   4.900   2.522   5.928 -0.7492 -0.3033  0.2339
17554TIP3    H174077   4.814   2.528   5.887 -1.8609 -1.1710  2.3772
17554TIP3    H274078   4.906   2.600   5.983 -1.3287 -1.6308  2.2125
17555TIP3   OH274079   0.885   2.141   0.051  0.6179 -1.0913 -0.0809
17555TIP3    H174080   0.848   2.052   0.054 -2.2591 -0.0123 -1.5970
17555TIP3    H274081   0.847   2.180  -0.028  0.2391  2.1671  1.6346
17556TIP3   OH274082   5.360   3.336  16.176  0.2965  0.1723  0.0874
17556TIP3    H174083   5.294   3.283  16.131  1.5016 -0.3418 -1.0806
17556TIP3    H274084   5.409   3.273  16.229 -0.9393  0.7323  1.9648
17557TIP3   OH274085   5.886   0.526  15.226  0.2152  0.3644  0.5697
17557TIP3    H174086   5.827   0.450  15.230  0.0105  0.4893  0.0067
17557TIP3    H274087   5.955   0.506  15.288  1.9892 -1.8233 -2.0055
17558TIP3   OH274088   0.277   0.989   0.619 -0.2362 -0.0730 -0.2325
17558TIP3    H174089   0.212   1.039   0.670  0.0805  0.1946 -0.0872
17558TIP3    H274090   0.344   1.054   0.596 -1.6062  0.3648 -3.1180
17559TIP3   OH274091   0.607   5.310  12.050  0.3203  0.6386 -0.0245
17559TIP3    H174092   0.551   5.306  12.128 -0.3254 -1.5261 -0.5711
17559TIP3    H274093   0.690   5.272  12.078  0.4458  0.8751 -0.0803
17560TIP3   OH274094   4.586   3.599  17.044  0.0259  0.6098  0.1212
17560TIP3    H174095   4.558   3.685  17.075  2.5634  1.8495 -0.8790
17560TIP3    H274096   4.644   3.566  17.113 -0.6792 -0.1695  0.3527
17561TIP3   OH274097   3.500   4.574   2.762 -0.3784  0.3132 -0.3993
17561TIP3    H174098   3.492   4.669   2.771 -3.6730  0.2964 -2.2871
17561TIP3    H274099   3.503   4.542   2.853  1.6084  2.2114  0.2635
17562TIP3   OH274100   4.194   3.647  12.626 -0.2744 -0.8116  0.5238
17562TIP3    H174101   4.236   3.687  12.550  0.8020 -0.3963  1.3319
17562TIP3    H274102   4.265   3.631  12.688 -1.1432 -1.1168  1.4664
17563TIP3   OH274103   2.474   6.488   5.145  0.0875 -0.0836  0.3042
17563TIP3    H174104   2.524   6.477   5.226 -1.8136 -1.1031  1.3719
17563TIP3    H274105   2.497   6.411   5.093 -0.2203 -0.4731  0.7327
17564TIP3   OH274106   4.462   3.119   2.527 -0.0796 -0.4231  0.5481
17564TIP3    H174107   4.487   3.063   2.453 -2.1938 -1.3063  0.4807
17564TIP3    H274108   4.394   3.069   2.573 -0.9180  1.4281  1.3461
17565TIP3   OH274109   0.331   4.784  14.830  0.2789 -0.1910 -0.0859
17565TIP3    H174110   0.358   4.759  14.918  0.4426 -1.3717 -0.4579
17565TIP3    H274111   0.305   4.876  14.837 -0.1722 -0.4287  1.2890
17566TIP3   OH274112   4.620   0.273  11.388  0.0231 -0.0559  0.5886
17566TIP3    H174113   4.538   0.312  11.358 -0.5866 -1.2342  0.7258
17566TIP3    H274114   4.662   0.241  11.308  0.1338  0.1121  0.5773
17567TIP3   OH274115   6.541   1.281   2.271  0.0169 -0.4130 -0.2367
17567TIP3    H174116   6.582   1.298   2.356  0.9312  3.7632 -1.4493
17567TIP3    H274117   6.460   1.332   2.274 -0.8097 -1.6486 -1.2416
17568TIP3   OH274118   3.523   5.082  12.364  0.6231 -0.0815  0.4364
17568TIP3    H174119   3.563   5.155  12.317  0.1605 -0.4299 -0.5398
17568TIP3    H274120   3.429   5.090  12.343  0.3316  0.1056  1.8079
17569TIP3   OH274121   4.696   3.274   1.820  0.0609 -0.0426  0.1459
17569TIP3    H174122   4.693   3.364   1.788  0.8500  0.2881  0.9505
17569TIP3    H274123   4.698   3.283   1.916  1.2435 -0.8799  0.2075
17570TIP3   OH274124   6.005   5.418   4.719  0.0981  0.0655 -0.2451
17570TIP3    H174125   5.934   5.354   4.727 -0.4434  0.8035  0.9432
17570TIP3    H274126   6.010   5.436   4.625 -1.0691 -0.2500 -0.3751
17571TIP3   OH274127   2.675   6.289  16.692 -0.0984 -0.0081  0.5789
17571TIP3    H174128   2.600   6.261  16.744 -0.6646 -0.3795 -0.4424
17571TIP3    H274129   2.733   6.213  16.690 -0.4162 -0.2381  0.0470
17572TIP3   OH274130   2.613   3.583   5.516 -0.2847  0.2771  0.8419
17572TIP3    H174131   2.649   3.525   5.448 -0.2172  0.9702  0.2811
17572TIP3    H274132   2.522   3.555   5.524 -0.3769  0.3986  0.2429
17573TIP3   OH274133   4.955   0.533   4.404 -0.3922 -0.4104  0.2083
17573TIP3    H174134   4.899   0.502   4.475 -1.9667 -0.4372 -1.0340
17573TIP3    H274135   4.919   0.619   4.381  1.1769  0.3666  0.5946
17574TIP3   OH274136   0.435   1.779  14.235 -0.6407 -0.1466  0.0994
17574TIP3    H174137   0.356   1.750  14.189 -2.3492  2.0297  1.5640
17574TIP3    H274138   0.473   1.845  14.177 -1.8750  1.3806  0.9972
17575TIP3   OH274139   0.030   4.653  16.526  0.1087 -0.2317  0.5619
17575TIP3    H174140   0.020   4.702  16.444  0.3434  2.0234  1.8591
17575TIP3    H274141  -0.058   4.620  16.545 -0.4512  1.3116  0.6740
17576TIP3   OH274142   0.576   5.670  13.013 -0.2150  0.4103 -0.4057
17576TIP3    H174143   0.657   5.621  13.003 -0.4720 -0.8909  3.0217
17576TIP3    H274144   0.519   5.637  12.944  1.4775 -0.0947 -1.5857
17577TIP3   OH274145   3.125   3.046   5.221 -0.4732 -0.3404  0.1595
17577TIP3    H174146   3.145   3.060   5.129  1.8271 -0.1899  0.6607
17577TIP3    H274147   3.112   2.951   5.229 -4.5829  0.0072 -1.0075
17578TIP3   OH274148   2.986   4.372  16.106  0.2591  0.1263  0.2674
17578TIP3    H174149   3.071   4.405  16.135  0.3728  0.9609 -0.9662
17578TIP3    H274150   2.962   4.429  16.033 -1.1007 -0.4585  0.2519
17579TIP3   OH274151   3.216   4.461  13.031  0.1933  0.4497 -0.1387
17579TIP3    H174152   3.228   4.366  13.043  1.2306  0.5019 -0.7483
17579TIP3    H274153   3.259   4.500  13.106  0.7727  0.4836 -0.4845
17580TIP3   OH274154   6.464   6.134  10.656 -1.0042  0.1024  1.0585
17580TIP3    H174155   6.437   6.043  10.670  0.5452 -0.8532 -1.7274
17580TIP3    H274156   6.554   6.137  10.688 -0.8058  0.4698  0.4584
17581TIP3   OH274157   3.893   5.929  12.307 -0.1554  0.0586  0.3228
17581TIP3    H174158   3.951   5.907  12.234 -0.6803  2.8960 -1.0317
17581TIP3    H274159   3.948   5.920  12.385  0.6453 -2.2045 -0.4855
17582TIP3   OH274160   5.453   1.517  15.276 -0.2653  0.1902  0.6126
17582TIP3    H174161   5.374   1.467  15.293 -0.0623  0.2602  1.7616
17582TIP3    H274162   5.519   1.480  15.334 -0.0675  1.6506  1.3366
17583TIP3   OH274163   5.106   1.565   1.161 -0.0590 -0.3823  0.0269
17583TIP3    H174164   5.163   1.585   1.234  0.5075  0.1507 -0.5572
17583TIP3    H274165   5.075   1.650   1.130 -0.8052 -0.6385  0.0445
17584TIP3   OH274166   1.807   1.392   5.939 -0.4255  0.5972  0.0980
17584TIP3    H174167   1.826   1.303   5.909 -1.3872  1.1101 -2.1670
17584TIP3    H274168   1.893   1.432   5.951  0.0061 -0.3832  0.3346
17585TIP3   OH274169   3.698   3.465   2.622  0.2551 -0.3909  0.1371
17585TIP3    H174170   3.761   3.400   2.652  1.1532  1.0478  1.4611
17585TIP3    H274171   3.613   3.430   2.648  0.6105 -1.6900 -0.4140
17586TIP3   OH274172   2.911   1.868  15.219 -0.3101  0.0694  0.5203
17586TIP3    H174173   2.888   1.908  15.302 -0.5969  1.7072 -0.3308
17586TIP3    H274174   2.835   1.882  15.163  0.9207  1.4424 -0.8743
17587TIP3   OH274175   1.825   0.726   5.021  0.6261 -0.0523 -0.3274
17587TIP3    H174176   1.901   0.758   4.971  1.1136  0.5005  0.7474
17587TIP3    H274177   1.860   0.658   5.078  0.2045 -0.2085 -0.2540
17588TIP3   OH274178   3.671   4.149   5.032  0.4641 -0.5580  0.6652
17588TIP3    H174179   3.739   4.081   5.040  0.0932 -0.7556  2.2740
17588TIP3    H274180   3.716   4.222   4.991  1.7978 -0.5109  2.1680
17589TIP3   OH274181   1.233   5.146  10.357  0.4212 -0.3214  0.3554
17589TIP3    H174182   1.254   5.226  10.309  1.8290  0.0313  1.5230
17589TIP3    H274183   1.186   5.175  10.435  0.8146 -0.6224  0.7143
17590TIP3   OH274184   2.101   4.359   5.843  0.0821  0.6071 -0.1685
17590TIP3    H174185   2.106   4.446   5.803  0.6932  1.0238  0.7827
17590TIP3    H274186   2.092   4.377   5.937 -1.1851 -0.3467 -0.1062
17591TIP3   OH274187   4.561   6.544   2.138  0.3635  0.3544 -0.0455
17591TIP3    H174188   4.589   6.459   2.103 -0.7153  0.1971 -0.5444
17591TIP3    H274189   4.495   6.574   2.076 -0.1171  1.0128  0.7793
17592TIP3   OH274190   2.006   5.961   4.086  0.4053  0.5090 -0.3481
17592TIP3    H174191   1.935   5.978   4.024  0.1800  0.0435 -0.2175
17592TIP3    H274192   1.962   5.937   4.167  0.7091 -1.3965 -0.7225
17593TIP3   OH274193   4.246   5.790  12.063 -0.5913 -0.3233 -0.0377
17593TIP3    H174194   4.218   5.735  11.990 -2.7500  1.2654 -0.4356
17593TIP3    H274195   4.340   5.799  12.051 -0.3774 -2.9164 -0.6448
17594TIP3   OH274196   2.594   5.511  14.961  0.0217 -0.9371 -0.5016
17594TIP3    H174197   2.565   5.503  15.052 -1.1418  1.2943 -0.6360
17594TIP3    H274198   2.666   5.574  14.965  1.2802 -2.3371 -0.8834
17595TIP3   OH274199   1.348   0.810   0.732 -0.0111 -0.1971  0.4910
17595TIP3    H174200   1.316   0.760   0.657 -1.0652  0.0057  0.8049
17595TIP3    H274201   1.362   0.898   0.697  1.5026 -0.5974  0.0277
17596TIP3   OH274202   6.271   5.583  10.681  0.1332  0.7744  0.4771
17596TIP3    H174203   6.314   5.534  10.611 -0.1708  0.2298  0.6677
17596TIP3    H274204   6.273   5.523  10.756  0.7769  1.4884  1.0394
17597TIP3   OH274205   3.581   2.075  13.076  0.0431 -0.2476 -0.2076
17597TIP3    H174206   3.647   2.133  13.112 -0.0448  0.1722 -0.7297
17597TIP3    H274207   3.601   1.989  13.115  0.1569  0.1259  0.5696
17598TIP3   OH274208   1.554   0.487   1.598 -0.0433  0.6519 -0.6194
17598TIP3    H174209   1.539   0.445   1.683  2.7144 -0.7180 -0.7702
17598TIP3    H274210   1.467   0.487   1.556 -1.2638  0.5611  1.8033
17599TIP3   OH274211   2.579   4.457  14.484  0.2755 -0.3287  0.4096
17599TIP3    H174212   2.628   4.452  14.402 -0.2854 -1.5383  0.1349
17599TIP3    H274213   2.491   4.485  14.457  0.0309 -0.9375  0.5634
17600TIP3   OH274214   2.683   6.295   3.562  0.2209 -0.2394 -0.1055
17600TIP3    H174215   2.637   6.225   3.608 -0.5518  0.2099 -0.1870
17600TIP3    H274216   2.633   6.374   3.582  1.1440  0.3042  0.0575
17601TIP3   OH274217   1.560   4.888  16.545 -0.0251  0.0678 -0.5489
17601TIP3    H174218   1.573   4.983  16.554  2.3410 -0.2758  0.0999
17601TIP3    H274219   1.478   4.870  16.591 -1.7047  2.0950 -2.6227
17602TIP3   OH274220   1.423   5.452  16.918 -0.5422 -0.3207 -0.3376
17602TIP3    H174221   1.446   5.429  16.828 -1.0332 -1.3212 -0.2124
17602TIP3    H274222   1.384   5.372  16.955 -0.7712  0.2172  0.6165
17603TIP3   OH274223   4.827   3.963  14.650 -0.1730  0.1303  0.3003
17603TIP3    H174224   4.742   3.997  14.623  0.1278  0.3549 -0.3550
17603TIP3    H274225   4.808   3.877  14.687 -0.9856  1.0904  2.2211
17604TIP3   OH274226   3.120   6.711   3.876  0.5919  0.3254 -0.3691
17604TIP3    H174227   3.064   6.782   3.908  1.3304  1.0090 -0.5896
17604TIP3    H274228   3.138   6.734   3.785  0.1766 -0.5680 -0.6927
17605TIP3   OH274229   4.647   1.329   1.448 -0.2619  0.8148 -0.5957
17605TIP3    H174230   4.629   1.286   1.532  0.1053 -0.1090 -0.9860
17605TIP3    H274231   4.561   1.362   1.421 -0.5819  0.1942 -0.3648
17606TIP3   OH274232   1.512   3.095   4.532  0.3222  0.3102 -0.1949
17606TIP3    H174233   1.596   3.056   4.510  0.9021  0.9781  0.8003
17606TIP3    H274234   1.534   3.170   4.587 -0.9346  0.3517  0.2653
17607TIP3   OH274235   3.218   4.674  12.519 -0.3853  0.2598 -0.5170
17607TIP3    H174236   3.137   4.623  12.525 -0.8514  1.1053  0.6284
17607TIP3    H274237   3.255   4.670  12.608 -0.0695  1.3297 -0.5926
17608TIP3   OH274238   2.278   5.487  15.453  0.5656 -0.1149  0.5667
17608TIP3    H174239   2.349   5.444  15.499  0.1146 -0.5873  0.8250
17608TIP3    H274240   2.199   5.438  15.477  0.3149 -0.3450 -0.6699
17609TIP3   OH274241   5.846   5.069  17.106 -0.0139  0.1358 -0.2856
17609TIP3    H174242   5.840   5.160  17.136 -0.8371 -0.0291  0.0633
17609TIP3    H274243   5.755   5.039  17.104  0.2290 -0.5743 -0.7433
17610TIP3   OH274244   1.450   1.475  14.967  0.0286 -0.4193  0.1542
17610TIP3    H174245   1.386   1.429  15.021 -0.1313 -0.7440 -0.3042
17610TIP3    H274246   1.420   1.566  14.966  0.7217 -0.1699  1.6093
17611TIP3   OH274247   1.328   0.690   1.081  0.8140 -0.2528 -0.0640
17611TIP3    H174248   1.419   0.693   1.051  0.6377  1.1492 -0.5149
17611TIP3    H274249   1.317   0.770   1.133 -0.4624  0.1865 -0.9691
17612TIP3   OH274250   6.245   4.368  13.890  0.2892  0.1008 -0.5558
17612TIP3    H174251   6.195   4.442  13.925  0.6800  0.3162 -0.4508
17612TIP3    H274252   6.335   4.383  13.921  0.3787 -0.3878 -0.5784
17613TIP3   OH274253   2.391   5.454   1.510 -0.4388 -0.3053 -0.2291
17613TIP3    H174254   2.368   5.424   1.598 -0.1218 -1.6413 -0.5868
17613TIP3    H274255   2.315   5.431   1.456 -0.4010 -0.0078 -0.4107
17614TIP3   OH274256   2.891   0.377  15.661  0.2252  0.3225 -0.1177
17614TIP3    H174257   2.964   0.412  15.610  0.1651 -1.1642 -1.2404
17614TIP3    H274258   2.813   0.400  15.610  0.1449 -0.9040 -0.5728
17615TIP3   OH274259   1.201   2.182   5.419  0.4294  0.1767  0.7300
17615TIP3    H174260   1.183   2.134   5.499 -3.2076 -2.1716 -1.3512
17615TIP3    H274261   1.264   2.128   5.372 -0.5957 -0.5793  0.1977
17616TIP3   OH274262   4.096   2.431  16.773  0.5148  0.7651  0.4875
17616TIP3    H174263   4.022   2.431  16.713  1.5048 -1.7690 -0.7868
17616TIP3    H274264   4.156   2.496  16.737  1.6829 -1.6485 -2.0619
17617TIP3   OH274265   1.502   0.264   0.619  0.4011 -0.6177  0.1493
17617TIP3    H174266   1.548   0.348   0.611 -1.9753  0.6869 -0.7588
17617TIP3    H274267   1.500   0.230   0.530  3.1572 -2.7077  0.8345
17618TIP3   OH274268   3.277   5.638  13.671  0.3500 -0.0603  0.3084
17618TIP3    H174269   3.305   5.586  13.747  1.5375 -0.5294 -0.4288
17618TIP3    H274270   3.184   5.619  13.662  0.3629 -0.5818  1.1979
17619TIP3   OH274271   1.009   5.871   4.430  0.0949  0.2648 -0.1326
17619TIP3    H174272   1.010   5.830   4.516 -1.6316  0.9490  0.2327
17619TIP3    H274273   1.062   5.813   4.375 -3.1641 -3.1067  0.0718
17620TIP3   OH274274   1.030   5.898   0.716  0.2460 -0.1106 -0.4972
17620TIP3    H174275   1.119   5.923   0.741  0.8062  0.0487 -2.5816
17620TIP3    H274276   0.982   5.981   0.716  0.4585  0.0139 -0.8246
17621TIP3   OH274277   5.784   3.238   5.379  0.0112  0.0740  0.0237
17621TIP3    H174278   5.724   3.307   5.350 -1.1813 -1.4746 -1.3360
17621TIP3    H274279   5.750   3.210   5.464  0.4527  1.0822  0.5426
17622TIP3   OH274280   1.074   3.683  12.615 -0.0514  0.5137 -0.2026
17622TIP3    H174281   0.986   3.703  12.582 -0.2573  0.9010  0.5564
17622TIP3    H274282   1.059   3.627  12.691  0.3572  0.5256 -0.1096
17623TIP3   OH274283   5.893   2.405  11.997 -0.1420  0.1131  0.1700
17623TIP3    H174284   5.882   2.314  11.967 -0.4389 -0.3131  1.5559
17623TIP3    H274285   5.975   2.405  12.046 -0.0171  0.6560 -0.0356
17624TIP3   OH274286   5.188   0.591   0.152 -0.0411 -0.4258 -0.3727
17624TIP3    H174287   5.259   0.641   0.113  0.5424 -1.6468 -0.9035
17624TIP3    H274288   5.109   0.618   0.104  0.0378  1.0468  0.3275
17625TIP3   OH274289   0.350   3.568   0.920  0.3184 -0.5596 -0.3362
17625TIP3    H174290   0.379   3.525   1.000  1.2049 -0.7618 -0.7644
17625TIP3    H274291   0.427   3.614   0.887 -0.4325  0.8037 -0.2515
17626TIP3   OH274292   2.416   5.015  13.971  0.0860  1.1129  0.0563
17626TIP3    H174293   2.324   4.994  13.957  0.1710  0.8862 -0.1775
17626TIP3    H274294   2.457   4.930  13.989  0.2396  1.2181  0.2004
17627TIP3   OH274295   5.827   1.168  12.333  0.1684 -0.2303 -0.0072
17627TIP3    H174296   5.740   1.134  12.357 -0.8797  2.4427  0.2436
17627TIP3    H274297   5.825   1.174  12.238  0.2020 -0.4482 -0.0234
17628TIP3   OH274298   0.629   0.272   1.977 -0.7080  0.0245  0.3715
17628TIP3    H174299   0.667   0.207   2.036 -0.1657  2.3131  2.6156
17628TIP3    H274300   0.535   0.253   1.977 -0.3983 -1.5737 -0.0549
17629TIP3   OH274301   0.217   1.904  11.550  0.7742  0.7326 -0.0386
17629TIP3    H174302   0.278   1.904  11.476 -1.4049 -2.8467 -1.9877
17629TIP3    H274303   0.273   1.903  11.628  3.2251 -1.2997 -1.7388
17630TIP3   OH274304   4.371   3.425   2.214  0.0238 -0.3414 -0.1631
17630TIP3    H174305   4.361   3.519   2.204  0.0720 -0.2172  0.8457
17630TIP3    H274306   4.329   3.406   2.298  1.7304 -0.9136  0.5828
17631TIP3   OH274307   2.546   5.963  14.201  0.3044  0.3576  0.7615
17631TIP3    H174308   2.556   5.966  14.105 -0.0272  1.6903  0.7671
17631TIP3    H274309   2.578   5.875  14.225  3.6393  1.2230 -0.2046
17632TIP3   OH274310   6.138   4.701   5.787  0.2563 -0.1519  0.3074
17632TIP3    H174311   6.125   4.751   5.867 -2.2312  0.6316 -0.5250
17632TIP3    H274312   6.087   4.749   5.721  1.9741 -0.9600 -1.6649
17633TIP3   OH274313   2.293   0.555   3.465  0.7267 -0.0245  0.0106
17633TIP3    H174314   2.337   0.636   3.441  0.3278  0.0123 -0.6140
17633TIP3    H274315   2.251   0.574   3.549  1.9386 -0.0844  0.6451
17634TIP3   OH274316   3.857   1.464   3.577 -0.0159  0.3402 -1.0344
17634TIP3    H174317   3.769   1.501   3.565 -0.1956  0.4001  0.3524
17634TIP3    H274318   3.913   1.541   3.592 -0.2040  0.1516  0.7727
17635TIP3   OH274319   0.222   4.353  11.659 -0.2539 -0.2088 -0.0225
17635TIP3    H174320   0.211   4.399  11.575  1.0979 -0.7961 -0.5497
17635TIP3    H274321   0.290   4.403  11.704 -0.7956 -0.0489  0.6134
17636TIP3   OH274322   3.231   2.369   0.155 -0.0080 -0.5061 -0.4740
17636TIP3    H174323   3.202   2.428   0.224 -0.2276  0.9539 -1.7879
17636TIP3    H274324   3.232   2.283   0.196 -1.8739  0.0680  0.8444
17637TIP3   OH274325   1.516   1.114  14.204  0.2286 -0.2301 -0.3296
17637TIP3    H174326   1.470   1.060  14.139 -0.2546  0.2848 -0.4153
17637TIP3    H274327   1.447   1.143  14.263  0.3643  0.9480 -0.7332
17638TIP3   OH274328   4.708   5.491   3.136 -0.0238 -0.1924  0.9022
17638TIP3    H174329   4.652   5.463   3.063  1.9147 -0.7584 -0.3871
17638TIP3    H274330   4.670   5.574   3.165 -1.8202 -0.8092  0.3747
17639TIP3   OH274331   5.642   2.008   5.872  0.5849 -0.1863  0.1464
17639TIP3    H174332   5.611   1.919   5.884 -0.0959  0.2494  1.7518
17639TIP3    H274333   5.642   2.046   5.960  1.5311  1.1745 -0.4230
17640TIP3   OH274334   1.616   6.158   1.393  0.0644  0.7988  0.3184
17640TIP3    H174335   1.593   6.201   1.310 -1.0129  1.8722  1.1502
17640TIP3    H274336   1.695   6.205   1.422  0.0321  0.8996  0.2454
17641TIP3   OH274337   0.932   6.364   2.088  0.2151  0.5089 -0.2853
17641TIP3    H174338   0.890   6.416   2.019 -0.0157  1.0953  0.2920
17641TIP3    H274339   0.967   6.287   2.042  1.1241  1.4883 -1.2459
17642TIP3   OH274340   5.611   5.162   3.792  0.1475 -0.2292 -0.2270
17642TIP3    H174341   5.687   5.165   3.851 -1.0906  0.2551  1.3934
17642TIP3    H274342   5.611   5.247   3.749  0.6201 -0.2901 -0.3482
17643TIP3   OH274343   3.962   5.554   0.026 -0.6460 -0.6750 -0.0454
17643TIP3    H174344   3.888   5.575   0.083  0.7289  0.2290  1.4549
17643TIP3    H274345   3.963   5.624  -0.039 -1.3501 -0.9089 -0.3056
17644TIP3   OH274346   3.948   5.767   5.069  0.5727 -0.1453  0.4441
17644TIP3    H174347   3.918   5.676   5.071  0.5805 -0.1598 -0.1186
17644TIP3    H274348   4.029   5.766   5.121  0.2866 -0.3514  0.8950
17645TIP3   OH274349   5.413   2.504  13.963  0.3289 -0.2108 -0.5963
17645TIP3    H174350   5.343   2.475  14.023 -2.1907  1.9315 -2.3518
17645TIP3    H274351   5.473   2.554  14.018 -0.4673 -0.6075  0.6490
17646TIP3   OH274352   3.775   5.031   0.836 -0.3763 -0.1329  0.5067
17646TIP3    H174353   3.724   4.952   0.852 -1.4477  0.6285  0.9637
17646TIP3    H274354   3.712   5.102   0.845  0.4765  0.7531 -0.3338
17647TIP3   OH274355   2.994   2.372  14.399 -0.1648 -0.1458  0.7154
17647TIP3    H174356   2.915   2.404  14.354  0.0720 -0.6607 -0.0898
17647TIP3    H274357   3.057   2.444  14.391  0.7032 -1.1213 -1.9630
17648TIP3   OH274358   4.789   2.027  12.701 -0.0925 -0.0801 -0.0882
17648TIP3    H174359   4.763   2.113  12.667  2.5133  0.1516 -1.5588
17648TIP3    H274360   4.870   2.005  12.655  1.0809 -1.8501  2.6385
17649TIP3   OH274361   3.802   0.960  12.546 -0.1042  0.1165  0.3652
17649TIP3    H174362   3.774   1.044  12.511  1.0503 -0.9965 -3.4451
17649TIP3    H274363   3.898   0.966  12.549 -0.0878 -0.5564  1.3995
17650TIP3   OH274364   3.296   6.694   5.333 -0.0342  0.1639  0.7328
17650TIP3    H174365   3.210   6.660   5.356 -0.5412  0.6812 -0.3351
17650TIP3    H274366   3.355   6.661   5.401 -0.7002 -1.9078  0.3392
17651TIP3   OH274367   2.646   4.699  13.039  0.0469 -0.2502 -0.2198
17651TIP3    H174368   2.590   4.623  13.022 -0.0160 -0.2692  0.0800
17651TIP3    H274369   2.668   4.732  12.951 -1.4905  0.5465 -0.3254
17652TIP3   OH274370   6.652   5.785  15.279  0.1178 -0.1327  0.2581
17652TIP3    H174371   6.656   5.878  15.257 -1.3761 -0.4692 -1.6613
17652TIP3    H274372   6.653   5.741  15.193  2.3462 -1.9702  1.1747
17653TIP3   OH274373   0.512   4.767   3.279 -0.3011  0.1994 -0.0079
17653TIP3    H174374   0.488   4.859   3.267  2.3425  1.0011  0.4199
17653TIP3    H274375   0.472   4.743   3.363 -0.6904  1.0755  0.0653
17654TIP3   OH274376   0.752   3.089  15.770  0.2161 -0.0014 -0.5452
17654TIP3    H174377   0.781   3.005  15.735 -1.8456 -1.4092  0.9619
17654TIP3    H274378   0.692   3.123  15.704  3.1799  1.7076 -2.4807
17655TIP3   OH274379   1.468   1.786  11.739  0.9319 -0.3028 -0.1397
17655TIP3    H174380   1.409   1.846  11.785 -1.4930 -0.4143 -3.0025
17655TIP3    H274381   1.539   1.842  11.707 -0.5877  0.8559 -1.5744
17656TIP3   OH274382   6.164   0.749  12.853  0.6867  0.2807  0.2003
17656TIP3    H174383   6.257   0.736  12.870  0.7527  2.9389  2.2181
17656TIP3    H274384   6.161   0.807  12.777  0.7170  0.9103  0.6741
17657TIP3   OH274385   0.232   4.321   2.198 -0.3315  0.1870 -0.0270
17657TIP3    H174386   0.193   4.287   2.279 -1.6869  0.0883 -0.6970
17657TIP3    H274387   0.194   4.266   2.129  2.5522 -1.2323 -0.5575
17658TIP3   OH274388   2.181   0.688   2.591  0.1434 -0.1599 -0.1644
17658TIP3    H174389   2.088   0.666   2.595  0.3817 -1.6676 -1.8752
17658TIP3    H274390   2.196   0.711   2.499  1.7603 -1.3756 -0.2284
17659TIP3   OH274391   2.724   5.925   0.601  0.5639 -0.0144  0.1974
17659TIP3    H174392   2.812   5.899   0.626  0.7395  0.1623 -0.2237
17659TIP3    H274393   2.695   5.983   0.671  1.8565  2.1776 -1.0203
17660TIP3   OH274394   2.462   0.652   1.172 -0.3456  0.3628  0.2056
17660TIP3    H174395   2.523   0.600   1.225 -2.0344 -2.5562 -0.6133
17660TIP3    H274396   2.461   0.609   1.087 -2.3674  1.2974 -0.2815
17661TIP3   OH274397   0.710   2.876   4.900  0.4619 -0.7368  0.5337
17661TIP3    H174398   0.783   2.857   4.841 -1.2062 -0.0589 -1.8510
17661TIP3    H274399   0.635   2.830   4.861 -1.6366  3.2155 -0.3288
17662TIP3   OH274400   4.050   6.409  10.825 -0.0060  0.2612 -0.5470
17662TIP3    H174401   4.079   6.420  10.734  1.1144 -0.2614 -0.2621
17662TIP3    H274402   4.069   6.317  10.845 -0.3791  0.3421  0.1657
17663TIP3   OH274403   6.345   5.962  13.209 -0.2148  0.7157 -0.1665
17663TIP3    H174404   6.420   6.021  13.197  1.2838 -1.4572 -2.0947
17663TIP3    H274405   6.315   5.944  13.120 -1.6670 -0.1532  0.4912
17664TIP3   OH274406   0.745   5.501  16.957 -0.2114  0.3151  0.4633
17664TIP3    H174407   0.722   5.409  16.948 -1.9606  0.6660  1.1193
17664TIP3    H274408   0.777   5.527  16.871  0.7820 -1.0423  0.4222
17665TIP3   OH274409   5.394   4.766  11.724  0.2550 -0.5695 -0.4161
17665TIP3    H174410   5.411   4.819  11.647  0.9709 -1.5648 -0.9414
17665TIP3    H274411   5.444   4.808  11.794 -0.1355  0.1391 -0.5579
17666TIP3   OH274412   3.823   1.521  16.925  0.5740  0.0964  0.4362
17666TIP3    H174413   3.867   1.451  16.877 -0.1297 -0.4355  0.5558
17666TIP3    H274414   3.737   1.485  16.945  0.6229  0.5702  1.5088
17667TIP3   OH274415   3.632   2.315  11.358  0.1211  0.5363  0.1630
17667TIP3    H174416   3.670   2.289  11.442 -0.6295  0.4003  0.4615
17667TIP3    H274417   3.547   2.272  11.355  1.0667 -1.2957 -1.6643
17668TIP3   OH274418   4.928   3.819   4.121 -0.2166 -0.3557 -0.1377
17668TIP3    H174419   4.916   3.838   4.214  0.1247 -0.1201 -0.1410
17668TIP3    H274420   4.936   3.724   4.116 -0.8248 -0.4163  0.0061
17669TIP3   OH274421   0.299   0.393  16.258 -0.5293  0.2295 -0.1461
17669TIP3    H174422   0.352   0.329  16.209 -0.4648  0.4970 -0.4269
17669TIP3    H274423   0.215   0.394  16.212 -0.4118  0.6066 -0.3548
17670TIP3   OH274424   2.558   4.085   1.271  0.0160 -0.5019  0.2970
17670TIP3    H174425   2.567   4.154   1.205 -0.7358 -0.4654  0.2267
17670TIP3    H274426   2.647   4.051   1.282  0.4362  0.6584  0.5411
17671TIP3   OH274427   0.149   5.608  12.663 -0.0202  0.4295  0.1840
17671TIP3    H174428   0.096   5.544  12.709 -0.5676  1.2921  0.7788
17671TIP3    H274429   0.152   5.578  12.572 -1.6592  0.4689  0.1140
17672TIP3   OH274430   5.111   1.477  14.448  0.0441  0.0337  0.0523
17672TIP3    H174431   5.203   1.481  14.424  0.5830 -2.9945  1.3681
17672TIP3    H274432   5.099   1.549  14.510  1.1899  1.2249 -1.0775
17673TIP3   OH274433   6.573   0.208  16.503  0.2913  0.2448 -0.3475
17673TIP3    H174434   6.502   0.272  16.494 -0.6586 -0.8595 -0.8688
17673TIP3    H274435   6.612   0.204  16.415  1.0631  0.8938 -0.0500
17674TIP3   OH274436   0.732   4.990  13.475  0.3839  0.5099 -0.3509
17674TIP3    H174437   0.638   5.005  13.480 -0.0735 -2.1329 -0.1234
17674TIP3    H274438   0.760   5.034  13.395 -1.4544 -0.6377 -1.6478
17675TIP3   OH274439   3.681   1.505  12.765  0.3182 -0.2757  0.1817
17675TIP3    H174440   3.655   1.415  12.743 -2.7013  0.3164  1.0570
17675TIP3    H274441   3.722   1.497  12.851 -1.8843 -0.5866  1.2443
17676TIP3   OH274442   4.766   3.365   4.028 -0.3972 -0.1711 -0.5882
17676TIP3    H174443   4.765   3.418   3.949 -0.1757  2.2978  1.0090
17676TIP3    H274444   4.858   3.344   4.043 -0.4619 -0.8354 -1.0899
17677TIP3   OH274445   0.591   2.424   2.623  0.0487  1.2867 -0.8618
17677TIP3    H174446   0.650   2.368   2.572  0.2753  0.0447  0.7263
17677TIP3    H274447   0.589   2.506   2.574  2.4962  1.0904 -1.3843
17678TIP3   OH274448   2.880   3.085  14.685 -0.0883  0.5821  0.0111
17678TIP3    H174449   2.944   3.156  14.682  0.1249  0.4476  1.0834
17678TIP3    H274450   2.918   3.016  14.631  1.0513  0.2050  1.2737
17679TIP3   OH274451   6.313   4.493   5.761  0.3717  0.6521  0.0012
17679TIP3    H174452   6.247   4.561   5.770  1.1047  1.2073  1.2390
17679TIP3    H274453   6.274   4.416   5.802 -0.3745  0.3522 -1.2223
17680TIP3   OH274454   3.844   4.203   0.061 -0.0191  0.4254 -0.4022
17680TIP3    H174455   3.793   4.147   0.003  0.3864 -0.1664 -0.1944
17680TIP3    H274456   3.897   4.257   0.002 -0.8906  1.0645 -0.6182
17681TIP3   OH274457   1.260   1.081  14.531  0.0157 -0.3966 -0.5277
17681TIP3    H174458   1.286   1.009  14.474 -1.8888 -1.7041  0.2233
17681TIP3    H274459   1.302   1.158  14.493  1.2390 -1.7250 -1.9344
17682TIP3   OH274460   0.613   6.614   0.502 -0.1299 -0.6343  0.1299
17682TIP3    H174461   0.603   6.598   0.596 -0.9888 -4.2050 -0.5228
17682TIP3    H274462   0.526   6.642   0.474 -0.3238 -1.2659  0.0942
17683TIP3   OH274463   1.126   3.593  16.278 -0.5586 -0.1176 -0.0327
17683TIP3    H174464   1.212   3.631  16.262 -0.7936  0.3750 -0.1329
17683TIP3    H274465   1.129   3.561  16.368 -0.1650 -0.3891 -0.1439
17684TIP3   OH274466   1.650   3.291  14.033 -0.0458  0.4816 -0.2063
17684TIP3    H174467   1.690   3.339  13.960 -0.4477 -0.4794 -1.0758
17684TIP3    H274468   1.664   3.198  14.011 -0.4146  0.1828  0.7992
17685TIP3   OH274469   0.307   1.836   3.841  0.4649 -0.0346 -0.4486
17685TIP3    H174470   0.277   1.925   3.855 -0.2351 -0.1650 -1.0785
17685TIP3    H274471   0.294   1.792   3.925 -1.3553 -0.1621 -0.7881
17686TIP3   OH274472   0.528   1.001  12.386 -0.0935 -0.2139 -0.1375
17686TIP3    H174473   0.590   0.973  12.318  1.0452 -0.8554  1.1245
17686TIP3    H274474   0.513   1.094  12.370  1.5133  0.0395 -0.2440
17687TIP3   OH274475   5.720   2.570   5.975 -0.5138  0.6729  0.2896
17687TIP3    H174476   5.710   2.491   6.028 -0.2440 -0.5853 -1.5056
17687TIP3    H274477   5.658   2.632   6.014  0.6555  0.2649  2.9388
17688TIP3   OH274478   5.352   1.253   2.060  0.0497  0.1732  0.6256
17688TIP3    H174479   5.263   1.247   2.095  0.0740 -0.1298  0.6303
17688TIP3    H274480   5.341   1.256   1.965 -0.0829  2.0714  0.6766
17689TIP3   OH274481   4.611   1.227   5.619  0.2403  0.0303 -0.1958
17689TIP3    H174482   4.587   1.303   5.567  1.4431  0.2442 -0.4554
17689TIP3    H274483   4.581   1.247   5.707 -1.4687 -0.1712 -0.7095
17690TIP3   OH274484   3.477   3.390  15.539  0.0327  0.8865 -0.0031
17690TIP3    H174485   3.392   3.368  15.503 -0.0757  0.1157  0.6996
17690TIP3    H274486   3.529   3.419  15.464  0.1110 -1.6032 -0.9638
17691TIP3   OH274487   6.205   4.234  11.276  0.3539 -0.1368 -0.1771
17691TIP3    H174488   6.168   4.243  11.189  1.0548  0.5506 -0.4153
17691TIP3    H274489   6.239   4.145  11.280  2.7934  0.7061 -1.5920
17692TIP3   OH274490   4.137   4.887   2.979 -0.3071  0.2646  0.0131
17692TIP3    H174491   4.077   4.956   3.007  0.2475  0.7033  0.1452
17692TIP3    H274492   4.123   4.816   3.041 -0.1418  0.6629  0.5145
17693TIP3   OH274493   3.285   2.453  10.755  0.7358  0.1707 -0.6151
17693TIP3    H174494   3.242   2.449  10.670 -0.2810  1.1066 -0.1478
17693TIP3    H274495   3.332   2.536  10.755  0.1331  0.5183  0.0190
17694TIP3   OH274496   3.191   2.295  14.077  0.0816 -0.2937 -0.1555
17694TIP3    H174497   3.173   2.202  14.092  1.0180  0.0342  3.6826
17694TIP3    H274498   3.287   2.301  14.081  0.0010  0.8856  0.0036
17695TIP3   OH274499   2.859   0.881  11.723 -0.6844  0.0113 -0.6669
17695TIP3    H174500   2.914   0.875  11.645 -0.3581 -0.4989 -0.4023
17695TIP3    H274501   2.873   0.798  11.769 -2.0869 -0.3479 -0.8604
17696TIP3   OH274502   2.173   0.594  17.228  0.8925  0.1312  0.0817
17696TIP3    H174503   2.208   0.623  17.312  0.1355  0.5748  0.2505
17696TIP3    H274504   2.096   0.541  17.252  1.7596 -1.3215 -0.2571
17697TIP3   OH274505   1.085   4.151  12.535  0.1201  0.1254  0.0352
17697TIP3    H174506   1.082   4.196  12.451  1.2409  0.4694  0.1703
17697TIP3    H274507   1.041   4.210  12.596 -0.0324  0.2108 -0.1588
17698TIP3   OH274508   0.927   2.526  13.969 -0.1994  0.0467 -0.1459
17698TIP3    H174509   0.983   2.520  14.046  0.1390 -0.0806 -0.4024
17698TIP3    H274510   0.942   2.615  13.935  2.3573 -1.0934 -2.1269
17699TIP3   OH274511   1.952   4.941   5.032  0.2625  0.3113 -0.0330
17699TIP3    H174512   1.985   4.881   4.965 -0.0231 -0.4106  0.4677
17699TIP3    H274513   1.864   4.910   5.051 -0.8091  2.3684 -1.5133
17700TIP3   OH274514   1.835   2.782  12.866 -0.5887  0.2037 -0.5786
17700TIP3    H174515   1.743   2.777  12.841 -0.7298  1.4542 -0.3064
17700TIP3    H274516   1.842   2.862  12.917  0.5747 -0.0969 -0.2502
17701TIP3   OH274517   5.904   1.325   5.115  0.1273 -0.0521 -0.1993
17701TIP3    H174518   5.887   1.347   5.024  1.1105 -0.6972 -0.5419
17701TIP3    H274519   5.960   1.396   5.147 -1.7754  1.2025  0.4677
17702TIP3   OH274520   5.945   1.910   6.075  0.2981 -0.9197  0.0254
17702TIP3    H174521   5.854   1.891   6.055  0.3983 -1.6009  0.2136
17702TIP3    H274522   5.964   1.857   6.152  1.0260 -1.2255 -0.3651
17703TIP3   OH274523   5.991   2.869  15.943 -0.6194  0.2714  0.1215
17703TIP3    H174524   5.967   2.779  15.967  2.7255 -1.1420 -1.5063
17703TIP3    H274525   6.043   2.900  16.018  0.5357 -0.1641 -0.4902
17704TIP3   OH274526   2.584   2.570  11.702  0.3963 -0.1892  0.5493
17704TIP3    H174527   2.625   2.510  11.640 -0.1037 -0.1253  0.1512
17704TIP3    H274528   2.623   2.548  11.787 -0.7329 -1.9886  0.6382
17705TIP3   OH274529   1.840   6.257   3.936 -0.0528  0.2902  0.0570
17705TIP3    H174530   1.863   6.313   4.011 -0.3287 -0.6403  0.8402
17705TIP3    H274531   1.924   6.224   3.904 -0.0072 -0.1364  0.6067
17706TIP3   OH274532   1.004   5.411  13.802 -0.8515  0.4277 -0.9653
17706TIP3    H174533   1.082   5.461  13.779  0.4206 -2.1281 -2.3553
17706TIP3    H274534   1.018   5.386  13.894 -0.0259 -0.0062 -1.2024
17707TIP3   OH274535   3.330   4.329   6.420  0.1211  0.3390  0.0030
17707TIP3    H174536   3.305   4.246   6.380 -0.1315  1.1123 -1.5108
17707TIP3    H274537   3.263   4.391   6.391  0.9729  1.3297  0.0791
17708TIP3   OH274538   4.037   4.450   1.571 -0.6381  1.1613 -0.1758
17708TIP3    H174539   4.094   4.415   1.639 -0.0628  1.5468 -0.4622
17708TIP3    H274540   3.964   4.489   1.619 -0.7675  0.4913  0.1828
17709TIP3   OH274541   6.527   6.699  10.268  0.0229  0.2179 -0.0754
17709TIP3    H174542   6.531   6.734  10.357  0.3797 -0.2254  0.0902
17709TIP3    H274543   6.547   6.774  10.212  1.7368  0.0950  0.3183
17710TIP3   OH274544   4.238   2.897   4.918  0.5284 -0.3988 -0.1435
17710TIP3    H174545   4.178   2.884   4.992  1.5382 -3.8294  0.1537
17710TIP3    H274546   4.187   2.948   4.855 -1.1374  0.6317  1.9504
17711TIP3   OH274547   5.212   1.524  16.522 -0.6402  0.1343  0.4313
17711TIP3    H174548   5.303   1.552  16.510  0.2098 -1.6395  2.3660
17711TIP3    H274549   5.193   1.472  16.444 -0.0009  0.5562 -0.0156
17712TIP3   OH274550   3.685   5.449  11.647 -0.3810 -0.3224  0.3155
17712TIP3    H174551   3.671   5.356  11.663 -0.9342 -0.2008  0.5492
17712TIP3    H274552   3.685   5.458  11.552  0.4134 -0.6687  0.2774
17713TIP3   OH274553   4.617   5.852   2.132 -0.0424 -0.5395  0.4224
17713TIP3    H174554   4.686   5.892   2.185  0.3882 -0.8257  0.0884
17713TIP3    H274555   4.560   5.808   2.195  0.6012 -1.0831  0.6376
17714TIP3   OH274556   5.651   0.187   1.563  0.1719 -0.4642  0.7435
17714TIP3    H174557   5.587   0.257   1.551  0.6832 -0.1652 -0.3816
17714TIP3    H274558   5.736   0.231   1.558  0.4867 -1.0860  0.5710
17715TIP3   OH274559   2.174   5.943  11.294  0.2887 -0.2610  0.2103
17715TIP3    H174560   2.190   6.035  11.317  0.9538 -0.4906  0.6745
17715TIP3    H274561   2.094   5.946  11.241  1.1302  0.7525 -1.0518
17716TIP3   OH274562   4.525   4.869   4.465 -0.2726 -0.6561 -0.2341
17716TIP3    H174563   4.454   4.816   4.500 -0.3301 -0.3883  0.0702
17716TIP3    H274564   4.589   4.806   4.433 -0.0485 -0.9195  0.7160
17717TIP3   OH274565   0.196   4.871  16.322  0.0579  0.2350 -0.3712
17717TIP3    H174566   0.238   4.939  16.270 -0.7170  0.2958 -0.9283
17717TIP3    H274567   0.110   4.906  16.344  0.3543  0.1829  0.9099
17718TIP3   OH274568   1.244   1.767   2.598 -0.1351 -0.1954  0.0873
17718TIP3    H174569   1.210   1.685   2.562 -1.1159 -0.2321  1.0759
17718TIP3    H274570   1.326   1.741   2.641 -0.5161 -0.6909  0.5270
17719TIP3   OH274571   3.034   2.247   2.679  0.1772  0.3840 -0.3043
17719TIP3    H174572   2.980   2.316   2.642  0.4880 -0.4053 -2.2528
17719TIP3    H274573   2.977   2.171   2.685  0.5616  0.0659 -0.6378
17720TIP3   OH274574   3.368   5.421  16.966  0.3600 -0.0594  0.3803
17720TIP3    H174575   3.289   5.466  16.936  1.7844  1.8538 -0.6344
17720TIP3    H274576   3.369   5.434  17.061  0.0189  0.8651  0.2601
17721TIP3   OH274577   4.343   0.126  15.916 -0.2661 -0.5353  0.1978
17721TIP3    H174578   4.356   0.214  15.883 -0.0803 -0.1971  1.1603
17721TIP3    H274579   4.306   0.078  15.842 -2.7828  0.9838  0.4298
17722TIP3   OH274580   0.005   0.431  15.686 -0.0434  0.6293  0.2251
17722TIP3    H174581   0.033   0.452  15.597 -0.0741  1.1468  0.3363
17722TIP3    H274582   0.021   0.511  15.736 -3.0076  1.4407  0.0046
17723TIP3   OH274583   5.735   2.225   5.313 -0.3837 -0.4054  0.0776
17723TIP3    H174584   5.827   2.217   5.289 -0.2574 -1.5000  0.9163
17723TIP3    H274585   5.694   2.267   5.237  0.4425 -1.7606 -1.1329
17724TIP3   OH274586   1.875   4.677   4.528  0.5542 -0.2153  0.1044
17724TIP3    H174587   1.826   4.602   4.494  0.4315  0.3478 -0.9571
17724TIP3    H274588   1.922   4.712   4.452  2.4535 -0.6243  1.0574
17725TIP3   OH274589   1.107   4.481  16.289 -0.3785 -0.4958 -0.3441
17725TIP3    H174590   1.134   4.504  16.200 -0.3089 -0.2690 -0.2632
17725TIP3    H274591   1.146   4.549  16.344  0.6022 -1.3066 -0.0051
17726TIP3   OH274592   1.143   2.423  14.684  0.5095  0.3636 -0.2515
17726TIP3    H174593   1.133   2.375  14.602 -0.4419  1.6459 -0.9028
17726TIP3    H274594   1.084   2.378  14.745 -0.6835  0.9183 -0.9697
17727TIP3   OH274595   3.636   3.448  15.312 -0.1777  0.5858 -0.0964
17727TIP3    H174596   3.728   3.456  15.337 -0.2926 -0.1193  0.5635
17727TIP3    H274597   3.636   3.454  15.216  0.2772  3.2386  0.0356
17728TIP3   OH274598   3.851   4.077  14.541  0.0397  0.2942  0.2193
17728TIP3    H174599   3.798   3.998  14.550  0.2871  0.0199 -0.6774
17728TIP3    H274600   3.880   4.076  14.450 -0.8348  1.9919 -0.0832
17729TIP3   OH274601   4.943   4.055  17.023 -0.3338  0.3102 -0.1747
17729TIP3    H174602   4.968   4.031  16.933 -0.4590  0.6001 -0.2891
17729TIP3    H274603   5.020   4.100  17.058 -0.8703  1.6749 -0.7057
17730TIP3   OH274604   0.316   0.854  12.708  0.3009 -0.3537 -0.9058
17730TIP3    H174605   0.407   0.842  12.679  1.1324  2.7317  0.2381
17730TIP3    H274606   0.281   0.922  12.650 -0.4691  0.2704  0.2723
17731TIP3   OH274607   4.407   0.529   5.366 -0.4096  0.2454  0.3600
17731TIP3    H174608   4.492   0.566   5.392  0.0599  0.5609 -1.5195
17731TIP3    H274609   4.372   0.593   5.304 -0.1367 -1.8183 -2.0095
17732TIP3   OH274610   3.442   6.525  15.559  0.0430  0.2095  0.2475
17732TIP3    H174611   3.365   6.582  15.557  0.9361  1.4402  0.6544
17732TIP3    H274612   3.484   6.538  15.474  1.1425  1.4276  0.9551
17733TIP3   OH274613   4.670   4.227   4.922 -0.1898  0.0172  0.0805
17733TIP3    H174614   4.651   4.299   4.982 -0.7502 -0.2690  0.2421
17733TIP3    H274615   4.763   4.237   4.902  0.4872 -1.0139  2.5060
17734TIP3   OH274616   6.306   6.097  16.126 -0.2888 -0.0519  0.2561
17734TIP3    H174617   6.216   6.068  16.116 -0.7413  1.6185 -0.7420
17734TIP3    H274618   6.340   6.105  16.037  0.4945  0.3482  0.5810
17735TIP3   OH274619   3.679   0.461  12.541 -0.2665 -0.6326 -0.0675
17735TIP3    H174620   3.728   0.516  12.602  0.3688  0.6414 -1.6798
17735TIP3    H274621   3.740   0.390  12.518 -0.2185 -0.6696  0.1801
17736TIP3   OH274622   2.654   5.102  11.376  0.0027  0.0643  0.1080
17736TIP3    H174623   2.713   5.065  11.442  1.5122  0.8555 -0.7820
17736TIP3    H274624   2.582   5.039  11.371  1.9275 -2.1451 -0.4982
17737TIP3   OH274625   5.755   4.105  13.783 -0.4990  0.1824  0.4769
17737TIP3    H174626   5.660   4.100  13.769 -0.2988  0.0482 -0.9520
17737TIP3    H274627   5.766   4.109  13.878 -1.9091 -0.3187  0.6637
17738TIP3   OH274628   0.483   4.716  15.137  1.1189 -0.1997  0.0306
17738TIP3    H174629   0.524   4.798  15.165  0.5186  0.0302  0.2271
17738TIP3    H274630   0.548   4.648  15.157  2.7069  0.5008 -2.4921
17739TIP3   OH274631   2.080   2.081   5.667 -0.2241  0.0398 -0.6425
17739TIP3    H174632   2.168   2.055   5.640 -0.0166  0.4563 -0.3776
17739TIP3    H274633   2.027   2.003   5.655  0.3065 -0.3848 -0.2653
17740TIP3   OH274634   4.487   4.861   4.872 -0.2134  0.2734 -0.1320
17740TIP3    H174635   4.414   4.912   4.838  1.9228  2.9575 -0.8809
17740TIP3    H274636   4.514   4.908   4.952  0.6725 -0.6652  0.1344
17741TIP3   OH274637   4.082   0.500  15.760 -0.5582 -0.9336 -0.1403
17741TIP3    H174638   4.089   0.428  15.697  0.8931  0.4801 -1.6239
17741TIP3    H274639   4.151   0.482  15.824 -2.2675 -2.5717  1.3469
17742TIP3   OH274640   1.723   0.942  14.387  0.4168  0.2718  0.3912
17742TIP3    H174641   1.674   0.966  14.466  0.4256  0.0667  0.4600
17742TIP3    H274642   1.673   0.979  14.315 -0.5699 -1.0719  0.3574
17743TIP3   OH274643   5.486   0.934  15.488 -0.4956 -0.1848 -0.4376
17743TIP3    H174644   5.517   0.971  15.570 -1.3624 -2.1986  0.8481
17743TIP3    H274645   5.465   1.009  15.433  0.1015  1.1743  1.1716
17744TIP3   OH274646   3.037   5.630  12.315  0.0874  0.0200  0.7212
17744TIP3    H174647   2.946   5.600  12.311  0.4005 -0.8882  0.3362
17744TIP3    H274648   3.031   5.726  12.316 -0.9760 -0.0292  2.9021
17745TIP3   OH274649   1.073   1.201   1.887  0.1452 -0.1071  0.4226
17745TIP3    H174650   1.031   1.127   1.843 -0.8956  0.3729  0.5768
17745TIP3    H274651   1.003   1.240   1.940  1.3424 -0.5888  2.3922
17746TIP3   OH274652   3.043   3.555   0.096 -0.3019 -0.7279 -0.3447
17746TIP3    H174653   3.091   3.525   0.018 -0.1797 -1.4879  0.0149
17746TIP3    H274654   3.023   3.474   0.143  0.4987 -0.1987  0.9256
17747TIP3   OH274655   6.290   1.463  17.125  0.5001  0.6857  0.0229
17747TIP3    H174656   6.289   1.552  17.160 -0.3943  0.4497  0.6236
17747TIP3    H274657   6.349   1.415  17.184  1.1947  0.9518 -0.4624
17748TIP3   OH274658   1.329   2.951   0.418  0.3695  0.1304 -0.3907
17748TIP3    H174659   1.289   2.877   0.373  2.5615 -0.1299 -1.9882
17748TIP3    H274660   1.336   2.923   0.509 -0.6324 -0.8368 -0.6046
17749TIP3   OH274661   2.859   0.758   5.558 -0.5470 -0.2248 -0.1147
17749TIP3    H174662   2.908   0.686   5.520 -0.2385 -0.2034  0.2414
17749TIP3    H274663   2.801   0.787   5.488 -0.4062 -0.5748 -0.3769
17750TIP3   OH274664   5.491   1.432  12.552 -0.3332  0.3820 -0.3245
17750TIP3    H174665   5.496   1.527  12.539 -3.7940  0.7618  0.4865
17750TIP3    H274666   5.530   1.395  12.472  2.0015  2.4298 -0.1958
17751TIP3   OH274667   1.987   5.142   5.825 -0.1075  0.1072  0.0980
17751TIP3    H174668   2.002   5.179   5.912 -0.4028  1.7125 -0.5148
17751TIP3    H274669   1.892   5.143   5.815 -0.1343 -1.1758  0.2205
17752TIP3   OH274670   3.547   0.129  11.752 -0.1303  0.0103  0.5858
17752TIP3    H174671   3.631   0.086  11.768  0.2554  0.7152  0.5004
17752TIP3    H274672   3.569   0.223  11.748 -0.5961  0.0490 -1.5589
17753TIP3   OH274673   0.156   5.214  10.861 -0.0844  0.0796 -0.1889
17753TIP3    H174674   0.232   5.157  10.847 -0.3546 -0.0584 -1.1320
17753TIP3    H274675   0.099   5.197  10.786  0.6308  2.8760 -1.4226
17754TIP3   OH274676   3.449   1.411  13.967 -0.3897  0.0571  0.1194
17754TIP3    H174677   3.363   1.429  14.004 -0.1528 -0.9465  1.1606
17754TIP3    H274678   3.497   1.493  13.978 -0.8827  0.3035  0.4413
17755TIP3   OH274679   0.035   3.088  17.133  0.2221  0.4937  0.6015
17755TIP3    H174680   0.050   3.105  17.040  1.4984  0.0355  0.7152
17755TIP3    H274681   0.074   3.002  17.148  1.2314  1.1444  1.8463
17756TIP3   OH274682   6.230   6.406  11.575 -0.0668  0.1229 -0.0222
17756TIP3    H174683   6.222   6.318  11.538  1.4282 -0.6455  1.4037
17756TIP3    H274684   6.163   6.409  11.643 -1.1544  0.6518 -1.1051
17757TIP3   OH274685   1.421   0.379   4.865  0.5569  0.0507 -0.0987
17757TIP3    H174686   1.438   0.447   4.800 -1.5961 -0.0839 -0.8305
17757TIP3    H274687   1.349   0.413   4.918 -0.3699 -1.5115 -0.3047
17758TIP3   OH274688   6.110   1.604   0.774 -0.1637  0.3231 -0.3397
17758TIP3    H174689   6.146   1.516   0.761 -2.8687 -0.6462 -1.9393
17758TIP3    H274690   6.132   1.651   0.693 -1.2286  0.1579 -0.7354
17759TIP3   OH274691   6.569   0.051  11.036  0.4882  0.0242 -0.3273
17759TIP3    H174692   6.483   0.038  10.994  0.4738  0.1727 -0.3421
17759TIP3    H274693   6.579   0.146  11.042  0.8714  0.0121 -0.7766
17760TIP3   OH274694   4.862   5.905   2.247  0.0627 -0.1568  0.4333
17760TIP3    H174695   4.890   5.916   2.156 -1.4459 -1.7548 -0.2665
17760TIP3    H274696   4.924   5.843   2.284 -0.1855 -0.6501  0.0404
17761TIP3   OH274697   3.901   0.083   2.293  0.6888  0.1588  0.2003
17761TIP3    H174698   3.884   0.003   2.343  1.0296 -0.6017 -0.8713
17761TIP3    H274699   3.930   0.051   2.207  0.1421  1.4308 -0.4647
17762TIP3   OH274700   1.636   2.977   2.390  0.2550 -0.0941  0.2082
17762TIP3    H174701   1.578   2.999   2.464  0.2139 -0.2546  0.2238
17762TIP3    H274702   1.656   2.885   2.402 -1.4004 -0.6470 -1.1144
17763TIP3   OH274703   4.698   1.314  15.321 -0.1124 -0.1287 -0.5632
17763TIP3    H174704   4.763   1.374  15.284 -0.5157  0.4662 -0.3163
17763TIP3    H274705   4.731   1.227  15.299  1.5675  0.1033  0.8762
17764TIP3   OH274706   6.556   6.558  13.211  0.2607  0.1941 -0.0050
17764TIP3    H174707   6.504   6.589  13.285  0.5017 -0.0201  0.2532
17764TIP3    H274708   6.607   6.635  13.184 -1.4762  0.8959 -1.3685
17765TIP3   OH274709   4.876   4.386   3.369 -0.1808  0.0839  0.1089
17765TIP3    H174710   4.857   4.399   3.462 -1.3111  1.0178 -0.2356
17765TIP3    H274711   4.888   4.474   3.334  0.2831 -0.2628 -0.6177
17766TIP3   OH274712   1.891   0.920  12.281  0.2022 -0.1614 -0.1139
17766TIP3    H174713   1.894   1.013  12.300  1.6426  0.5067 -3.3094
17766TIP3    H274714   1.968   0.884  12.325 -0.8156 -0.0256  1.8280
17767TIP3   OH274715   0.257   2.954   5.126  0.3201  0.1620  0.2681
17767TIP3    H174716   0.332   2.904   5.095  0.7872  0.5225  0.7872
17767TIP3    H274717   0.225   2.905   5.201  0.6824  0.5458  0.6820
17768TIP3   OH274718   0.926   4.067  14.911  0.7418  0.3250 -0.4244
17768TIP3    H174719   0.989   4.133  14.941 -0.0523  1.4216 -1.1255
17768TIP3    H274720   0.861   4.117  14.861 -1.5539 -0.5767  1.5845
17769TIP3   OH274721   2.158   3.104   2.262 -0.3543 -0.1943  0.4518
17769TIP3    H174722   2.191   3.116   2.351  1.1408 -2.9584  0.3141
17769TIP3    H274723   2.062   3.107   2.271 -0.1972  0.4490  1.9972
17770TIP3   OH274724   1.117   1.893   4.133 -0.1355  0.0766 -0.0934
17770TIP3    H174725   1.173   1.843   4.192 -1.3451 -0.9122  0.2468
17770TIP3    H274726   1.034   1.901   4.180  0.0830  2.5748 -0.0687
17771TIP3   OH274727   1.386   1.590   3.720  0.1040 -0.6045 -0.6983
17771TIP3    H174728   1.324   1.534   3.766  0.1461 -0.0601  0.0285
17771TIP3    H274729   1.332   1.658   3.680  0.3019  0.3306  0.6058
17772TIP3   OH274730   4.312   6.125   1.309  0.3302 -0.5789  0.4464
17772TIP3    H174731   4.361   6.044   1.293 -0.7115 -1.4997  1.8084
17772TIP3    H274732   4.371   6.195   1.281  1.6004 -1.7670  0.1215
17773TIP3   OH274733   5.922   4.329  13.738 -0.5146 -0.5096 -0.1284
17773TIP3    H174734   5.988   4.311  13.671  0.6081 -1.1896  1.1416
17773TIP3    H274735   5.873   4.247  13.747 -0.7861 -0.3617 -0.2406
17774TIP3   OH274736   0.702   2.769  10.714  0.2467 -0.4524  0.0124
17774TIP3    H174737   0.784   2.737  10.753 -0.3955 -2.1473  0.0204
17774TIP3    H274738   0.730   2.840  10.656  1.6489 -0.5572  0.5227
17775TIP3   OH274739   6.072   5.557   2.083 -0.5189 -0.6015 -0.3710
17775TIP3    H174740   6.067   5.553   2.179 -0.4479  0.1592 -0.3357
17775TIP3    H274741   5.986   5.588   2.056 -0.0879  0.5374 -0.4683
17776TIP3   OH274742   0.098   3.412   6.076 -0.1147 -0.0998  0.3403
17776TIP3    H174743   0.105   3.316   6.077 -0.7063 -0.1372  1.2432
17776TIP3    H274744   0.131   3.440   6.161  0.5134  0.5358 -0.1088
17777TIP3   OH274745   3.353   2.619   5.107 -0.1350  0.1159 -0.3240
17777TIP3    H174746   3.421   2.581   5.163  0.2844  0.5675 -0.5242
17777TIP3    H274747   3.298   2.545   5.083  1.5202 -0.6202 -1.9101
17778TIP3   OH274748   2.190   1.523   2.756  0.6407 -0.6834 -0.2036
17778TIP3    H174749   2.271   1.487   2.721  0.6715 -0.3171 -0.5080
17778TIP3    H274750   2.155   1.577   2.685 -0.2638 -1.4523 -0.3662
17779TIP3   OH274751   1.966   6.026  16.916  0.1852  0.0913  0.3559
17779TIP3    H174752   1.951   6.051  17.007 -0.3105 -0.5476  0.4550
17779TIP3    H274753   1.879   6.007  16.881  0.5334 -1.4586  0.2847
17780TIP3   OH274754   3.773   4.783  15.733  0.0633  0.4049  0.2140
17780TIP3    H174755   3.806   4.693  15.741  1.8319  0.7647 -2.5640
17780TIP3    H274756   3.681   4.777  15.760  0.0610 -2.2946 -0.2653
17781TIP3   OH274757   3.639   3.341  15.758  0.3046 -0.0330  0.5017
17781TIP3    H174758   3.574   3.326  15.690 -0.8827 -0.0426  1.6314
17781TIP3    H274759   3.617   3.426  15.795  2.0577  0.8103 -0.3381
17782TIP3   OH274760   3.781   1.581   6.240 -0.1963 -0.1786  0.0506
17782TIP3    H174761   3.823   1.633   6.309 -0.1663  1.4821 -1.2148
17782TIP3    H274762   3.841   1.587   6.166 -1.8112  0.7231 -1.1879
17783TIP3   OH274763   0.274   5.243  16.279 -0.0004 -0.0105 -0.3029
17783TIP3    H174764   0.253   5.293  16.200 -1.4085  1.6602  1.0776
17783TIP3    H274765   0.341   5.296  16.323 -1.5496  0.7160  1.2054
17784TIP3   OH274766   3.047   6.602  13.427  0.3360 -0.2637 -0.1836
17784TIP3    H174767   2.992   6.525  13.415 -0.3344  0.4909 -2.1858
17784TIP3    H274768   3.037   6.651  13.346  2.3562  0.9240  0.2635
17785TIP3   OH274769   3.405   4.402   3.225  0.1792 -0.2924 -0.1623
17785TIP3    H174770   3.317   4.393   3.263  0.5416 -0.1618  0.7070
17785TIP3    H274771   3.439   4.483   3.262  1.1469 -0.9806  0.4658
17786TIP3   OH274772   2.325   3.020  11.886  0.7634 -0.1790  0.1563
17786TIP3    H174773   2.412   3.026  11.846  0.8183 -0.1748  0.2768
17786TIP3    H274774   2.265   3.012  11.812  0.6757  1.8560 -0.0399
17787TIP3   OH274775   6.500   2.877  16.396 -0.2473 -0.4425  0.0404
17787TIP3    H174776   6.546   2.845  16.318  1.3096  1.6101  0.0647
17787TIP3    H274777   6.490   2.971  16.381 -0.8453 -0.1962  1.8671
17788TIP3   OH274778   6.120   0.541  13.088 -0.1759  0.3928 -0.0658
17788TIP3    H174779   6.062   0.467  13.068 -0.5435  0.1671  1.7312
17788TIP3    H274780   6.107   0.601  13.016 -0.8355 -0.7425 -0.9159
17789TIP3   OH274781   3.562   5.029   5.715 -0.0606 -0.0175  0.3626
17789TIP3    H174782   3.506   5.001   5.787 -1.4740  0.6783 -0.4570
17789TIP3    H274783   3.628   4.960   5.707 -3.0002 -2.7781 -1.1189
17790TIP3   OH274784   5.339   6.678   3.321  0.0195  0.1426 -0.1151
17790TIP3    H174785   5.323   6.748   3.258 -4.2693  0.0633  0.6893
17790TIP3    H274786   5.349   6.723   3.405 -0.2950 -0.0580  0.0319
17791TIP3   OH274787   4.516   3.949   5.334  0.3496  0.0703 -0.2240
17791TIP3    H174788   4.491   4.019   5.274  0.8132  0.4417  0.0093
17791TIP3    H274789   4.479   3.870   5.296  0.1566  0.3869 -0.6958
17792TIP3   OH274790   4.764   3.088   6.870  0.1753  0.1124  0.0935
17792TIP3    H174791   4.786   3.159   6.810  0.2423 -2.1770 -2.7557
17792TIP3    H274792   4.808   3.011   6.833 -0.9467 -1.6810  2.3116
17793TIP3   OH274793   1.250   4.382   0.326 -0.4339 -0.2847 -0.4281
17793TIP3    H174794   1.230   4.446   0.394  0.8191  1.2971 -1.5012
17793TIP3    H274795   1.269   4.302   0.373  0.8719  0.9006  1.1269
17794TIP3   OH274796   3.489   3.833   2.947  0.0356  0.2857  0.5454
17794TIP3    H174797   3.567   3.777   2.947  0.8023  1.3352  0.3772
17794TIP3    H274798   3.460   3.833   2.856  0.4175  0.6780  0.4213
17795TIP3   OH274799   5.704   4.190   3.977  0.5171  0.3908  0.5240
17795TIP3    H174800   5.696   4.152   4.065  0.1458  0.5743  0.5700
17795TIP3    H274801   5.706   4.284   3.992 -0.5175  0.4548  0.2582
17796TIP3   OH274802   2.190   1.670   4.980 -0.3171  0.3669  0.1637
17796TIP3    H174803   2.229   1.753   5.006  0.6860 -1.1245  3.8408
17796TIP3    H274804   2.118   1.657   5.042  0.4253 -2.1463  0.5658
17797TIP3   OH274805   5.604   6.774   3.974 -0.0199  0.0183 -0.3484
17797TIP3    H174806   5.553   6.805   4.049 -1.0839  0.0949 -1.0923
17797TIP3    H274807   5.620   6.853   3.923 -0.2654 -0.2083 -0.7743
17798TIP3   OH274808   1.897   6.433  13.062  0.0444  0.4617 -0.0330
17798TIP3    H174809   1.854   6.365  13.114  0.5538 -1.3251 -1.8851
17798TIP3    H274810   1.924   6.499  13.126 -1.0630 -0.7349  1.7183
17799TIP3   OH274811   6.142   1.307  13.163 -0.3818  0.1626  0.2594
17799TIP3    H174812   6.128   1.334  13.072 -4.1771  1.0250  1.0455
17799TIP3    H274813   6.137   1.211  13.160 -1.8055  0.2514 -0.2336
17800TIP3   OH274814   5.861   3.268  13.798 -0.5066  0.9868  0.1592
17800TIP3    H174815   5.904   3.347  13.765 -0.3657  0.9735  0.3098
17800TIP3    H274816   5.877   3.270  13.893  0.4675  0.1939  0.0166
17801TIP3   OH274817   1.803   2.404   4.566 -0.0444 -0.7157  0.2899
17801TIP3    H174818   1.786   2.328   4.622 -0.3581 -0.4556  0.5455
17801TIP3    H274819   1.807   2.478   4.625 -0.1610 -0.4685 -0.0091
17802TIP3   OH274820   6.342   5.912   1.490 -0.0134 -0.3926  0.5955
17802TIP3    H174821   6.387   5.906   1.574 -0.4623  0.8660  0.9348
17802TIP3    H274822   6.249   5.900   1.512 -0.1153 -0.2218  0.2589
17803TIP3   OH274823   3.142   6.079   2.077  0.5010  0.2037  0.5772
17803TIP3    H174824   3.169   6.165   2.044 -0.8427  0.9639  1.3812
17803TIP3    H274825   3.154   6.086   2.172  0.5061 -0.5542  0.6330
17804TIP3   OH274826   6.497   5.543  15.162 -0.0317  0.5550 -0.1390
17804TIP3    H174827   6.426   5.483  15.186 -0.5009  0.8359 -0.8238
17804TIP3    H274828   6.454   5.614  15.115  0.8361  0.1661 -1.5509
17805TIP3   OH274829   6.268   1.776  14.611  0.1164 -0.2265 -0.0522
17805TIP3    H174830   6.332   1.763  14.541  3.0313  0.4819  2.3542
17805TIP3    H274831   6.277   1.700  14.668 -0.5571  0.2959  0.7848
17806TIP3   OH274832   4.950   3.148  14.110 -0.1809  0.1853  0.1045
17806TIP3    H174833   5.021   3.112  14.058  0.1861 -1.0079  1.4127
17806TIP3    H274834   4.992   3.179  14.191 -0.5362  3.2346 -0.7945
17807TIP3   OH274835   0.131   3.865   5.200 -0.1423 -0.5079  0.5949
17807TIP3    H174836   0.186   3.908   5.134  0.1061 -0.3134  0.9329
17807TIP3    H274837   0.189   3.849   5.274 -0.7878  0.6555  1.3659
17808TIP3   OH274838   2.100   1.042  12.877  0.0715  0.1339 -0.3312
17808TIP3    H174839   2.152   1.094  12.816  0.4543  0.2187  0.0617
17808TIP3    H274840   2.161   1.019  12.947  0.2614 -2.0126 -1.1756
17809TIP3   OH274841   4.222   1.518   3.913  0.6391 -0.0135 -0.6826
17809TIP3    H174842   4.170   1.528   3.992 -0.8507 -1.2955 -1.4704
17809TIP3    H274843   4.310   1.548   3.937  0.0889  0.0175  1.3127
17810TIP3   OH274844   5.417   0.101   4.608  0.3807 -0.1550  0.6255
17810TIP3    H174845   5.454   0.079   4.523 -2.1510  0.7728 -0.7802
17810TIP3    H274846   5.489   0.091   4.670  2.4562 -0.0934 -1.7357
17811TIP3   OH274847   2.648   2.929   0.793 -0.7662 -0.5639 -0.2267
17811TIP3    H174848   2.635   2.977   0.711  0.6195 -0.0452 -0.1598
17811TIP3    H274849   2.708   2.857   0.770  0.0614 -0.0978  0.4266
17812TIP3   OH274850   4.796   2.988   1.822  0.0724 -0.3155 -0.1109
17812TIP3    H174851   4.702   3.004   1.836  0.4906  0.2375  2.3648
17812TIP3    H274852   4.833   3.075   1.809  0.3913 -0.4518 -0.1054
17813TIP3   OH274853   5.439   1.890  11.157  0.2210 -0.1743  0.0777
17813TIP3    H174854   5.498   1.944  11.103  1.8492 -0.3036  1.6762
17813TIP3    H274855   5.400   1.952  11.219 -0.2156 -0.3435 -0.0240
17814TIP3   OH274856   3.230   5.428  12.347  0.3934 -0.1509  0.0199
17814TIP3    H174857   3.191   5.504  12.304  2.7755  0.4250 -1.1952
17814TIP3    H274858   3.214   5.355  12.288  1.5256  0.1802 -0.7182
17815TIP3   OH274859   0.888   0.088  17.064 -0.2369  0.2675 -0.0378
17815TIP3    H174860   0.852   0.008  17.103 -0.2535 -0.3925 -1.3652
17815TIP3    H274861   0.936   0.130  17.134  0.0889 -1.1131  0.5708
17816TIP3   OH274862   6.173   3.596  14.028 -0.2505 -0.7254  0.9079
17816TIP3    H174863   6.106   3.557  14.083 -0.6778 -1.2818  0.0087
17816TIP3    H274864   6.166   3.549  13.945 -0.4233  0.9038 -0.0190
17817TIP3   OH274865   0.222   0.198   5.606  0.6413  0.6273 -0.0755
17817TIP3    H174866   0.270   0.131   5.656  1.6674  0.5822 -1.0902
17817TIP3    H274867   0.133   0.194   5.639  1.5834  1.5854  2.8114
17818TIP3   OH274868   6.131   2.888  14.922  0.2689  0.1454  0.2257
17818TIP3    H174869   6.147   2.952  14.852  1.4069  0.0315  0.3676
17818TIP3    H274870   6.127   2.942  15.002 -1.1059  0.2835  0.0671
17819TIP3   OH274871   3.201   0.739  11.685 -0.2308  0.3717 -0.3299
17819TIP3    H174872   3.198   0.833  11.670  0.9503  0.5254  0.3808
17819TIP3    H274873   3.275   0.708  11.631 -0.7700 -0.1849 -0.7591
17820TIP3   OH274874   2.726   5.660  15.764  0.1973  0.0227 -1.0718
17820TIP3    H174875   2.666   5.596  15.802 -0.1345  1.1324  0.3338
17820TIP3    H274876   2.738   5.631  15.673 -0.4313 -1.6581 -0.6426
17821TIP3   OH274877   0.942   5.503   2.283 -0.0962  0.0141  0.0923
17821TIP3    H174878   0.893   5.503   2.365  0.1582  0.4357  0.2477
17821TIP3    H274879   0.930   5.415   2.247 -0.2490 -0.1541  0.5568
17822TIP3   OH274880   1.224   6.351   4.268  1.0224  0.3418  0.0061
17822TIP3    H174881   1.224   6.436   4.312  1.1223  1.4998 -2.1600
17822TIP3    H274882   1.299   6.305   4.305 -0.2511  0.3191  2.7459
17823TIP3   OH274883   4.159   4.418  14.925  0.6018 -0.3913 -0.3654
17823TIP3    H174884   4.190   4.486  14.865  1.6779 -1.4645 -1.0464
17823TIP3    H274885   4.131   4.347  14.868  0.0350 -0.7553  0.3611
17824TIP3   OH274886   1.946   4.448  13.051 -0.0785  0.1025 -0.4534
17824TIP3    H174887   1.885   4.414  13.116 -0.4930  1.0293 -0.3537
17824TIP3    H274888   2.031   4.412  13.078  0.0486  1.8718  1.6443
17825TIP3   OH274889   3.986   0.084   4.672  0.2470 -0.3196  0.2643
17825TIP3    H174890   4.010   0.168   4.709 -3.1771  0.1317  1.6883
17825TIP3    H274891   4.012   0.089   4.580  1.8271  1.5272  0.7878
17826TIP3   OH274892   3.028   4.884  13.040 -0.2142 -0.4423 -0.3515
17826TIP3    H174893   2.947   4.863  13.087 -0.2496 -0.1318 -0.2730
17826TIP3    H274894   3.093   4.897  13.109 -0.4093  0.6248 -0.3540
17827TIP3   OH274895   5.741   2.303  12.617 -0.0888  0.5082  0.1915
17827TIP3    H174896   5.829   2.306  12.582 -0.3002  2.0196 -0.2467
17827TIP3    H274897   5.708   2.392  12.608 -1.6005  0.0049  0.5070
17828TIP3   OH274898   4.664   1.222   0.793  0.5811 -0.4602  0.3788
17828TIP3    H174899   4.744   1.174   0.814  1.3255  0.9279  0.7524
17828TIP3    H274900   4.659   1.217   0.697  1.8529  0.6105  0.2493
17829TIP3   OH274901   3.289   0.084  13.637  0.4011 -0.4711  0.2672
17829TIP3    H174902   3.224   0.139  13.593  0.2676 -1.0599 -0.3012
17829TIP3    H274903   3.345   0.145  13.685 -0.7751  0.0129  1.0340
17830TIP3   OH274904   1.456   4.650  11.571  0.1628  0.0716  0.0468
17830TIP3    H174905   1.543   4.664  11.608 -0.4497  1.2388  1.0948
17830TIP3    H274906   1.456   4.702  11.491  0.4892 -0.0669 -0.0441
17831TIP3   OH274907   3.440   1.568   3.308 -1.0853 -0.0371 -0.2123
17831TIP3    H174908   3.513   1.605   3.258  0.2960 -0.5920  1.3567
17831TIP3    H274909   3.466   1.477   3.325 -1.0032  0.4636  2.4870
17832TIP3   OH274910   4.560   4.413   2.616 -0.2584  0.7285  0.4228
17832TIP3    H174911   4.479   4.459   2.591 -0.5552 -0.3414 -0.6038
17832TIP3    H274912   4.544   4.385   2.706 -0.8774  0.8688  0.3630
17833TIP3   OH274913   5.276   0.614   2.568  0.8592 -0.1971 -0.2684
17833TIP3    H174914   5.189   0.655   2.574  0.8821  0.0916 -1.6691
17833TIP3    H274915   5.310   0.617   2.657 -0.0843  0.7675  0.0792
17834TIP3   OH274916   2.926   1.764  12.840  0.5841 -0.2565  1.1350
17834TIP3    H174917   2.894   1.746  12.751  1.7981 -2.4596  1.1146
17834TIP3    H274918   2.965   1.852  12.834 -1.9133  0.8429  0.2353
17835TIP3   OH274919   5.182   1.764  16.227  0.6603 -0.6711  0.4723
17835TIP3    H174920   5.159   1.680  16.187  0.2483  0.8467 -2.6705
17835TIP3    H274921   5.276   1.773  16.209  0.3260  0.3440 -0.8708
17836TIP3   OH274922   5.442   2.392  13.719 -0.5930  0.1435 -0.2007
17836TIP3    H174923   5.373   2.327  13.734 -0.8612  0.5269  0.2338
17836TIP3    H274924   5.457   2.432  13.805  1.6474 -1.3890  0.1855
17837TIP3   OH274925   3.324   4.032  16.651 -0.5223 -0.3393 -0.7529
17837TIP3    H174926   3.230   4.027  16.665 -0.3386  1.2581  1.3742
17837TIP3    H274927   3.334   4.081  16.570 -1.5271  1.0080 -0.0893
17838TIP3   OH274928   5.676   5.459   3.011  0.2532  0.0644  0.2086
17838TIP3    H174929   5.663   5.367   2.987  1.6608 -0.4114  1.2178
17838TIP3    H274930   5.719   5.498   2.935 -2.2154  0.4016 -1.0510
17839TIP3   OH274931   5.460   4.526   0.117 -0.5784 -0.2981 -0.4702
17839TIP3    H174932   5.549   4.501   0.092 -0.6666  0.5310 -1.6352
17839TIP3    H274933   5.462   4.622   0.120 -1.1505 -0.3043  0.5843
17840TIP3   OH274934   2.299   4.154  17.019  0.6443  0.0839  0.0369
17840TIP3    H174935   2.248   4.079  16.988  0.5670  0.2718 -0.2850
17840TIP3    H274936   2.289   4.220  16.951 -0.2153  0.8077  0.8617
17841TIP3   OH274937   1.027   6.036  14.296 -0.3913 -0.1109  0.3690
17841TIP3    H174938   1.083   6.050  14.219  0.5003 -0.1885  1.0040
17841TIP3    H274939   0.938   6.037  14.260 -0.1476  2.5685 -0.3126
17842TIP3   OH274940   5.487   5.245   1.906 -0.2445 -0.0659 -0.2646
17842TIP3    H174941   5.490   5.226   2.000 -0.9362 -2.1061 -0.6498
17842TIP3    H274942   5.563   5.200   1.869  2.0849  3.6268 -0.2240
17843TIP3   OH274943   4.875   0.369  11.476  0.0912  0.7648  0.1867
17843TIP3    H174944   4.826   0.374  11.558  0.5148 -0.6676  0.5408
17843TIP3    H274945   4.808   0.381  11.408 -0.3442  1.3910  0.7187
17844TIP3   OH274946   2.571   4.354   6.687 -0.5800 -0.5003 -0.5796
17844TIP3    H174947   2.490   4.322   6.648 -0.4333 -1.3318 -0.2056
17844TIP3    H274948   2.547   4.436   6.729 -0.7946  0.2911 -2.1963
17845TIP3   OH274949   5.900   6.556   3.868  0.4311 -0.1405 -0.1455
17845TIP3    H174950   5.919   6.647   3.842  2.0559 -0.9778 -2.0626
17845TIP3    H274951   5.859   6.517   3.791 -0.8829 -0.8734  0.9076
17846TIP3   OH274952   5.539   5.856   1.166  0.1088  0.3841 -0.5897
17846TIP3    H174953   5.592   5.913   1.110  0.4742  1.2994  0.6493
17846TIP3    H274954   5.604   5.800   1.211  0.1634  2.1922  1.6916
17847TIP3   OH274955   0.877   6.166  13.535 -0.0321  0.8183 -0.5790
17847TIP3    H174956   0.836   6.203  13.614 -0.1951 -0.8926  0.1607
17847TIP3    H274957   0.819   6.094  13.509  1.8888 -0.9157 -0.1666
17848TIP3   OH274958   4.983   5.294   3.730  0.1367  0.6033  0.0992
17848TIP3    H174959   4.971   5.200   3.743 -0.5104  0.3910 -1.8205
17848TIP3    H274960   5.077   5.305   3.717  0.2520  0.2648  0.6528
17849TIP3   OH274961   0.711   5.027   5.852  0.1210 -0.1223 -0.9321
17849TIP3    H174962   0.756   4.944   5.866  0.2220  0.3370  1.7113
17849TIP3    H274963   0.777   5.094   5.873 -1.1065  0.5666  0.8307
17850TIP3   OH274964   4.139   0.764   2.498 -0.0299 -0.0631 -0.9481
17850TIP3    H174965   4.049   0.755   2.531  0.0166  0.0243 -0.7925
17850TIP3    H274966   4.141   0.851   2.458  0.5056  0.7374  0.7483
17851TIP3   OH274967   3.200   4.772  11.964  0.2136  0.2310 -0.2187
17851TIP3    H174968   3.146   4.695  11.976  0.3565  0.2441  0.5495
17851TIP3    H274969   3.286   4.746  11.997  0.1056  0.9091  0.6123
17852TIP3   OH274970   6.253   3.041  13.702  0.5270  0.0190  0.5251
17852TIP3    H174971   6.236   2.995  13.784 -0.5357 -0.6837 -0.0724
17852TIP3    H274972   6.245   3.133  13.723  2.0467 -0.0773  1.6040
17853TIP3   OH274973   3.964   2.539  12.368 -0.1137 -0.0575  0.5316
17853TIP3    H174974   3.909   2.469  12.403  0.6401 -0.6798  0.4806
17853TIP3    H274975   3.902   2.608  12.344 -0.8203 -0.5080  1.0314
17854TIP3   OH274976   2.590   6.073  12.517 -0.0693 -0.5799  0.5399
17854TIP3    H174977   2.650   6.102  12.586 -0.5050 -0.2488  0.7833
17854TIP3    H274978   2.628   6.106  12.436  0.5545 -1.1410  0.5945
17855TIP3   OH274979   2.756   2.955  14.231 -0.2550 -0.9860 -0.8587
17855TIP3    H174980   2.775   2.861  14.232  3.4256 -0.3859 -3.9016
17855TIP3    H274981   2.825   2.993  14.286 -0.1010  0.1846 -1.8653
17856TIP3   OH274982   4.663   6.683   6.454  0.0062 -0.0059 -0.0710
17856TIP3    H174983   4.651   6.610   6.393 -1.4131  0.2401 -0.0951
17856TIP3    H274984   4.582   6.684   6.505  1.1684 -0.2294  1.8371
17857TIP3   OH274985   2.130   1.704   2.156 -0.1278 -0.2320 -0.2578
17857TIP3    H174986   2.176   1.778   2.196 -1.3491 -0.7962  2.2795
17857TIP3    H274987   2.177   1.627   2.188 -0.1501 -0.6653 -1.2314
17858TIP3   OH274988   6.374   0.158   0.533 -0.4143  0.2600  0.0364
17858TIP3    H174989   6.328   0.214   0.471  0.1754 -0.7138 -1.2876
17858TIP3    H274990   6.406   0.084   0.481 -2.1022 -1.8864  1.9528
17859TIP3   OH274991   1.930   5.602   0.671  0.2116  0.0713  0.3171
17859TIP3    H174992   1.903   5.672   0.730 -1.1960 -0.2222  0.0364
17859TIP3    H274993   1.848   5.561   0.642  0.9897 -1.4012  0.1200
17860TIP3   OH274994   5.265   0.017  14.619 -0.0806  0.3214  0.4747
17860TIP3    H174995   5.211   0.020  14.540  2.0408  1.0371 -0.9737
17860TIP3    H274996   5.275   0.108  14.646  0.1027  0.1641  0.9501
17861TIP3   OH274997   1.638   4.565  11.135  0.0504 -0.3847 -0.0345
17861TIP3    H174998   1.658   4.622  11.060  1.2370 -0.5982  0.1028
17861TIP3    H274999   1.592   4.621  11.197  0.4810  0.2122 -0.2489
17862TIP3   OH275000   1.162   0.665  17.080 -0.2547 -0.6149 -0.3197
17862TIP3    H175001   1.213   0.740  17.049 -1.2859  0.2695  0.0865
17862TIP3    H275002   1.080   0.671  17.032 -0.4311 -1.3515 -0.1096
17863TIP3   OH275003   4.647   6.253   0.443 -0.8539  0.1217  0.3941
17863TIP3    H175004   4.574   6.198   0.415 -2.6493  2.8432 -0.4987
17863TIP3    H275005   4.671   6.303   0.365  1.4216 -0.1044  0.9047
17864TIP3   OH275006   0.798   6.455  11.924  0.1167 -0.5076 -0.6627
17864TIP3    H175007   0.817   6.547  11.909 -3.1520  0.2933 -0.3168
17864TIP3    H275008   0.734   6.432  11.856  0.7050 -2.4352 -0.5842
17865TIP3   OH275009   3.104   4.850   0.421 -0.7186  0.1541  0.2537
17865TIP3    H175010   3.037   4.822   0.484 -0.1637  1.6796  1.5354
17865TIP3    H275011   3.138   4.932   0.456  1.3978 -0.2724 -0.7123
17866TIP3   OH275012   1.073   6.524  14.319 -0.1647  0.1825 -0.2193
17866TIP3    H175013   1.124   6.444  14.330 -2.1453 -1.1524 -0.3372
17866TIP3    H275014   1.084   6.547  14.227  1.6090  0.8943  0.1647
17867TIP3   OH275015   6.601   5.844  11.725  0.2815  0.1904 -0.7939
17867TIP3    H175016   6.525   5.811  11.677 -0.6419  0.5809  0.3689
17867TIP3    H275017   6.568   5.860  11.813  1.8463 -0.1210 -0.1408
17868TIP3   OH275018   6.715   5.798  16.454  0.1667 -0.0028 -0.0186
17868TIP3    H175019   6.763   5.845  16.386  0.8736 -0.9762 -0.2069
17868TIP3    H275020   6.783   5.772  16.517 -0.2861 -0.3707  0.3204
17869TIP3   OH275021   5.096   3.430   0.762 -0.5796 -0.0711 -0.7374
17869TIP3    H175022   5.147   3.365   0.713 -0.2769  0.0633 -0.6012
17869TIP3    H275023   5.152   3.452   0.837 -0.9924 -0.1884 -0.3978
17870TIP3   OH275024   3.931   0.848  13.329  0.0111 -0.1779 -0.2557
17870TIP3    H175025   3.901   0.918  13.271 -1.1452  1.7252  2.5466
17870TIP3    H275026   4.026   0.856  13.330  0.0065  0.1055 -1.4454
17871TIP3   OH275027   4.183   3.415  15.850 -0.0040  0.4366  0.3074
17871TIP3    H175028   4.162   3.451  15.937  0.1644 -0.3442  0.6805
17871TIP3    H275029   4.098   3.392  15.813 -0.0337  0.2481  0.4952
17872TIP3   OH275030   2.950   2.523  16.013  0.2379  0.0725  0.1746
17872TIP3    H175031   2.860   2.515  15.981 -0.0837  0.1855  1.0378
17872TIP3    H275032   2.952   2.606  16.060  1.1626  0.7242 -0.9911
17873TIP3   OH275033   2.705   2.329   0.317  0.3098 -0.1180  0.1372
17873TIP3    H175034   2.687   2.359   0.229  0.3476 -0.1893  0.1048
17873TIP3    H275035   2.712   2.234   0.309  1.9145  0.0107 -0.0572
17874TIP3   OH275036   0.466   2.148   5.635  0.1033  0.2152  0.0210
17874TIP3    H175037   0.426   2.129   5.721 -1.0586  0.2694 -0.5002
17874TIP3    H275038   0.392   2.169   5.579  0.8640  0.1147 -1.0202
17875TIP3   OH275039   6.704   3.636   2.341 -1.1342  0.3771 -0.7864
17875TIP3    H175040   6.637   3.579   2.380 -0.3227  0.8742  1.3755
17875TIP3    H275041   6.657   3.716   2.318 -1.5137  0.2674 -0.3942
17876TIP3   OH275042   1.882   4.867   1.090  0.1682 -0.1320 -0.8387
17876TIP3    H175043   1.814   4.800   1.083 -0.2105  0.3156 -1.4782
17876TIP3    H275044   1.867   4.906   1.176  0.6120 -1.1027 -0.3142
17877TIP3   OH275045   6.114   3.760  12.788  0.5392  0.2927  0.2149
17877TIP3    H175046   6.100   3.807  12.706  1.7445  1.2087  0.5173
17877TIP3    H275047   6.115   3.828  12.855 -3.9604 -0.7283  1.4889
17878TIP3   OH275048   4.014   5.916  11.033  0.0216 -0.9193  0.2793
17878TIP3    H175049   4.080   5.855  11.066  0.8715  0.8724  1.9603
17878TIP3    H275050   3.936   5.899  11.085 -0.5139 -2.1932 -0.8871
17879TIP3   OH275051   5.239   0.895   2.503 -0.1083 -0.2443 -0.0637
17879TIP3    H175052   5.303   0.824   2.504 -0.8919 -1.0898 -3.9599
17879TIP3    H275053   5.272   0.957   2.569  3.6466 -1.5566 -0.5712
17880TIP3   OH275054   0.784   0.448  14.647 -0.0879  0.1544 -0.5515
17880TIP3    H175055   0.697   0.410  14.654  0.3527 -1.1254 -1.5828
17880TIP3    H275056   0.788   0.483  14.558  0.0354  1.2783 -0.1045
17881TIP3   OH275057   2.392   3.014   0.426  0.0133 -0.3625  0.4187
17881TIP3    H175058   2.367   3.026   0.334  0.9949 -0.8276  0.0890
17881TIP3    H275059   2.356   2.928   0.449 -0.8227  0.0458  0.6824
17882TIP3   OH275060   1.473   3.118   2.009  0.1771  0.4968 -0.7093
17882TIP3    H175061   1.379   3.131   2.020  0.2767 -0.2415  1.2402
17882TIP3    H275062   1.482   3.025   1.991  0.6200  0.2902  0.5046
17883TIP3   OH275063   1.558   4.870   0.269 -0.0004  0.1276  0.1888
17883TIP3    H175064   1.511   4.822   0.201  0.1410  1.4759 -0.9002
17883TIP3    H275065   1.648   4.875   0.238  0.4286 -0.6807  1.2839
17884TIP3   OH275066   3.843   0.775   5.714 -0.4128 -0.2788  0.1020
17884TIP3    H175067   3.839   0.743   5.804 -2.0661 -0.7643 -0.1235
17884TIP3    H275068   3.777   0.845   5.711 -1.6353 -1.4514 -1.1721
17885TIP3   OH275069   4.667   2.091  11.817  0.2029  0.2291 -0.1923
17885TIP3    H175070   4.676   2.170  11.870  0.7000 -0.7802  1.2635
17885TIP3    H275071   4.756   2.057  11.810 -0.1664 -0.8148  0.1546
17886TIP3   OH275072   3.923   0.211  14.032  0.6086  0.4268 -0.3030
17886TIP3    H175073   3.947   0.275  13.966  0.7376 -1.4987 -2.1583
17886TIP3    H275074   3.989   0.220  14.100  0.5736  2.3054 -0.5098
17887TIP3   OH275075   3.165   4.223  11.993 -0.5236 -0.0241 -0.0791
17887TIP3    H175076   3.252   4.262  12.005  0.1462 -2.1970  2.4835
17887TIP3    H275077   3.132   4.262  11.912  3.6245 -0.6041 -2.1406
17888TIP3   OH275078   4.681   3.506   1.671  0.2918 -0.1782 -0.6661
17888TIP3    H175079   4.604   3.562   1.684  1.3505  0.5847  2.7290
17888TIP3    H275080   4.713   3.530   1.584 -2.7231  0.1827 -1.7515
17889TIP3   OH275081   4.549   1.244   3.379 -0.1440  0.4281  0.1824
17889TIP3    H175082   4.540   1.158   3.419  1.6278  1.0616  2.0150
17889TIP3    H275083   4.551   1.226   3.285 -5.1429 -0.9932  0.2326
17890TIP3   OH275084   3.025   6.535  13.844  0.6066  0.0576 -0.4767
17890TIP3    H175085   3.008   6.599  13.775  0.6431  0.0249 -0.5165
17890TIP3    H275086   3.114   6.553  13.873  0.3584  0.4990  0.0189
17891TIP3   OH275087   4.696   1.744  13.972  0.5658 -0.1138  0.1442
17891TIP3    H175088   4.743   1.787  14.044 -1.5481 -0.5036  1.8177
17891TIP3    H275089   4.723   1.653  13.977  0.6036 -0.0955  0.2736
17892TIP3   OH275090   1.781   3.387  11.669 -0.0863 -0.6607 -0.2808
17892TIP3    H175091   1.808   3.478  11.666  0.7988 -0.9160 -0.1754
17892TIP3    H275092   1.804   3.352  11.582 -1.2249 -0.5651 -0.6342
17893TIP3   OH275093   0.042   1.894  12.049 -0.4019 -0.9375 -0.0312
17893TIP3    H175094   0.023   1.963  12.113  1.7346 -0.4044  0.0642
17893TIP3    H275095  -0.031   1.833  12.057 -2.3880  1.3617 -0.2060
17894TIP3   OH275096   4.377   0.103  10.507 -0.2641  0.5437 -0.0198
17894TIP3    H175097   4.381   0.144  10.593  1.8908 -1.9814  1.1645
17894TIP3    H275098   4.429   0.159  10.451 -1.1964  1.8931  0.4219
17895TIP3   OH275099   1.329   1.775   6.230  0.1206 -0.0013  0.1713
17895TIP3    H175100   1.379   1.753   6.309 -1.6955 -0.2894  1.2557
17895TIP3    H275101   1.377   1.848   6.191  0.2099  1.1387  2.3593
17896TIP3   OH275102   5.627   6.047   2.131  0.0356 -0.0736  0.2406
17896TIP3    H175103   5.612   6.124   2.077 -0.1078  1.5621  2.5613
17896TIP3    H275104   5.722   6.043   2.143 -0.0641  0.5819  1.2991
17897TIP3   OH275105   2.579   0.419  16.089  0.0945  0.5292  0.0141
17897TIP3    H175106   2.593   0.377  16.174 -0.2040  2.5026  1.0564
17897TIP3    H275107   2.501   0.375  16.054  0.1624 -0.2303  0.7968
17898TIP3   OH275108   3.752   2.517  13.868  0.2655 -0.1439 -0.2159
17898TIP3    H175109   3.844   2.497  13.883  0.1659  0.5539  1.4594
17898TIP3    H275110   3.705   2.442  13.905  0.1836 -0.8669 -1.7741
17899TIP3   OH275111   2.355   1.037   5.486 -0.4225 -0.5985  0.0966
17899TIP3    H175112   2.274   0.995   5.456 -0.4766 -0.6497  0.3159
17899TIP3    H275113   2.421   1.011   5.421 -0.6140 -0.4303 -0.1712
17900TIP3   OH275114   0.994   6.293  13.944 -0.0133  0.1966 -0.3287
17900TIP3    H175115   1.009   6.370  14.000  0.6457 -1.0604  1.2808
17900TIP3    H275116   1.026   6.219  13.996 -2.9405 -1.4891 -0.7891
17901TIP3   OH275117   0.651   0.448  12.243 -0.3423 -0.7311  0.3250
17901TIP3    H175118   0.734   0.495  12.251 -1.8618  2.3242 -0.8600
17901TIP3    H275119   0.672   0.371  12.190  1.8994 -0.4945  0.8124
17902TIP3   OH275120   1.709   1.404   2.752  0.0240 -0.1161  0.3647
17902TIP3    H175121   1.716   1.458   2.830  0.6014  0.5154 -0.1208
17902TIP3    H275122   1.616   1.404   2.731 -0.3031 -1.2404  1.7179
17903TIP3   OH275123   3.618   3.600   0.595  0.0866 -0.1760  0.1003
17903TIP3    H175124   3.670   3.583   0.674  0.2703 -2.0537 -0.4057
17903TIP3    H275125   3.610   3.515   0.553 -1.6329  0.4727 -0.9355
17904TIP3   OH275126   1.174   5.928  11.890  0.6758 -0.2838  0.6286
17904TIP3    H175127   1.096   5.881  11.919 -2.1792  2.7962 -1.4985
17904TIP3    H275128   1.187   5.899  11.800  0.7109  0.6652  0.3135
17905TIP3   OH275129   4.701   6.267  16.870 -0.0276  0.4222 -0.0983
17905TIP3    H175130   4.628   6.327  16.853  0.1703  0.4495 -0.8741
17905TIP3    H275131   4.724   6.232  16.784  0.7248  0.2330  0.1728
17906TIP3   OH275132   4.950   6.069   0.256 -0.4614 -0.1358  0.3818
17906TIP3    H175133   4.945   6.149   0.204 -2.7531 -0.2998  0.2689
17906TIP3    H275134   4.862   6.031   0.250  0.3991 -2.3071  0.9962
17907TIP3   OH275135   3.160   2.288  11.103  0.4518  0.6525 -0.5883
17907TIP3    H175136   3.179   2.251  11.189  2.1361  0.6561 -0.9433
17907TIP3    H275137   3.111   2.368  11.122  0.9217  0.7203  0.3741
17908TIP3   OH275138   5.803   4.241   0.300 -1.1234  0.6520 -0.4664
17908TIP3    H175139   5.841   4.327   0.316  1.1438 -0.0683 -1.6047
17908TIP3    H275140   5.811   4.229   0.205  0.3634 -1.5563 -0.1124
17909TIP3   OH275141   4.265   3.118  15.285 -0.3149  0.2052  0.2309
17909TIP3    H175142   4.295   3.043  15.337  0.8596  0.9005  0.5855
17909TIP3    H275143   4.178   3.137  15.318  0.4433  0.6900  2.0401
17910TIP3   OH275144   5.285   3.915  16.034 -0.2318  0.3910 -0.3381
17910TIP3    H175145   5.326   4.002  16.026  0.9482 -0.3205 -2.3650
17910TIP3    H275146   5.236   3.904  15.953 -1.2584 -0.4024  0.3799
17911TIP3   OH275147   0.653   5.062   1.216  0.3900  0.6968 -0.1380
17911TIP3    H175148   0.715   5.134   1.203  0.4697  0.6194 -0.1810
17911TIP3    H275149   0.685   4.992   1.160  0.4903  0.5162  0.1449
17912TIP3   OH275150   4.552   2.195  15.033  0.7722 -0.0870 -0.1882
17912TIP3    H175151   4.573   2.202  14.940 -0.0435  2.2796 -0.2125
17912TIP3    H275152   4.635   2.214  15.077  0.6615  0.9091 -0.4041
17913TIP3   OH275153   4.164   2.341   4.730 -0.1287  0.6685  0.3280
17913TIP3    H175154   4.209   2.357   4.813 -1.8256 -0.1760  1.4549
17913TIP3    H275155   4.146   2.247   4.730  0.4488  0.5391 -1.3285
17914TIP3   OH275156   5.762   5.881  16.092 -0.0581 -0.1162  0.4955
17914TIP3    H175157   5.806   5.878  16.177 -1.9175  0.6437  1.5195
17914TIP3    H275158   5.672   5.904  16.113 -0.4565  0.4575 -1.7360
17915TIP3   OH275159   4.924   1.614   5.064  0.2595  0.5698  0.4414
17915TIP3    H175160   4.901   1.649   5.150 -0.4901 -0.5968  0.7274
17915TIP3    H275161   5.004   1.662   5.040  0.8749  0.4271  2.0946
17916TIP3   OH275162   0.782   2.014   0.339  0.2397 -0.0800  0.1708
17916TIP3    H175163   0.777   1.998   0.245 -0.5973  1.0577  0.0079
17916TIP3    H275164   0.725   1.948   0.378 -1.4224  1.0213 -0.3225
17917TIP3   OH275165   6.178   4.363   1.032  0.2171  0.6389 -0.1744
17917TIP3    H175166   6.228   4.442   1.010 -1.3890  1.8337  0.3193
17917TIP3    H275167   6.181   4.310   0.953 -0.5387  2.2280 -1.3056
17918TIP3   OH275168   4.214   1.912   5.238  0.9143 -0.2517  0.0240
17918TIP3    H175169   4.126   1.935   5.207  0.0405 -2.3237  0.8646
17918TIP3    H275170   4.211   1.930   5.332  2.1267  1.7773 -0.3024
17919TIP3   OH275171   0.873   5.672  16.366  0.0852 -0.5031 -0.4055
17919TIP3    H175172   0.921   5.591  16.381  1.6612  0.4978  0.0119
17919TIP3    H275173   0.843   5.666  16.275  0.8138 -1.2357 -0.5999
17920TIP3   OH275174   5.322   2.714  10.984 -0.1596  0.3841  0.4045
17920TIP3    H175175   5.326   2.620  11.003  0.6329  0.2442 -0.4328
17920TIP3    H275176   5.268   2.720  10.905  0.3824  0.5542  0.0361
17921TIP3   OH275177   1.598   4.266  13.415 -0.0609 -0.0883  0.5380
17921TIP3    H175178   1.544   4.242  13.491 -2.4031 -0.9518 -1.3594
17921TIP3    H275179   1.542   4.324  13.363  1.3041  0.0149 -0.8467
17922TIP3   OH275180   2.847   0.569  16.192  0.6769  0.0477  0.1297
17922TIP3    H175181   2.893   0.583  16.110  0.2114 -1.0641 -0.3312
17922TIP3    H275182   2.783   0.640  16.197 -2.9267 -2.7293 -3.0481
17923TIP3   OH275183   3.969   0.749  13.598  0.5389 -0.3732 -0.8211
17923TIP3    H175184   3.939   0.826  13.647 -0.2480 -1.0381 -0.2449
17923TIP3    H275185   3.920   0.751  13.516 -0.2066 -0.7971 -0.3901
17924TIP3   OH275186   0.248   4.942  15.609 -0.1979  0.4226 -0.2980
17924TIP3    H175187   0.163   4.920  15.571  1.3177 -1.2868 -2.8341
17924TIP3    H275188   0.259   4.879  15.680 -0.6288  0.0225 -0.5804
17925TIP3   OH275189   4.009   2.452  13.960  0.2410 -0.0352  0.2212
17925TIP3    H175190   4.047   2.454  13.872 -0.0190  1.6744  0.1429
17925TIP3    H275191   4.029   2.538  13.997 -0.6786 -0.3211  1.3982
17926TIP3   OH275192   6.080   1.407   1.472 -0.3397  0.2457  0.1229
17926TIP3    H175193   6.121   1.446   1.395 -1.2584 -2.1751 -1.6345
17926TIP3    H275194   6.143   1.340   1.501  0.5891  1.9846  2.2856
17927TIP3   OH275195   3.321   2.657  16.760 -0.6765  0.4039  0.0120
17927TIP3    H175196   3.335   2.680  16.668  1.5621 -0.5108  0.0897
17927TIP3    H275197   3.380   2.715  16.808 -2.0220  1.0516  0.9039
17928TIP3   OH275198   0.819   1.277   5.729 -0.0348 -0.9886  0.2366
17928TIP3    H175199   0.914   1.284   5.722 -0.2188  0.1058 -1.3034
17928TIP3    H275200   0.801   1.296   5.822  0.9706  2.4678 -0.1811
17929TIP3   OH275201   2.093   5.680  16.697  0.3878 -0.5786  0.5018
17929TIP3    H175202   2.064   5.682  16.788 -0.1645 -0.1580  0.3093
17929TIP3    H275203   2.056   5.599  16.662 -1.5055  0.5229 -0.0634
17930TIP3   OH275204   2.696   6.293  14.269  0.0448  0.1929  0.4007
17930TIP3    H175205   2.733   6.364  14.218  0.7814  0.3127  1.0954
17930TIP3    H275206   2.661   6.232  14.204  1.6238 -0.0123 -0.2773
17931TIP3   OH275207   6.017   0.618  12.392 -0.5113  0.2158 -0.3464
17931TIP3    H175208   6.026   0.580  12.304 -2.2334  0.7389 -0.7708
17931TIP3    H275209   5.958   0.693  12.379 -0.6376  0.3970  1.2345
17932TIP3   OH275210   4.604   1.417   0.010 -0.3807  0.2124  0.5428
17932TIP3    H175211   4.653   1.437  -0.069 -1.0955 -0.1549  0.0039
17932TIP3    H275212   4.640   1.476   0.076 -0.3189  1.0675 -0.2492
17933TIP3   OH275213   1.126   2.756  10.971 -0.0960 -0.4357  0.1330
17933TIP3    H175214   1.100   2.843  11.001  1.5392  0.7819 -1.8587
17933TIP3    H275215   1.168   2.716  11.047  0.6369  1.1543  0.5934
17934TIP3   OH275216   5.049   6.691   2.606  0.3457  0.1421  0.4081
17934TIP3    H175217   5.025   6.783   2.597  0.7240  0.1969 -0.0315
17934TIP3    H275218   5.143   6.688   2.589  0.2672 -0.3834  0.0466
17935TIP3   OH275219   3.200   0.136   3.205  0.3352 -0.4337 -0.0227
17935TIP3    H175220   3.252   0.094   3.273  0.5203 -0.2095 -0.0239
17935TIP3    H275221   3.165   0.064   3.152  1.6623 -0.5433 -0.7780
17936TIP3   OH275222   0.760   4.095  14.217  0.0944 -0.6884 -0.2760
17936TIP3    H175223   0.744   4.184  14.248  0.6074 -0.9377  0.7207
17936TIP3    H275224   0.771   4.104  14.122 -0.0798  0.2750 -0.2113
17937TIP3   OH275225   4.249   5.059  11.183  1.0032  0.3740 -0.4933
17937TIP3    H175226   4.273   5.009  11.105 -1.8054 -0.0689 -1.1090
17937TIP3    H275227   4.162   5.092  11.165  0.2689  0.2165  2.4737
17938TIP3   OH275228   4.445   4.578   1.350 -0.1259  0.6868  0.6535
17938TIP3    H175229   4.538   4.599   1.358 -0.1635  2.1520 -2.1213
17938TIP3    H275230   4.429   4.578   1.256 -2.4199 -1.9857  0.9915
17939TIP3   OH275231   6.413   1.216  14.212 -0.4553 -0.1122  0.0937
17939TIP3    H175232   6.503   1.192  14.232 -0.6244 -0.9554 -0.1496
17939TIP3    H275233   6.416   1.311  14.199  0.7759 -0.4073 -1.9551
17940TIP3   OH275234   0.547   6.012   1.661  0.0586 -0.1794 -0.0867
17940TIP3    H175235   0.609   5.942   1.678 -0.6348 -0.7299  0.1612
17940TIP3    H275236   0.512   6.036   1.747 -3.0583 -2.6153 -0.5891
17941TIP3   OH275237   1.532   1.938  12.204 -0.0420 -0.2853  0.1280
17941TIP3    H175238   1.536   1.928  12.299  0.2447  1.6465  0.3353
17941TIP3    H275239   1.563   1.854  12.169  2.1233 -0.1853  1.7395
17942TIP3   OH275240   6.097   0.793  16.631 -0.1005 -0.4285 -0.1318
17942TIP3    H175241   6.029   0.824  16.572  1.4321  0.4452 -1.4770
17942TIP3    H275242   6.088   0.697  16.629 -2.1167 -0.2745  0.7457
17943TIP3   OH275243   0.772   6.481  14.250 -0.5309 -0.1165 -0.0128
17943TIP3    H175244   0.690   6.525  14.271 -0.2833  1.3026 -1.8835
17943TIP3    H275245   0.839   6.549  14.255  0.5263 -1.2202  1.3222
17944TIP3   OH275246   2.553   2.579   2.702  0.7817  0.3394  0.1939
17944TIP3    H175247   2.594   2.496   2.727  2.2463  1.5898  2.1012
17944TIP3    H275248   2.556   2.633   2.782  2.8024  3.3795 -1.8111
17945TIP3   OH275249   1.846   1.576   4.174 -0.2114 -0.2997  0.2141
17945TIP3    H175250   1.940   1.595   4.167 -0.2384 -0.4585 -0.6535
17945TIP3    H275251   1.823   1.600   4.263  0.5350  0.2882  0.2518
17946TIP3   OH275252   4.567   1.973   0.731 -0.5995  0.0750 -0.2687
17946TIP3    H175253   4.522   2.051   0.701 -0.2590  0.2118 -0.4326
17946TIP3    H275254   4.546   1.967   0.824 -0.4509  0.4872 -0.2065
17947TIP3   OH275255   5.131   4.047   0.518 -0.1983 -0.4489  0.2051
17947TIP3    H175256   5.209   4.102   0.514 -0.2287 -0.4563 -0.4707
17947TIP3    H275257   5.161   3.966   0.560 -0.5063  0.6669  2.7214
17948TIP3   OH275258   3.102   2.188   5.325  0.1945 -0.2899  1.1753
17948TIP3    H175259   3.182   2.191   5.377 -0.6606 -0.7675  2.5481
17948TIP3    H275260   3.095   2.097   5.297 -0.0017 -0.3093  1.2828
17949TIP3   OH275261   3.195   6.595  12.554 -0.4040 -0.4273 -0.2693
17949TIP3    H175262   3.110   6.553  12.539  0.3938 -1.4426 -2.0682
17949TIP3    H275263   3.239   6.592  12.469  1.4597  0.0490  0.6513
17950TIP3   OH275264   6.246   6.058   5.761  0.2654  0.1473 -0.2891
17950TIP3    H175265   6.274   6.058   5.853 -0.0662 -1.0257 -0.1828
17950TIP3    H275266   6.295   6.130   5.721 -0.7888  1.7242  1.1586
17951TIP3   OH275267   5.404   4.348  14.167 -0.1766  0.5639  0.2106
17951TIP3    H175268   5.454   4.279  14.210 -2.1377 -0.7254  0.4807
17951TIP3    H275269   5.347   4.302  14.105  1.2744  2.2299 -2.5045
17952TIP3   OH275270   1.303   0.023  11.636 -0.1200 -0.7947  0.1763
17952TIP3    H175271   1.359   0.040  11.561 -1.9588 -1.5598 -1.4061
17952TIP3    H275272   1.349  -0.044  11.686  0.6272 -1.0378 -0.8214
17953TIP3   OH275273   0.690   1.934  10.539  0.5108 -0.3075  0.4276
17953TIP3    H175274   0.776   1.892  10.532  0.1993 -1.1781  1.6762
17953TIP3    H275275   0.628   1.861  10.541 -0.3958  0.3436 -1.9924
17954TIP3   OH275276   0.439   3.927  14.697  0.0691  0.7900  0.6633
17954TIP3    H175277   0.426   3.898  14.787 -0.4201  0.9082  0.6375
17954TIP3    H275278   0.472   3.850  14.651 -0.4479  0.4969  0.7729
17955TIP3   OH275279   3.014   3.401   0.396  0.1607 -0.3673  0.1681
17955TIP3    H175280   3.082   3.346   0.357 -1.0114 -2.3652  0.8578
17955TIP3    H275281   2.937   3.386   0.342 -0.6698 -0.8670  1.4629
17956TIP3   OH275282   0.459   6.224   2.435  0.3046  0.2886 -0.1999
17956TIP3    H175283   0.384   6.171   2.408  0.5569 -0.6186  0.8651
17956TIP3    H275284   0.421   6.292   2.490  0.3851 -0.8233  1.2442
17957TIP3   OH275285   4.923   2.652   3.007 -0.0272  0.5669  0.0044
17957TIP3    H175286   4.885   2.732   2.970  0.3188  0.3631 -0.7898
17957TIP3    H275287   5.008   2.681   3.042 -0.5221  0.8407  1.0067
17958TIP3   OH275288   4.436   5.429  12.631  0.4476  0.7489  0.0957
17958TIP3    H175289   4.361   5.382  12.667  0.3670  1.3768  0.7599
17958TIP3    H275290   4.430   5.416  12.536 -1.1335  1.7217  0.0488
17959TIP3   OH275291   3.754   5.539   0.199  0.1394  0.2958  0.2536
17959TIP3    H175292   3.764   5.510   0.289 -0.6086  0.7686  0.4816
17959TIP3    H275293   3.694   5.613   0.203 -0.4007 -0.0803 -0.6982
17960TIP3   OH275294   4.070   6.030   4.836  0.1360 -0.0487 -0.0818
17960TIP3    H175295   4.098   5.939   4.850 -1.2062 -0.1819  1.8537
17960TIP3    H275296   4.024   6.028   4.752 -0.6497 -1.3451  0.3633
17961TIP3   OH275297   0.782   6.321   2.695 -0.4425 -0.0205 -0.4433
17961TIP3    H175298   0.859   6.265   2.685 -0.9430 -0.9063  0.6429
17961TIP3    H275299   0.708   6.267   2.666 -0.8775  0.1973  0.2384
17962TIP3   OH275300   6.077   6.092  15.599 -0.2119  0.2204  0.5273
17962TIP3    H175301   6.148   6.080  15.536 -1.5581 -0.2234 -0.9155
17962TIP3    H275302   6.096   6.177  15.640  0.5656  0.6022 -0.5973
17963TIP3   OH275303   1.793   0.074   0.592 -0.4660  0.3209  0.2937
17963TIP3    H175304   1.800   0.106   0.682 -0.0582  0.6070  0.1612
17963TIP3    H275305   1.752  -0.012   0.600 -2.5566  1.3024  0.5741
17964TIP3   OH275306   4.776   5.517   5.028  0.1516  0.0871 -0.4270
17964TIP3    H175307   4.687   5.552   5.036 -0.1422 -0.5413 -0.8998
17964TIP3    H275308   4.807   5.511   5.118 -0.3615  0.1266 -0.2423
17965TIP3   OH275309   3.636   1.969   1.905  0.3408  0.5865  0.9738
17965TIP3    H175310   3.705   2.033   1.887  0.5506  0.2975  0.7483
17965TIP3    H275311   3.558   2.006   1.866  1.1757 -0.9372 -2.3039
17966TIP3   OH275312   1.941   2.195  11.644  0.0150 -0.5550  0.0473
17966TIP3    H175313   1.882   2.182  11.569 -0.4678 -0.5024  0.4173
17966TIP3    H275314   1.889   2.246  11.706  0.7977  0.3513 -0.0479
17967TIP3   OH275315   5.114   4.312  15.751 -0.3202  0.2768  0.6846
17967TIP3    H175316   5.132   4.397  15.711 -0.3300 -0.4973 -0.9889
17967TIP3    H275317   5.194   4.261  15.735 -0.1055  0.1250  2.1469
17968TIP3   OH275318   3.221   3.767  11.816 -0.0745 -0.0728  0.2837
17968TIP3    H175319   3.259   3.685  11.782  1.0017 -0.3881  2.1517
17968TIP3    H275320   3.179   3.741  11.898 -2.6099  0.6686 -0.7339
17969TIP3   OH275321   4.143   3.926   3.854 -0.4635 -0.5276  0.5126
17969TIP3    H175322   4.180   3.960   3.936 -0.5725  1.0550 -0.0961
17969TIP3    H275323   4.061   3.884   3.881 -0.1925 -0.5630  1.3035
17970TIP3   OH275324   2.974   2.856   3.624  0.2064 -0.1554 -0.2514
17970TIP3    H175325   3.006   2.864   3.534 -1.2002  1.1063 -0.6527
17970TIP3    H275326   2.959   2.762   3.636  0.5913 -0.3483 -1.2703
17971TIP3   OH275327   3.235   2.470   6.619 -0.6680 -1.0429 -0.7172
17971TIP3    H175328   3.312   2.491   6.672 -2.5784  2.0721  1.0196
17971TIP3    H275329   3.265   2.477   6.528  0.5166  2.9347 -0.1292
17972TIP3   OH275330   1.797   5.063  16.305  0.5879 -0.3262 -0.4016
17972TIP3    H175331   1.733   5.016  16.358  0.5660 -1.5871 -1.5048
17972TIP3    H275332   1.749   5.137  16.269  0.2498 -0.2271  0.2464
17973TIP3   OH275333   5.984   0.681   1.488 -0.7055  0.0112  0.2930
17973TIP3    H175334   5.929   0.611   1.452  1.1199 -0.9089 -0.8051
17973TIP3    H275335   6.006   0.735   1.412 -0.0662  0.3380  0.7089
17974TIP3   OH275336   0.989   2.398   0.353  0.6300  0.2456 -0.0389
17974TIP3    H175337   0.896   2.380   0.337 -0.0241  2.0014  1.5621
17974TIP3    H275338   1.025   2.421   0.267 -0.7951  1.0711 -0.4314
17975TIP3   OH275339   6.029   5.503   2.341  0.0518  0.2616 -0.2192
17975TIP3    H175340   6.068   5.524   2.426  1.5331  0.2112 -0.8632
17975TIP3    H275341   5.938   5.529   2.349  0.6323  2.0707  0.7412
17976TIP3   OH275342   4.731   5.583  11.430 -0.2026 -0.9785 -0.1388
17976TIP3    H175343   4.827   5.589  11.433 -0.2226 -0.6176 -0.2436
17976TIP3    H275344   4.711   5.560  11.340 -0.2837  0.1839 -0.4243
17977TIP3   OH275345   3.961   2.829  11.048 -1.3719 -0.6791 -0.0499
17977TIP3    H175346   4.017   2.875  11.110 -1.3327 -1.3311  0.3953
17977TIP3    H275347   3.913   2.899  11.002  0.6241 -0.0496 -1.2367
17978TIP3   OH275348   2.449   1.739   3.548 -0.3061 -0.3851  0.3873
17978TIP3    H175349   2.390   1.755   3.474 -0.2358  0.3628  0.4909
17978TIP3    H275350   2.402   1.770   3.625 -0.3409 -1.0796  0.6520
17979TIP3   OH275351   3.864   2.863   3.912 -0.5411 -0.8177 -0.1754
17979TIP3    H175352   3.915   2.783   3.898  0.6804 -0.3430  1.4301
17979TIP3    H275353   3.805   2.866   3.837  0.2097 -2.5984 -0.8866
17980TIP3   OH275354   0.210   5.522  11.353 -0.1128 -0.4238  0.0503
17980TIP3    H175355   0.259   5.472  11.288  0.0284 -0.6649  0.3433
17980TIP3    H275356   0.118   5.507  11.331 -0.0518  0.8063 -1.0887
17981TIP3   OH275357   3.382   1.897   2.516  0.6890  0.6002  0.4451
17981TIP3    H175358   3.298   1.932   2.546  0.3685  1.8235 -1.7481
17981TIP3    H275359   3.359   1.823   2.461  0.9018  1.9174 -1.4930
17982TIP3   OH275360   3.765   4.416  16.999 -0.2523 -0.0472  0.0784
17982TIP3    H175361   3.837   4.426  17.061 -1.8871 -0.4157  2.0723
17982TIP3    H275362   3.735   4.505  16.983  0.4536  0.0845 -0.5356
17983TIP3   OH275363   2.127   4.637   1.140  0.5365 -0.3453 -0.0657
17983TIP3    H175364   2.086   4.550   1.144 -0.5280  0.1853  1.0995
17983TIP3    H275365   2.103   4.671   1.054 -0.8574 -0.3618  0.2906
17984TIP3   OH275366   2.181   0.098   3.692  0.6052  0.6519 -0.2859
17984TIP3    H175367   2.178   0.117   3.786  2.5411 -1.8910  0.3368
17984TIP3    H275368   2.217   0.178   3.653 -1.6482  2.3110  0.9122
17985TIP3   OH275369   0.808   3.161   5.960 -0.5485  0.5569  0.4919
17985TIP3    H175370   0.848   3.248   5.952 -0.4292  0.3689 -1.0192
17985TIP3    H275371   0.833   3.132   6.048  1.4433  1.0455  0.1108
17986TIP3   OH275372   1.790   5.999   4.946 -0.7676 -0.0647  0.0512
17986TIP3    H175373   1.885   5.993   4.940 -0.7109  0.3196  0.4700
17986TIP3    H275374   1.757   5.928   4.891 -0.2180 -1.2110  1.1736
17987TIP3   OH275375   5.316   5.414   1.713  0.3348 -0.2863 -0.0064
17987TIP3    H175376   5.255   5.343   1.695  0.1714 -1.1609  3.6408
17987TIP3    H275377   5.268   5.473   1.772  1.7071  1.0192 -0.1535
17988TIP3   OH275378   2.379   2.507   4.573  0.2286 -0.5523  0.1901
17988TIP3    H175379   2.318   2.551   4.514 -0.5449  0.6852  1.8710
17988TIP3    H275380   2.328   2.435   4.610  1.0399 -1.9868 -1.4313
17989TIP3   OH275381   4.624   0.530  13.402 -1.0030 -0.1120 -0.0691
17989TIP3    H175382   4.653   0.621  13.398 -0.5662 -0.2377  0.2459
17989TIP3    H275383   4.531   0.536  13.423 -0.9733  0.2610 -0.0435
17990TIP3   OH275384   6.335   6.160   4.641 -0.0724  0.2045 -0.6738
17990TIP3    H175385   6.245   6.186   4.624  0.0366  0.6754 -0.5433
17990TIP3    H275386   6.388   6.229   4.601  0.2263  0.1010 -0.4638
17991TIP3   OH275387   4.663   4.164  13.385  0.2648 -0.0025 -0.0774
17991TIP3    H175388   4.727   4.093  13.390 -2.6848 -2.7550  0.2984
17991TIP3    H275389   4.669   4.196  13.295  3.0914  0.7839  0.3235
17992TIP3   OH275390   4.424   3.840  16.735  0.2861  0.0576  0.3874
17992TIP3    H175391   4.349   3.831  16.793 -0.4552  0.0887 -0.5676
17992TIP3    H275392   4.459   3.927  16.754  0.3814 -0.1463  1.1761
17993TIP3   OH275393   2.939   2.052   3.589 -0.8056  0.3130  0.2312
17993TIP3    H175394   3.022   2.036   3.543 -0.6007  0.3006  0.6065
17993TIP3    H275395   2.882   1.980   3.562 -0.3618 -0.2356  0.7779
17994TIP3   OH275396   2.323   2.429  12.331  0.6740 -0.3802 -0.2508
17994TIP3    H175397   2.349   2.451  12.241 -1.1946 -1.2188 -1.0286
17994TIP3    H275398   2.404   2.438  12.382  1.6415  0.6507 -1.9071
17995TIP3   OH275399   4.064   5.278   1.629 -0.2562  0.1648  0.3931
17995TIP3    H175400   4.076   5.373   1.636 -0.1577  0.0342  2.1494
17995TIP3    H275401   4.148   5.245   1.596 -0.2863  0.6819 -0.2089
17996TIP3   OH275402   5.746   3.243  15.043  0.1393 -0.5144 -0.2049
17996TIP3    H175403   5.680   3.277  14.982 -0.0306 -0.2780  0.1097
17996TIP3    H275404   5.827   3.286  15.016 -0.1946  0.6367  0.5947
17997TIP3   OH275405   0.714   2.653   4.186 -0.3270 -0.5780 -0.2996
17997TIP3    H175406   0.717   2.746   4.206 -0.6626 -0.5621 -0.3167
17997TIP3    H275407   0.686   2.648   4.095  0.2492 -0.6801 -0.4702
17998TIP3   OH275408   6.148   0.458   1.081 -0.4288 -0.3975  0.1597
17998TIP3    H175409   6.237   0.456   1.046 -0.0021 -0.9488  1.2390
17998TIP3    H275410   6.156   0.507   1.163 -1.5614  1.6426 -0.9164
17999TIP3   OH275411   1.044   1.682   6.764 -0.1908  0.3150 -0.5007
17999TIP3    H175412   1.077   1.660   6.851  0.3719  0.9372 -0.5517
17999TIP3    H275413   1.108   1.644   6.703  0.4385  1.5121 -0.5997
18000TIP3   OH275414   3.097   4.019  14.497 -0.1807 -0.6227  0.2186
18000TIP3    H175415   3.192   4.021  14.485 -0.5068  0.1666 -2.4147
18000TIP3    H275416   3.071   3.931  14.469 -0.5238  0.0725 -1.7381
18001TIP3   OH275417   0.924   4.370   0.416  0.9246 -0.2397  0.1323
18001TIP3    H175418   0.956   4.460   0.422 -2.0609  0.8932  0.0272
18001TIP3    H275419   0.921   4.351   0.323  1.9247 -0.5933  0.1708
18002TIP3   OH275420   4.522   5.440   2.198 -0.4848 -0.2856  0.2812
18002TIP3    H175421   4.499   5.462   2.289 -1.4733  2.1410 -0.5044
18002TIP3    H275422   4.617   5.440   2.197 -0.4637  0.6327  1.1306
18003TIP3   OH275423   5.537   4.173   3.470  0.1776  1.0443  0.0585
18003TIP3    H175424   5.542   4.079   3.488 -0.3958  1.5159  2.9859
18003TIP3    H275425   5.524   4.179   3.376 -0.7850 -1.8527 -0.0317
18004TIP3   OH275426   2.668   2.074  16.764  0.3817 -0.0768 -0.2965
18004TIP3    H175427   2.704   2.128  16.694  1.6858 -2.4070 -1.4669
18004TIP3    H275428   2.573   2.089  16.759  0.7626  2.8788  0.1217
18005TIP3   OH275429   1.979   2.215   2.398 -0.0752 -0.0436  0.0972
18005TIP3    H175430   2.062   2.262   2.391 -0.2545  0.0372 -1.7516
18005TIP3    H275431   1.937   2.226   2.313 -0.9506 -2.0168  0.2246
18006TIP3   OH275432   5.965   1.632   5.985  0.7376  0.1254 -0.0406
18006TIP3    H175433   5.892   1.590   6.031  1.7414 -0.7772  0.7545
18006TIP3    H275434   5.943   1.623   5.892  0.6325 -1.5912  0.1422
18007TIP3   OH275435   5.566   2.608  13.534  0.0500  0.4104 -0.1012
18007TIP3    H175436   5.561   2.573  13.623 -1.0841  0.6171 -0.0805
18007TIP3    H275437   5.650   2.654  13.531  1.3171 -1.8110  0.0468
18008TIP3   OH275438   0.371   5.140  12.130  0.3962 -0.2194 -0.2033
18008TIP3    H175439   0.313   5.076  12.172  1.0324 -0.1710  0.7790
18008TIP3    H275440   0.382   5.107  12.041 -1.9275  0.3203 -0.7005
18009TIP3   OH275441   3.388   1.235   3.003  0.5658  0.4444 -0.2990
18009TIP3    H175442   3.459   1.174   2.983 -0.0754 -0.2102 -0.5949
18009TIP3    H275443   3.379   1.287   2.923  0.6522  0.4770 -0.2882
18010TIP3   OH275444   1.638   5.446  10.782  0.5525 -0.1472 -0.1002
18010TIP3    H175445   1.718   5.490  10.754  0.1387 -0.2750 -1.5000
18010TIP3    H275446   1.594   5.422  10.701  0.0021 -1.7466  0.6557
18011TIP3   OH275447   2.892   5.164   4.167  0.2604 -0.2497 -0.2426
18011TIP3    H175448   2.973   5.116   4.187 -0.2539  0.3537  3.7124
18011TIP3    H275449   2.828   5.131   4.230 -1.2125  2.7589 -0.0561
18012TIP3   OH275450   3.307   0.011   0.709  0.4266  0.1081 -1.1603
18012TIP3    H175451   3.341   0.085   0.660  0.0665  0.1212 -1.3848
18012TIP3    H275452   3.355   0.014   0.792  0.8714  0.2136 -1.4201
18013TIP3   OH275453   2.123   3.982  15.931  0.5211  0.3855  0.1338
18013TIP3    H175454   2.107   4.005  15.840 -0.1175 -0.6371 -0.0267
18013TIP3    H275455   2.054   3.920  15.952 -1.1347  2.8725  2.2460
18014TIP3   OH275456   0.216   0.687   1.051 -0.3250 -0.2595 -0.8638
18014TIP3    H175457   0.193   0.640   0.972  1.5932  1.1571 -2.3327
18014TIP3    H275458   0.198   0.779   1.030  2.3432  0.3844 -0.5151
18015TIP3   OH275459   5.623   6.233  11.587  0.2763 -0.3592 -0.2073
18015TIP3    H175460   5.715   6.237  11.611 -0.4146  1.2546  2.3796
18015TIP3    H275461   5.581   6.187  11.660 -1.2679  0.9265 -0.2617
18016TIP3   OH275462   5.488   5.609   2.807  0.0208  0.2322 -0.4882
18016TIP3    H175463   5.415   5.606   2.746 -0.5835 -2.4278  0.3088
18016TIP3    H275464   5.540   5.531   2.787  2.8596  2.2594 -1.2576
18017TIP3   OH275465   3.236   3.296  17.222 -0.0995  0.0105  0.0167
18017TIP3    H175466   3.171   3.277  17.154 -1.4246 -1.2506  1.5827
18017TIP3    H275467   3.313   3.246  17.197 -0.9595 -1.3299  0.0254
18018TIP3   OH275468   4.519   1.642  16.612 -0.7209 -0.3477  0.0429
18018TIP3    H175469   4.516   1.589  16.691 -1.6297  0.7921  0.7833
18018TIP3    H275470   4.466   1.720  16.632  1.9944  1.6901 -0.4065
18019TIP3   OH275471   1.756   6.646   2.810  0.1819 -0.3531  0.1674
18019TIP3    H175472   1.846   6.668   2.833  0.2671  1.8478 -2.0805
18019TIP3    H275473   1.763   6.586   2.736 -0.1901 -0.0178 -0.1447
18020TIP3   OH275474   2.396   4.188  13.965  0.0177  0.0229  0.4467
18020TIP3    H175475   2.412   4.183  14.059 -1.6403  0.9632  0.7931
18020TIP3    H275476   2.305   4.215  13.957  0.0347 -0.3717 -1.4391
18021TIP3   OH275477   5.076   6.139  15.047 -0.3248  0.4979  0.2247
18021TIP3    H175478   5.139   6.098  15.106 -0.9947 -0.3756  0.3501
18021TIP3    H275479   5.126   6.161  14.969  0.0472 -0.5841  0.1523
18022TIP3   OH275480   4.451   3.345  12.504 -0.1283 -0.1249 -0.2349
18022TIP3    H175481   4.472   3.268  12.558 -2.3303  0.0548  0.9616
18022TIP3    H275482   4.452   3.313  12.414 -2.4465 -1.9332  0.3459
18023TIP3   OH275483   2.119   2.814   1.262 -0.1386 -0.4058  0.1298
18023TIP3    H175484   2.038   2.790   1.216 -0.7232  0.7898  0.5130
18023TIP3    H275485   2.135   2.741   1.322 -1.0569 -0.5348  0.2263
18024TIP3   OH275486   5.993   1.493   0.122 -0.1052 -0.1345 -0.5364
18024TIP3    H175487   5.961   1.436   0.052 -2.3099  2.0109 -1.3636
18024TIP3    H275488   5.915   1.541   0.151  2.0122  4.4075 -1.7551
18025TIP3   OH275489   6.059   4.845  16.752 -0.5033 -0.1456 -0.6850
18025TIP3    H175490   5.992   4.904  16.717 -2.4050 -0.8613  1.5863
18025TIP3    H275491   6.088   4.888  16.833  0.8845 -0.4513 -1.0216
18026TIP3   OH275492   1.064   0.689   2.961 -0.5127  0.4835  0.7277
18026TIP3    H175493   1.023   0.605   2.941  0.0640  0.7951 -1.8795
18026TIP3    H275494   0.993   0.752   2.958 -0.5992  0.3829  0.6700
18027TIP3   OH275495   1.637   3.816  15.940 -0.2103  0.1307 -0.1561
18027TIP3    H175496   1.665   3.762  15.865  1.1608  0.0208  0.4109
18027TIP3    H275497   1.718   3.854  15.974 -0.8354  0.3490  1.1472
18028TIP3   OH275498   1.520   2.683   1.663 -0.1965 -0.6511 -0.6422
18028TIP3    H175499   1.431   2.687   1.697  0.3424 -0.6370  0.8063
18028TIP3    H275500   1.528   2.761   1.608 -1.2161 -0.8989 -1.1506
18029TIP3   OH275501   5.089   1.688  14.139  0.0116 -0.0144 -0.8088
18029TIP3    H175502   5.050   1.619  14.191  1.0363 -0.4905 -0.6594
18029TIP3    H275503   5.102   1.761  14.200  0.9401 -0.4667 -0.4597
18030TIP3   OH275504   0.419   5.874  16.711  0.1425 -0.1417 -0.1840
18030TIP3    H175505   0.394   5.964  16.691  0.1058  0.0117  0.5332
18030TIP3    H275506   0.515   5.877  16.718  0.0958 -0.0438  0.4032
18031TIP3   OH275507   1.913   6.231   3.621 -0.0827 -0.1444 -0.3449
18031TIP3    H175508   1.818   6.228   3.621 -0.1148  0.9499 -0.6561
18031TIP3    H275509   1.938   6.200   3.534 -0.1836  0.6103 -0.6421
18032TIP3   OH275510   0.879   0.501  13.223 -0.3400  0.8445  0.3797
18032TIP3    H175511   0.788   0.509  13.252 -0.2603  2.9242  0.1518
18032TIP3    H275512   0.888   0.566  13.153  1.4593  1.0571  0.7747
18033TIP3   OH275513   2.026   4.574  10.265 -1.0811 -0.1932  1.0081
18033TIP3    H175514   2.078   4.496  10.244  1.1603  2.0492 -2.1856
18033TIP3    H275515   1.935   4.542  10.268 -0.2958 -2.7715 -0.9209
18034TIP3   OH275516   6.392   5.391  10.537 -0.1583 -0.4423 -0.2445
18034TIP3    H175517   6.468   5.373  10.593  0.8951  1.2770 -1.0854
18034TIP3    H275518   6.425   5.453  10.472 -1.8654 -0.9592 -1.6258
18035TIP3   OH275519   2.097   1.296   6.035 -0.3180 -0.1715 -0.0142
18035TIP3    H175520   2.059   1.316   6.121 -2.7751 -1.3797 -0.7769
18035TIP3    H275521   2.108   1.381   5.993 -0.4634  0.3257  0.9408
18036TIP3   OH275522   0.151   6.042  13.957 -0.0428  0.2953 -0.6661
18036TIP3    H175523   0.133   6.132  13.986  1.0752  0.3078  0.0092
18036TIP3    H275524   0.084   6.025  13.890 -0.5499  1.4642 -0.4763
18037TIP3   OH275525   3.021   0.107   1.340  0.0361  0.0937  0.2592
18037TIP3    H175526   3.081   0.116   1.266  0.9244  0.6333  1.0319
18037TIP3    H275527   2.939   0.146   1.309  0.9324  1.9666  0.1570
18038TIP3   OH275528   2.023   5.399   1.503 -0.0192 -0.1112  0.6754
18038TIP3    H175529   2.020   5.450   1.422 -0.5846 -1.9658 -0.5020
18038TIP3    H275530   1.969   5.449   1.564 -1.4848  0.1472 -0.7886
18039TIP3   OH275531   6.532   6.277  16.135  0.2416 -0.4579  0.0169
18039TIP3    H175532   6.494   6.205  16.085 -0.9002 -0.6481  1.1364
18039TIP3    H275533   6.492   6.356  16.099 -1.1061 -0.6439  1.0642
18040TIP3   OH275534   5.447   2.858   0.718  0.5600  0.0262  0.1538
18040TIP3    H175535   5.454   2.933   0.659  3.2870 -0.3161  0.0079
18040TIP3    H275536   5.438   2.782   0.661  0.3074 -0.0135  0.2453
18041TIP3   OH275537   0.542   5.030   3.736  0.4425  0.5660  0.0166
18041TIP3    H175538   0.618   5.042   3.678  0.0298 -0.5508 -0.7624
18041TIP3    H275539   0.578   4.990   3.815  0.8845  1.3519  0.2171
18042TIP3   OH275540   5.836   2.871   1.765 -0.6026  0.0109 -0.2506
18042TIP3    H175541   5.859   2.798   1.709  0.5555  0.4343 -0.3467
18042TIP3    H275542   5.879   2.947   1.724 -0.5681  0.4816  0.6475
18043TIP3   OH275543   5.896   0.640  13.803  0.4425 -0.3950  0.4801
18043TIP3    H175544   5.841   0.675  13.874 -0.3049 -0.5875  0.0097
18043TIP3    H275545   5.901   0.546  13.821  3.7094  0.1264  2.5960
18044TIP3   OH275546   6.049   3.509   3.971  0.4018  0.2884 -0.5577
18044TIP3    H175547   5.972   3.470   3.931  1.5241 -1.1449 -1.3991
18044TIP3    H275548   6.113   3.514   3.900  0.9774  1.8097  0.0315
18045TIP3   OH275549   2.842   3.119   1.728  0.0635 -0.2220 -0.0493
18045TIP3    H175550   2.818   3.211   1.735  3.0512  0.5628  0.6626
18045TIP3    H275551   2.789   3.086   1.655 -1.8623  1.7439  0.3958
18046TIP3   OH275552   0.729   2.311   0.356  0.3346  0.5122  0.1707
18046TIP3    H175553   0.675   2.328   0.279  0.2507  0.7400  0.2788
18046TIP3    H275554   0.731   2.215   0.363  1.0146  0.4686 -0.5872
18047TIP3   OH275555   5.815   5.360   3.748  0.0780  0.4598 -0.6789
18047TIP3    H175556   5.809   5.370   3.843 -0.1175  0.7784 -0.7225
18047TIP3    H275557   5.891   5.303   3.734 -0.3442 -0.2012 -0.2949
18048TIP3   OH275558   4.536   6.380   4.761  0.2169  0.6798 -0.1613
18048TIP3    H175559   4.597   6.435   4.712  0.8361 -0.1783 -0.3568
18048TIP3    H275560   4.451   6.422   4.749  0.5185  1.0084 -1.1942
18049TIP3   OH275561   0.424   6.465   6.017 -0.0199  0.4833  0.0594
18049TIP3    H175562   0.424   6.439   5.925  2.9352 -1.3356  0.5091
18049TIP3    H275563   0.369   6.400   6.061 -0.5519  0.7182 -0.2592
18050TIP3   OH275564   3.980   6.734   2.856 -0.7397  0.1559 -0.0925
18050TIP3    H175565   4.042   6.715   2.786 -1.1778 -0.3500 -0.3445
18050TIP3    H275566   4.023   6.802   2.908 -0.0728 -0.0222 -0.3993
18051TIP3   OH275567   3.959   1.710   3.659  0.3438 -0.4334  0.3287
18051TIP3    H175568   4.029   1.769   3.633  0.7294 -0.2346  1.7709
18051TIP3    H275569   3.949   1.725   3.753 -0.2101 -1.9647  0.5249
18052TIP3   OH275570   1.347   0.659  15.532 -0.1964  0.3891  0.8725
18052TIP3    H175571   1.402   0.658  15.454  0.8352 -1.1147  1.6049
18052TIP3    H275572   1.321   0.568  15.545  0.0442  0.5404  2.5745
18053TIP3   OH275573   0.783   3.692  11.681 -0.5624  0.6740  0.2534
18053TIP3    H175574   0.786   3.723  11.771  0.2812  1.0164  0.1131
18053TIP3    H275575   0.743   3.606  11.686 -0.2110  0.5556  0.9933
18054TIP3   OH275576   1.704   5.476   0.611  0.4920 -0.5722 -0.0763
18054TIP3    H175577   1.673   5.556   0.569  1.8951 -0.3222 -0.6543
18054TIP3    H275578   1.667   5.405   0.557 -0.4066 -0.3246  0.1976
18055TIP3   OH275579   1.074   4.020  15.160 -0.2387  0.1420 -0.2065
18055TIP3    H175580   1.061   4.114  15.175  0.7073  0.2881 -0.2460
18055TIP3    H275581   1.159   4.015  15.117  0.9940 -0.9244  2.2715
18056TIP3   OH275582   5.554   6.728  14.958 -0.3497  0.0266  0.3330
18056TIP3    H175583   5.568   6.815  14.921  1.3115 -0.2713  0.2518
18056TIP3    H275584   5.622   6.673  14.918 -0.9823 -1.1720  0.8651
18057TIP3   OH275585   3.935   6.315   5.526 -0.5310  0.3710  0.2508
18057TIP3    H175586   3.913   6.238   5.473 -1.1463 -0.0227  1.0815
18057TIP3    H275587   4.030   6.318   5.525 -0.4569 -1.3436  1.5671
18058TIP3   OH275588   1.350   6.154  15.637  0.0807  0.3208  0.2739
18058TIP3    H175589   1.388   6.086  15.692 -0.2519 -0.6619 -0.7009
18058TIP3    H275590   1.255   6.142  15.645 -0.0092  1.2576  0.8075
18059TIP3   OH275591   6.588   0.739   4.504  0.1079 -0.3944  0.4742
18059TIP3    H175592   6.656   0.701   4.559 -0.4865  0.4210  1.7730
18059TIP3    H275593   6.588   0.832   4.526 -0.5755 -0.1720 -0.4410
18060TIP3   OH275594   1.351   6.425  13.543  0.3141  0.1009  0.3728
18060TIP3    H175595   1.277   6.364  13.536  0.2371  0.0667  1.3993
18060TIP3    H275596   1.420   6.373  13.584  0.2059  0.7333  1.3736
18061TIP3   OH275597   3.171   2.461  14.689  0.1014 -0.3196  0.3190
18061TIP3    H175598   3.172   2.483  14.782  2.1581 -0.1371  0.2720
18061TIP3    H275599   3.181   2.366  14.687 -0.1367 -0.3450  0.2786
18062TIP3   OH275600   1.441   5.522   4.711 -0.0086 -0.6287  0.3618
18062TIP3    H175601   1.396   5.448   4.751  0.0061 -1.3471 -0.9120
18062TIP3    H275602   1.534   5.501   4.720  0.0210 -0.2576  0.9350
18063TIP3   OH275603   3.396   2.034   0.724 -0.5331  0.1690 -0.1453
18063TIP3    H175604   3.323   2.032   0.785 -1.4475 -1.6462 -1.2682
18063TIP3    H275605   3.376   1.967   0.659  1.0652  1.1437 -1.7055
18064TIP3   OH275606   4.803   5.817   4.727 -0.4300 -0.8088 -0.2151
18064TIP3    H175607   4.870   5.876   4.693  0.5055 -0.9616  1.3407
18064TIP3    H275608   4.781   5.852   4.813 -1.0395 -1.7870  0.0300
18065TIP3   OH275609   1.820   0.891  14.736  0.4203 -0.4472  0.2303
18065TIP3    H175610   1.774   0.953  14.793 -1.6976 -1.0043 -0.8245
18065TIP3    H275611   1.793   0.805  14.768  0.2128 -0.7743 -0.8008
18066TIP3   OH275612   4.837   3.557   3.514 -0.7512 -0.5948  0.8831
18066TIP3    H175613   4.840   3.537   3.608 -0.2248  0.9413  1.2080
18066TIP3    H275614   4.909   3.619   3.501 -0.3593 -1.3649 -0.6793
18067TIP3   OH275615   3.210   0.893   0.970 -0.4304 -0.0587  0.2060
18067TIP3    H175616   3.159   0.812   0.969  0.2906 -0.5102 -0.4594
18067TIP3    H275617   3.149   0.960   0.939 -0.7881 -0.4981 -0.0495
18068TIP3   OH275618   1.594   6.445   4.101 -1.0066  0.8205 -0.4595
18068TIP3    H175619   1.647   6.408   4.171 -3.3967  0.2717  1.1041
18068TIP3    H275620   1.656   6.459   4.029  1.2309  0.1984  1.2933
18069TIP3   OH275621   4.362   3.464   5.311 -0.0398 -0.3488 -0.3413
18069TIP3    H175622   4.399   3.436   5.395  0.5595  2.8380  0.5382
18069TIP3    H275623   4.393   3.400   5.248  0.2672 -2.2896  1.7189
18070TIP3   OH275624   3.819   2.249   1.302 -0.4986 -0.3623  0.2231
18070TIP3    H175625   3.824   2.343   1.322 -0.3852 -0.6158  1.4295
18070TIP3    H275626   3.882   2.236   1.232 -0.7201  0.5169 -0.1447
18071TIP3   OH275627   0.226   2.045  11.160  0.2789  0.1648 -0.0453
18071TIP3    H175628   0.140   2.002  11.168  1.3331 -1.9889  0.2163
18071TIP3    H275629   0.234   2.067  11.068 -1.3545  2.1847  0.2439
18072TIP3   OH275630   3.792   0.023  13.714  0.1310 -0.2176 -0.2025
18072TIP3    H175631   3.711  -0.022  13.691  1.7198 -2.4273 -1.7443
18072TIP3    H275632   3.827  -0.028  13.787  0.3755  0.4299  0.1313
18073TIP3   OH275633   4.712   4.640   1.373  0.7565 -0.5116 -0.1993
18073TIP3    H175634   4.781   4.616   1.435 -0.2209  0.8962  1.4601
18073TIP3    H275635   4.759   4.674   1.297  1.8997  0.0849  0.7663
18074TIP3   OH275636   3.892   2.340   5.157 -0.0257  0.2314 -0.2428
18074TIP3    H175637   3.906   2.430   5.128  0.5451  0.3944  0.5023
18074TIP3    H275638   3.894   2.288   5.077 -0.3022  0.8713 -0.6730
18075TIP3   OH275639   6.547   5.730  12.652 -0.1229  0.1680  0.2327
18075TIP3    H175640   6.452   5.729  12.664  0.1566  0.4598  2.6497
18075TIP3    H275641   6.573   5.638  12.648 -0.3502  0.0668  1.0107
18076TIP3   OH275642   2.556   1.258   1.957  0.8045  0.0381 -1.0387
18076TIP3    H175643   2.483   1.214   1.915  0.4902  0.6358 -1.1356
18076TIP3    H275644   2.552   1.231   2.049 -0.5338  1.3521 -0.6997
18077TIP3   OH275645   0.379   5.527   3.542 -0.0089  0.0915 -0.4041
18077TIP3    H175646   0.351   5.546   3.632 -1.2467 -3.8098  0.1434
18077TIP3    H275647   0.304   5.555   3.488 -0.3429 -0.0045  0.0071
18078TIP3   OH275648   3.737   6.383  12.811 -0.1333 -0.8309  0.5465
18078TIP3    H175649   3.781   6.437  12.876  0.3721 -1.1954  0.5086
18078TIP3    H275650   3.668   6.338  12.860 -0.0276 -0.7814  0.7427
18079TIP3   OH275651   1.385   0.433   2.849 -0.0775  0.1364  0.1738
18079TIP3    H175652   1.359   0.382   2.925 -1.9356  1.5412  0.5132
18079TIP3    H275653   1.462   0.483   2.879 -0.6326  0.4787  1.0579
18080TIP3   OH275654   2.935   4.480  13.045  0.8926 -0.1062 -0.5528
18080TIP3    H175655   3.022   4.498  13.079  1.3236 -1.2298 -1.0103
18080TIP3    H275656   2.909   4.399  13.090  0.3659 -0.1353 -0.9117
18081TIP3   OH275657   0.333   0.474  14.802  0.4268 -0.0343  0.9218
18081TIP3    H175658   0.251   0.450  14.759  0.9012 -0.4449  0.2389
18081TIP3    H275659   0.331   0.570  14.806  1.2443  0.1280 -1.7758
18082TIP3   OH275660   3.874   4.952  13.765 -0.2846  0.0926  0.5888
18082TIP3    H175661   3.917   4.979  13.684 -0.6530  2.0875  1.0406
18082TIP3    H275662   3.885   4.857  13.767  1.4866  0.2436 -0.7846
18083TIP3   OH275663   1.872   4.944  11.184  0.4818  0.1161 -0.2722
18083TIP3    H175664   1.847   4.860  11.223 -0.7000  0.0162 -1.2065
18083TIP3    H275665   1.951   4.970  11.231  1.4569 -2.0093 -0.6608
18084TIP3   OH275666   0.075   3.679   4.788 -0.1684  0.4282 -0.0736
18084TIP3    H175667   0.161   3.643   4.768  0.5070  1.4457  0.9178
18084TIP3    H275668   0.072   3.761   4.738 -0.7824  0.1428 -0.5183
18085TIP3   OH275669   6.380   0.599   3.929 -0.2645  0.4364  0.4255
18085TIP3    H175670   6.346   0.572   3.844 -0.6658  0.7042  0.4938
18085TIP3    H275671   6.471   0.622   3.913 -0.4748  0.9740 -0.0457
18086TIP3   OH275672   1.848   3.536   3.004 -0.0752 -0.0897 -0.6767
18086TIP3    H175673   1.764   3.523   3.048  0.8535 -1.2427  0.8060
18086TIP3    H275674   1.898   3.592   3.063  0.3658  0.2084 -1.3309
18087TIP3   OH275675   3.041   1.221  12.251 -0.2653 -0.7993 -0.0035
18087TIP3    H175676   3.116   1.276  12.228  1.6615 -1.4738  4.2225
18087TIP3    H275677   3.073   1.132  12.239  0.0792 -1.1160  2.9896
18088TIP3   OH275678   2.429   2.243  16.939  0.3998 -0.4851  0.6563
18088TIP3    H175679   2.394   2.202  17.018 -1.2999 -0.7108 -0.2001
18088TIP3    H275680   2.411   2.181  16.869  1.2131  0.0480 -0.0384
18089TIP3   OH275681   6.719   5.690   5.591 -0.0917  0.2399  0.1720
18089TIP3    H175682   6.668   5.655   5.517 -1.6464 -0.5622  1.5793
18089TIP3    H275683   6.809   5.667   5.570 -0.4311  0.5676 -1.7728
18090TIP3   OH275684   5.672   0.206   2.176  0.0326 -0.1733  0.3080
18090TIP3    H175685   5.728   0.197   2.099 -1.0215 -0.5922 -0.4253
18090TIP3    H275686   5.643   0.117   2.196 -2.6193  0.3296 -1.0561
18091TIP3   OH275687   5.439   2.945  11.819  0.5191 -0.0841  0.6114
18091TIP3    H175688   5.352   2.907  11.803  0.0998  0.3711  1.7515
18091TIP3    H275689   5.483   2.883  11.876  0.7894 -0.1156  0.3671
18092TIP3   OH275690   4.229   4.948  15.396 -0.5048  0.5100 -0.1360
18092TIP3    H175691   4.265   4.961  15.484 -1.3307  0.8083  0.1586
18092TIP3    H275692   4.153   5.005  15.393 -0.4489  0.5291 -1.0633
18093TIP3   OH275693   6.139   3.309  15.579 -0.2303  0.3078 -0.1251
18093TIP3    H175694   6.165   3.320  15.671  1.1208 -3.0971  0.0073
18093TIP3    H275695   6.205   3.358  15.530 -1.1565  2.4382  0.6854
18094TIP3   OH275696   0.738   5.180   6.184  0.0530 -0.0404  0.2498
18094TIP3    H175697   0.690   5.234   6.122  0.4916 -2.0340 -1.9275
18094TIP3    H275698   0.825   5.218   6.187 -0.0524  0.2373 -0.1763
18095TIP3   OH275699   2.127   6.140   3.892  0.0113  0.2410  0.3337
18095TIP3    H175700   2.215   6.109   3.869  0.2448  0.4408  0.9376
18095TIP3    H275701   2.107   6.096   3.975 -0.5490  0.0338  0.0940
18096TIP3   OH275702   6.464   3.313  11.734  0.0597  0.1808  0.1797
18096TIP3    H175703   6.471   3.227  11.692 -3.3775 -0.7831  1.3937
18096TIP3    H275704   6.540   3.318  11.792  1.8198 -0.8269 -1.9806
18097TIP3   OH275705   4.410   3.605   1.572  0.1543 -0.4801 -0.5845
18097TIP3    H175706   4.394   3.570   1.484 -0.6320 -0.3639 -0.4890
18097TIP3    H275707   4.457   3.686   1.557  0.7611 -0.8786 -0.8643
18098TIP3   OH275708   0.914   0.113   4.509 -0.6359  0.2062  0.0779
18098TIP3    H175709   1.004   0.121   4.543  0.1835 -2.3623 -1.3401
18098TIP3    H275710   0.881   0.032   4.549 -1.3759 -0.2684 -1.4532
18099TIP3   OH275711   2.408   4.331   4.445 -0.4469 -0.4394 -0.0093
18099TIP3    H175712   2.313   4.345   4.447 -0.1497  1.6360  1.1114
18099TIP3    H275713   2.429   4.297   4.532  0.1577  1.4917  0.6153
18100TIP3   OH275714   4.585   5.263   5.220  0.2609 -0.3297 -0.7907
18100TIP3    H175715   4.593   5.286   5.313 -0.3048 -1.2267 -0.5226
18100TIP3    H275716   4.566   5.347   5.177  0.6650  0.1143 -0.1259
18101TIP3   OH275717   1.197   4.787  15.256  0.0515  0.0717  0.6654
18101TIP3    H175718   1.189   4.878  15.286  1.2983 -0.2798  2.1558
18101TIP3    H275719   1.200   4.793  15.161 -1.5060  1.4470  0.6741
18102TIP3   OH275720   6.729   3.931  12.741 -0.6447 -0.3515 -0.3884
18102TIP3    H175721   6.802   3.935  12.802  0.0313 -1.5150 -1.0956
18102TIP3    H275722   6.676   4.008  12.761  1.6338  1.4193 -0.9459
18103TIP3   OH275723   4.902   5.055   6.038 -0.2313 -0.9581  0.1514
18103TIP3    H175724   4.898   4.960   6.033  0.0358 -0.8557 -2.6339
18103TIP3    H275725   4.810   5.082   6.046 -0.3642 -1.4118  0.1537
18104TIP3   OH275726   5.118   2.052   0.037  0.8957 -0.0651 -0.1470
18104TIP3    H175727   5.131   2.080  -0.054  2.3054  0.7730  0.3038
18104TIP3    H275728   5.128   1.957   0.035 -2.0441 -0.4233 -1.3652
18105TIP3   OH275729   1.070   3.759  16.800 -0.0052  0.4649 -0.3584
18105TIP3    H175730   1.036   3.701  16.732 -0.2306  0.3421 -0.1465
18105TIP3    H275731   0.993   3.810  16.828  0.0020  0.2360  0.0768
18106TIP3   OH275732   2.747   2.429   2.830  0.3216  0.1063  0.3328
18106TIP3    H175733   2.795   2.498   2.875 -0.3912  1.1164 -0.4407
18106TIP3    H275734   2.790   2.421   2.745 -1.4049  1.6457 -0.7253
18107TIP3   OH275735   5.799   4.045  11.520  0.4682  0.2839  0.4905
18107TIP3    H175736   5.803   3.973  11.456  0.8972  1.4406 -0.8022
18107TIP3    H275737   5.872   4.102  11.497 -1.0367  2.1702  0.2362
18108TIP3   OH275738   4.695   5.994  14.937 -0.3136 -0.3577 -0.0493
18108TIP3    H175739   4.743   6.077  14.944  0.2372 -0.6802 -0.0236
18108TIP3    H275740   4.643   5.990  15.017  1.1631 -0.9804  0.9037
18109TIP3   OH275741   5.153   5.523  16.471  0.1485 -0.7298 -0.0175
18109TIP3    H175742   5.120   5.439  16.439 -0.7515  0.1870 -1.5733
18109TIP3    H275743   5.242   5.528  16.437  0.6724 -1.6200  1.1842
18110TIP3   OH275744   1.730   3.299  16.589  0.4273  0.4877 -0.0224
18110TIP3    H175745   1.676   3.222  16.609  1.2360 -0.0535  0.1358
18110TIP3    H275746   1.704   3.365  16.653 -1.2458  0.8159 -1.0339
18111TIP3   OH275747   2.571   0.742  14.447  0.0536  0.8286  0.0261
18111TIP3    H175748   2.665   0.747  14.429 -0.0290  0.5998 -0.4724
18111TIP3    H275749   2.563   0.680  14.520  0.2914  0.8970  0.1100
18112TIP3   OH275750   6.279   2.208  13.385 -0.1268 -0.5901 -0.0484
18112TIP3    H175751   6.258   2.267  13.458 -2.2908  1.6300 -2.3645
18112TIP3    H275752   6.356   2.248  13.345  0.8324 -1.6000  0.7691
18113TIP3   OH275753   0.247   4.575  15.390 -0.0176 -0.2451  0.9357
18113TIP3    H175754   0.325   4.625  15.417  0.5909 -0.7476  0.1338
18113TIP3    H275755   0.179   4.641  15.380  0.1751  0.1429  2.1103
18114TIP3   OH275756   4.109   1.654   4.888 -0.3667 -0.3636 -0.2527
18114TIP3    H175757   4.092   1.712   4.814  0.3052 -0.8575 -0.8042
18114TIP3    H275758   4.201   1.670   4.910 -0.5324 -0.3089  0.3957
18115TIP3   OH275759   2.985   2.092   0.559  0.2421  0.3624 -0.4284
18115TIP3    H175760   3.061   2.060   0.511  0.5742  0.7497 -0.1664
18115TIP3    H275761   3.014   2.175   0.598  0.0064  0.0041  0.5142
18116TIP3   OH275762   2.437   2.109   3.853 -0.4830  0.0756 -0.4588
18116TIP3    H175763   2.388   2.190   3.866  0.0481  0.2078  0.7514
18116TIP3    H275764   2.525   2.129   3.883 -0.1043 -0.6683 -1.0578
18117TIP3   OH275765   3.298   2.767   6.284 -0.1704 -0.3817 -0.9135
18117TIP3    H175766   3.277   2.792   6.374  0.4441  0.0216 -0.8780
18117TIP3    H275767   3.387   2.800   6.270 -0.0456 -0.9456 -1.4816
18118TIP3   OH275768   4.857   6.251   4.837 -0.6385 -0.3775 -0.0415
18118TIP3    H175769   4.944   6.239   4.799 -0.1096 -0.8762  1.2964
18118TIP3    H275770   4.838   6.344   4.824 -0.1004 -0.3633 -0.7453
18119TIP3   OH275771   5.122   0.808   4.764 -0.6324 -0.3226  0.0238
18119TIP3    H175772   5.149   0.761   4.686  0.1080  1.3575 -0.7616
18119TIP3    H275773   5.201   0.812   4.819 -1.3323 -2.1197  1.1965
18120TIP3   OH275774   6.271   5.313   1.747  0.0811 -0.1578  0.0665
18120TIP3    H175775   6.264   5.408   1.758 -0.9195 -0.0978 -0.9653
18120TIP3    H275776   6.295   5.280   1.834 -1.1944  0.8846  0.8298
18121TIP3   OH275777   0.142   1.160   1.031 -0.2992 -0.7658 -0.0885
18121TIP3    H175778   0.226   1.155   1.077  0.0613  0.7648 -0.5823
18121TIP3    H275779   0.151   1.234   0.971 -2.0788 -0.4421  0.0171
18122TIP3   OH275780   6.277   2.123   4.005 -0.4366  0.9564  1.4762
18122TIP3    H175781   6.313   2.162   3.925 -0.2175 -0.2408  0.9825
18122TIP3    H275782   6.257   2.033   3.981 -1.3769  0.8883  2.4785
18123TIP3   OH275783   3.401   0.062   2.847 -0.0433 -0.2877 -0.1423
18123TIP3    H175784   3.381  -0.031   2.842  0.1959 -0.3782  0.6985
18123TIP3    H275785   3.492   0.066   2.873  0.0676  0.1842 -0.5851
18124TIP3   OH275786   1.498   4.317  12.949  0.0995  0.0689  0.4738
18124TIP3    H175787   1.423   4.315  12.889  0.7627  0.1009 -0.3661
18124TIP3    H275788   1.570   4.353  12.897  1.1871 -1.7040  0.6900
18125TIP3   OH275789   4.055   0.648  16.007 -0.2232 -0.2305  0.2126
18125TIP3    H175790   4.062   0.741  16.029  0.5738 -0.7003  1.9949
18125TIP3    H275791   4.053   0.646  15.911  0.4195  1.5732  0.1501
18126TIP3   OH275792   5.406   1.536   1.231 -0.0281 -0.1410  0.7272
18126TIP3    H175793   5.401   1.602   1.162  1.3904 -0.3499  0.3963
18126TIP3    H275794   5.462   1.576   1.298  0.3088 -0.7454  0.8136
18127TIP3   OH275795   5.166   3.204   5.514  0.3470  0.0851 -0.3802
18127TIP3    H175796   5.213   3.137   5.465 -0.6578  0.2697 -1.6356
18127TIP3    H275797   5.234   3.267   5.539  1.3374 -1.5362  1.0757
18128TIP3   OH275798   4.861   0.784   2.775  0.0504  0.6280 -1.1121
18128TIP3    H175799   4.773   0.820   2.766 -0.2862  0.1616  0.2632
18128TIP3    H275800   4.894   0.822   2.857  0.0137 -1.5416 -0.0761
18129TIP3   OH275801   1.843   6.757  11.023  0.2385 -0.1810 -0.4427
18129TIP3    H175802   1.774   6.823  11.028  0.5174  0.0661  0.4103
18129TIP3    H275803   1.807   6.681  11.068  0.7430  0.1682  0.5919
18130TIP3   OH275804   3.125   6.668   3.097  0.3068 -0.2434 -0.4340
18130TIP3    H175805   3.059   6.599   3.106 -0.8933  1.0200  0.6765
18130TIP3    H275806   3.087   6.729   3.034  1.0346 -0.2206 -0.8479
18131TIP3   OH275807   2.278   2.345  11.201 -0.1464  0.3024 -0.6208
18131TIP3    H175808   2.292   2.251  11.211 -0.0693  0.3539 -0.2404
18131TIP3    H275809   2.240   2.354  11.113 -1.4472 -0.2313 -0.1358
18132TIP3   OH275810   2.759   2.659   0.701 -0.0356  0.8311  0.4445
18132TIP3    H175811   2.721   2.687   0.618  0.0761  0.1251  0.1560
18132TIP3    H275812   2.716   2.576   0.720  2.1041 -0.5185 -0.4168
18133TIP3   OH275813   4.183   4.824   0.647  0.0405  0.4688  0.0936
18133TIP3    H175814   4.113   4.817   0.582  1.6908 -1.4414 -1.5454
18133TIP3    H275815   4.150   4.776   0.722 -1.2599  1.3759  0.1229
18134TIP3   OH275816   3.386   0.858  12.625 -0.0512  0.2554 -0.0352
18134TIP3    H175817   3.457   0.893  12.678 -0.4319  0.7571  0.1433
18134TIP3    H275818   3.430   0.823  12.547  0.3870  0.6178  0.0455
18135TIP3   OH275819   4.125   0.556  14.902 -0.1443  0.2608  0.1224
18135TIP3    H175820   4.149   0.645  14.875  0.1204  0.0675 -0.2850
18135TIP3    H275821   4.119   0.507  14.820 -0.6631 -0.0065  0.3221
18136TIP3   OH275822   1.698   2.025   1.965 -0.1915 -0.7181  0.3441
18136TIP3    H175823   1.719   2.068   2.048  0.1017 -2.2094  1.0556
18136TIP3    H275824   1.677   1.935   1.989 -1.2457 -0.8677 -1.0766
18137TIP3   OH275825   4.576   6.762  12.244 -0.1632  0.1622 -0.3328
18137TIP3    H175826   4.488   6.724  12.249  0.4657 -1.2958  0.0060
18137TIP3    H275827   4.628   6.696  12.197  1.0902  0.3493  0.7588
18138TIP3   OH275828   4.521   2.143   4.407 -0.3153 -1.1596 -0.3289
18138TIP3    H175829   4.476   2.151   4.323 -2.7240 -0.7415  0.9533
18138TIP3    H275830   4.477   2.071   4.451  0.8350 -1.2854  0.6259
18139TIP3   OH275831   6.760   0.178   2.981 -0.3911 -0.3369 -0.6265
18139TIP3    H175832   6.770   0.271   3.000  1.4161 -0.8162  1.0139
18139TIP3    H275833   6.704   0.175   2.904 -1.0298  2.0757 -0.3083
18140TIP3   OH275834   2.241   1.425  11.489 -0.5957 -0.2345  0.8800
18140TIP3    H175835   2.189   1.502  11.513 -0.1690  0.1391  0.6401
18140TIP3    H275836   2.289   1.453  11.411 -0.5461 -0.7976  0.7097
18141TIP3   OH275837   5.277   2.922   5.968  0.1680  0.8836 -0.0168
18141TIP3    H175838   5.220   2.997   5.984 -1.9455  0.0580 -3.1738
18141TIP3    H275839   5.228   2.847   6.002  1.0763  0.6033  0.6954
18142TIP3   OH275840   2.888   6.552  12.836 -0.3207 -0.4033  0.0220
18142TIP3    H175841   2.828   6.481  12.860 -1.4059  0.8865  1.2003
18142TIP3    H275842   2.974   6.519  12.860 -0.7194 -1.6294 -0.1623
18143TIP3   OH275843   5.149   0.853   2.749  0.1736 -0.3947 -0.0481
18143TIP3    H175844   5.069   0.800   2.748 -0.7327  0.9563  0.3362
18143TIP3    H275845   5.170   0.865   2.656  0.1212 -1.0043 -0.1472
18144TIP3   OH275846   4.921   5.909   4.318  0.5087  0.3440  0.3330
18144TIP3    H175847   4.952   5.936   4.231 -2.8486 -2.3946 -1.8664
18144TIP3    H275848   4.827   5.928   4.317  0.1744 -0.9455  2.8776
18145TIP3   OH275849   5.525   4.614   6.102 -0.0162 -0.6704  0.0332
18145TIP3    H175850   5.448   4.567   6.135 -0.6146  0.2078 -0.1020
18145TIP3    H275851   5.561   4.659   6.178  0.5739 -1.3602  0.1685
18146TIP3   OH275852   5.923   0.070  16.509  0.1628 -0.7792 -0.0688
18146TIP3    H175853   5.931   0.120  16.428 -2.0713 -0.3687 -0.0515
18146TIP3    H275854   5.857   0.116  16.560  0.0111 -2.2239  1.0788
18147TIP3   OH275855   5.908   4.346  16.049  0.6143 -0.1878 -0.3658
18147TIP3    H175856   5.828   4.294  16.055  0.5536 -0.1537 -0.8077
18147TIP3    H275857   5.971   4.289  16.006  1.0685 -0.4830  0.6819
18148TIP3   OH275858   0.555   5.935  15.896 -0.2242  0.1215  0.0424
18148TIP3    H175859   0.470   5.977  15.896  0.3628  1.3294 -0.1779
18148TIP3    H275860   0.596   5.961  15.978  0.5969  0.9413 -0.6136
18149TIP3   OH275861   1.745   4.372   4.616  0.1797 -0.6273 -0.6671
18149TIP3    H175862   1.730   4.432   4.543  1.2288  0.8287  0.2841
18149TIP3    H275863   1.657   4.351   4.648 -0.2209 -0.0096 -1.3384
18150TIP3   OH275864   0.315   3.440  14.675  0.5279 -0.1987 -0.4895
18150TIP3    H175865   0.254   3.512  14.693 -2.7870 -2.7157 -1.0392
18150TIP3    H275866   0.396   3.465  14.720 -1.5875  2.3074  2.1427
18151TIP3   OH275867   1.302   3.755  16.979  0.1428 -0.6001  0.0992
18151TIP3    H175868   1.232   3.766  16.914  2.0656  0.9343 -1.7790
18151TIP3    H275869   1.284   3.822  17.045  0.6770  0.8582 -1.1926
18152TIP3   OH275870   3.302   4.940  12.780  0.3897 -0.7123  0.7041
18152TIP3    H175871   3.369   4.962  12.845 -0.8245 -0.2124  1.8026
18152TIP3    H275872   3.271   4.854  12.807 -1.4520  0.3060  1.9307
18153TIP3   OH275873   0.275   1.539   1.192 -0.1250  0.7094 -0.4530
18153TIP3    H175874   0.303   1.510   1.279 -0.4778  0.6935 -0.3430
18153TIP3    H275875   0.180   1.538   1.196 -0.1730 -1.3331 -1.5249
18154TIP3   OH275876   3.466   4.283   6.138 -0.5553 -0.1185  0.2343
18154TIP3    H175877   3.460   4.339   6.215  0.1208  1.6575 -0.9709
18154TIP3    H275878   3.548   4.309   6.096  0.1308 -2.5083  0.0204
18155TIP3   OH275879   3.425   1.842  16.223 -0.0733 -0.1104 -0.3677
18155TIP3    H175880   3.482   1.911  16.190 -1.1392  1.2897  0.6775
18155TIP3    H275881   3.466   1.761  16.192  2.5535  0.8496  0.4078
18156TIP3   OH275882   1.605   2.373  11.106  0.0850  0.6658 -0.5800
18156TIP3    H175883   1.523   2.322  11.108  0.6823 -0.2925 -0.0537
18156TIP3    H275884   1.668   2.315  11.063  0.9296  0.7212  0.5675
18157TIP3   OH275885   5.002   0.711  11.705 -0.1408  0.1852  0.0371
18157TIP3    H175886   4.983   0.684  11.615  1.2579 -2.3375  0.4284
18157TIP3    H275887   4.924   0.759  11.733 -0.7806  0.6010 -2.3540
18158TIP3   OH275888   2.333   0.816  14.327  0.7249  0.6666  0.0462
18158TIP3    H175889   2.285   0.855  14.401  0.9117  1.9714 -0.5111
18158TIP3    H275890   2.417   0.789  14.364  1.1758  2.1398  0.1240
18159TIP3   OH275891   2.874   6.088  17.196 -0.1632 -0.4199 -0.0501
18159TIP3    H175892   2.825   6.155  17.244  0.4842  0.0613 -0.0549
18159TIP3    H275893   2.879   6.122  17.106  0.8627 -0.0915  0.1306
18160TIP3   OH275894   1.435   0.580   3.445 -0.7473  0.0126  0.0137
18160TIP3    H175895   1.351   0.537   3.428 -0.8580  1.1886 -2.7453
18160TIP3    H275896   1.498   0.508   3.450 -1.1206 -0.6097 -3.2423
18161TIP3   OH275897   0.498   3.516   4.132  0.2668  0.1274 -0.0167
18161TIP3    H175898   0.519   3.609   4.130  0.9157  0.0445  1.7991
18161TIP3    H275899   0.564   3.477   4.190 -1.4448 -1.0530  1.2055
18162TIP3   OH275900   4.441   6.106  15.558  0.0949 -0.7438  0.2666
18162TIP3    H175901   4.505   6.134  15.492 -0.0654 -0.1572  0.3612
18162TIP3    H275902   4.360   6.149  15.532  0.1809 -0.0157  1.2071
18163TIP3   OH275903   0.817   2.365   6.047  0.5563 -0.0448 -0.9000
18163TIP3    H175904   0.856   2.395   6.129  1.2120 -0.1426 -1.1739
18163TIP3    H275905   0.762   2.438   6.018  0.2035 -0.0719 -0.2945
18164TIP3   OH275906   3.604   3.138   1.064 -0.0133  0.1209 -0.2730
18164TIP3    H175907   3.602   3.220   1.015  1.4311 -0.1520 -0.8036
18164TIP3    H275908   3.646   3.159   1.147  1.5649 -0.3383 -0.9334
18165TIP3   OH275909   4.038   3.972   4.148 -0.4758  0.8147  0.4636
18165TIP3    H175910   4.047   4.064   4.126  0.9392  0.6007  0.1011
18165TIP3    H275911   4.009   3.930   4.067  1.6414  0.5119 -0.1440
18166TIP3   OH275912   1.504   0.326   1.802  0.0923 -0.0473  0.7544
18166TIP3    H175913   1.499   0.246   1.749 -0.0536  0.1209  0.5100
18166TIP3    H275914   1.412   0.349   1.819  0.1366 -0.0160  0.9529
18167TIP3   OH275915   1.639   3.780  13.002  0.3999  0.0075 -0.7645
18167TIP3    H175916   1.581   3.705  12.984  0.1246  0.1156 -0.3216
18167TIP3    H275917   1.589   3.835  13.061  0.4664  0.7231 -1.3697
18168TIP3   OH275918   4.653   2.208  16.085 -0.2090 -0.4831  0.7722
18168TIP3    H175919   4.687   2.208  16.175 -1.3027  0.4555  1.2044
18168TIP3    H275920   4.563   2.241  16.094 -0.9777 -2.1626 -0.4347
18169TIP3   OH275921   0.159   5.892   3.230  0.1653 -0.5885  0.1782
18169TIP3    H175922   0.252   5.880   3.250 -0.0364 -0.6749  1.0897
18169TIP3    H275923   0.152   5.983   3.201  0.5936 -0.6962 -0.2805
18170TIP3   OH275924   2.334   6.189  13.127 -0.3710 -0.1476  0.1941
18170TIP3    H175925   2.410   6.247  13.138  0.0781 -0.9565  1.4711
18170TIP3    H275926   2.362   6.127  13.059  0.2639 -0.6650  0.9128
18171TIP3   OH275927   6.725   5.284  11.335  0.0133 -0.1690  0.2385
18171TIP3    H175928   6.698   5.324  11.417 -0.7583 -0.4058  0.1058
18171TIP3    H275929   6.647   5.238  11.304  0.4399 -0.4795 -0.3841
18172TIP3   OH275930   3.510   5.662  16.223  0.1158  0.0168 -0.0034
18172TIP3    H175931   3.583   5.677  16.162  0.1743  0.2500  0.1204
18172TIP3    H275932   3.544   5.689  16.308  0.0392 -0.3256  0.1353
18173TIP3   OH275933   4.911   0.903  14.535 -0.0561 -0.2948 -0.3296
18173TIP3    H175934   4.895   0.851  14.456 -3.2283  2.4463 -1.6177
18173TIP3    H275935   4.972   0.971  14.507  1.1531 -1.0556  0.4011
18174TIP3   OH275936   1.514   2.903   5.471 -0.5462  0.1388 -0.9566
18174TIP3    H175937   1.575   2.838   5.507 -0.8632  0.3806  0.0156
18174TIP3    H275938   1.427   2.866   5.489 -0.7527  1.3435  0.5779
18175TIP3   OH275939   4.689   1.868   4.965  0.4840  0.3508 -0.5097
18175TIP3    H175940   4.741   1.896   4.889 -1.5546 -0.2413 -2.1914
18175TIP3    H275941   4.683   1.773   4.956 -0.4758  0.3609 -0.0839
18176TIP3   OH275942   2.380   5.462  13.788  0.3137 -0.6908 -0.2811
18176TIP3    H175943   2.383   5.494  13.698  0.2410  0.0644 -0.0157
18176TIP3    H275944   2.406   5.537  13.841  1.6492 -1.5006  0.2370
18177TIP3   OH275945   3.030   4.669   0.202 -0.0555 -0.4058  0.1956
18177TIP3    H175946   3.034   4.725   0.280  2.1885  1.0957 -0.9541
18177TIP3    H275947   2.948   4.693   0.159  0.1721  0.9285  0.4999
18178TIP3   OH275948   3.892   1.151   6.263 -0.4163  0.1803  0.8678
18178TIP3    H175949   3.974   1.115   6.230 -0.3321  0.3538  0.8882
18178TIP3    H275950   3.825   1.087   6.237 -0.4915  0.8123 -0.5303
18179TIP3   OH275951   4.592   4.763  16.838  0.2242  0.0235  0.3821
18179TIP3    H175952   4.676   4.793  16.874 -0.2876  1.2712  0.5644
18179TIP3    H275953   4.609   4.750  16.745  1.0417 -1.3184  0.6975
18180TIP3   OH275954   1.251   2.863   5.583  0.0549  0.0829  0.6056
18180TIP3    H175955   1.176   2.843   5.638 -0.4132  1.2591  0.4143
18180TIP3    H275956   1.237   2.953   5.555  1.7432  0.4624  0.8982
18181TIP3   OH275957   2.834   3.081  12.866  0.2955  0.2295  0.0605
18181TIP3    H175958   2.841   2.992  12.900 -0.5085 -0.4167 -1.4197
18181TIP3    H275959   2.892   3.133  12.922  1.4720 -1.3756  0.3627
18182TIP3   OH275960   1.989   6.578  12.051 -0.6216  0.3171  0.0163
18182TIP3    H175961   1.922   6.542  11.992 -1.2840  1.1669  0.2332
18182TIP3    H275962   2.068   6.529  12.030 -1.0009  0.1745 -1.1561
18183TIP3   OH275963   0.739   3.399  15.486 -0.6736 -0.6188 -0.0014
18183TIP3    H175964   0.676   3.470  15.471  0.1871 -0.3151 -2.4839
18183TIP3    H275965   0.825   3.440  15.474 -0.0212 -1.2752  2.2494
18184TIP3   OH275966   5.180   1.625   4.440 -0.1176  0.2368 -0.2248
18184TIP3    H175967   5.089   1.642   4.415 -0.2535  0.6626  0.5532
18184TIP3    H275968   5.216   1.712   4.458 -0.1724 -0.0982  1.5719
18185TIP3   OH275969   4.073   2.193  13.760  0.5347 -0.3244  0.3830
18185TIP3    H175970   4.049   2.279  13.725 -1.2496 -1.2293 -0.6912
18185TIP3    H275971   4.138   2.212  13.828 -0.1356  1.8915  0.4459
18186TIP3   OH275972   1.020   6.093  17.146 -0.4197  0.2624  0.5109
18186TIP3    H175973   0.991   6.096  17.237 -0.7357 -0.9588  0.4528
18186TIP3    H275974   1.114   6.073  17.152 -1.3696 -4.7041  0.4738
18187TIP3   OH275975   3.150   2.252   6.110 -0.0426 -0.4987 -0.2214
18187TIP3    H175976   3.224   2.298   6.148 -0.9764  0.6609  0.2575
18187TIP3    H275977   3.144   2.286   6.020 -1.7828  1.6626  0.6708
18188TIP3   OH275978   2.816   6.136  12.672  0.0797 -0.2312 -0.2779
18188TIP3    H175979   2.888   6.086  12.633 -1.1069 -1.8989 -0.3330
18188TIP3    H275980   2.857   6.184  12.744  1.1899 -1.4286 -0.0940
18189TIP3   OH275981   2.001   0.783  16.325  0.4311  0.8692 -0.0723
18189TIP3    H175982   1.946   0.723  16.376  1.6362 -0.4078 -0.2393
18189TIP3    H275983   2.090   0.749  16.337  1.0710  2.3622 -0.5574
18190TIP3   OH275984   4.494   1.778  12.805 -0.4049 -0.1666 -0.5937
18190TIP3    H175985   4.495   1.800  12.899 -1.7359  0.9408 -0.8193
18190TIP3    H275986   4.412   1.731  12.793 -1.0519  1.1578 -1.4993
18191TIP3   OH275987   6.421   3.230   5.572 -0.0331  0.1514  0.1317
18191TIP3    H175988   6.507   3.272   5.570 -0.9314  1.9598 -1.1918
18191TIP3    H275989   6.406   3.201   5.482 -1.6359  1.5801 -0.0854
18192TIP3   OH275990   1.132   3.138   4.223 -0.1175 -0.8533 -0.2730
18192TIP3    H175991   1.226   3.138   4.208 -0.0754 -1.2543 -0.0281
18192TIP3    H275992   1.108   3.230   4.226  0.2075 -0.7565 -0.7016
18193TIP3   OH275993   4.526   3.895   1.254  0.0558 -0.5492  0.6343
18193TIP3    H175994   4.545   3.890   1.348 -0.9191  2.5556  1.0663
18193TIP3    H275995   4.529   3.805   1.224 -1.4852 -1.8112  4.0240
18194TIP3   OH275996   5.035   5.817  16.648 -0.3406 -0.1002 -0.0019
18194TIP3    H175997   4.976   5.797  16.720 -0.4633 -0.0662 -0.0905
18194TIP3    H275998   5.053   5.732  16.607 -0.5160 -0.0804 -0.1185
18195TIP3   OH275999   6.706   0.009  16.989 -0.0302  0.0555  0.2909
18195TIP3    H176000   6.666   0.060  16.919 -0.0375  1.5064  1.3500
18195TIP3    H276001   6.665  -0.078  16.981 -0.3380  0.3150 -1.2205
18196TIP3   OH276002   4.763   4.644   0.714  0.9512 -0.2438 -0.9656
18196TIP3    H176003   4.698   4.703   0.753  3.2009  0.6061  1.7277
18196TIP3    H276004   4.712   4.573   0.676 -1.6626  1.8118 -1.4300
18197TIP3   OH276005   4.307   2.971  11.351  0.3211  0.3060 -0.0487
18197TIP3    H176006   4.270   2.914  11.418  2.6698  0.2728  1.2666
18197TIP3    H276007   4.395   2.937  11.336  0.6923  1.7944 -1.3735
18198TIP3   OH276008   1.844   4.659  11.528 -0.4566 -0.7468  0.2199
18198TIP3    H176009   1.787   4.695  11.597 -0.5137  0.7948 -0.6034
18198TIP3    H276010   1.848   4.729  11.463  1.4761 -1.2997 -0.2595
18199TIP3   OH276011   2.692   2.913   2.127 -0.6947  0.0471  0.0193
18199TIP3    H176012   2.746   2.839   2.100 -0.9231 -0.1835  0.1910
18199TIP3    H276013   2.604   2.890   2.099 -0.5336  0.9144 -1.2358
18200TIP3   OH276014   3.450   3.591   3.204 -0.3080 -0.0518 -0.0993
18200TIP3    H176015   3.397   3.521   3.240 -0.1212 -0.2893 -0.2861
18200TIP3    H276016   3.387   3.648   3.159 -0.2657 -0.9592 -1.3330
18201TIP3   OH276017   4.485   1.540  15.279  0.3268 -0.0517 -0.0445
18201TIP3    H176018   4.398   1.568  15.306  1.0564  0.9758  1.2811
18201TIP3    H276019   4.518   1.488  15.352  1.2960  0.6068  0.0124
18202TIP3   OH276020   3.755   3.153  17.098  0.3591 -0.1614 -0.6856
18202TIP3    H176021   3.803   3.210  17.038 -0.5610  1.7754  0.3511
18202TIP3    H276022   3.789   3.178  17.185 -0.8812 -0.3911 -0.1355
18203TIP3   OH276023   4.080   5.975  12.571 -0.0112 -0.6070 -0.2449
18203TIP3    H176024   4.161   6.007  12.530  1.0096  0.3179  2.4441
18203TIP3    H276025   4.043   6.051  12.615 -1.1529 -1.5586  0.4563
18204TIP3   OH276026   2.217   0.806  13.382 -0.4623 -0.4631 -0.4334
18204TIP3    H176027   2.243   0.872  13.447 -0.3567 -0.9021 -0.0222
18204TIP3    H276028   2.128   0.832  13.357 -1.1345 -1.2122  1.1085
18205TIP3   OH276029   5.942   0.231   2.318  0.1267  0.4924 -0.5960
18205TIP3    H176030   6.038   0.230   2.313  0.2029 -1.7289  0.6244
18205TIP3    H276031   5.920   0.321   2.342  1.7961  1.4335 -2.4462
18206TIP3   OH276032   6.396   6.651  13.439 -0.3725 -0.2875  0.2812
18206TIP3    H176033   6.321   6.701  13.407 -0.8064 -0.7983  0.4894
18206TIP3    H276034   6.387   6.653  13.534 -1.4849 -2.3878  0.2524
18207TIP3   OH276035   5.072   6.775  12.188  1.2642 -0.2771 -0.1939
18207TIP3    H176036   5.141   6.708  12.187  0.9186 -0.6401 -0.0298
18207TIP3    H276037   5.042   6.780  12.098  0.8050 -0.8557 -0.0776
18208TIP3   OH276038   2.604   0.045  14.177 -0.0602  0.4126  0.3280
18208TIP3    H176039   2.648   0.125  14.149 -1.2613  1.5311  1.6365
18208TIP3    H276040   2.511   0.062  14.165 -0.3415 -0.7557  0.7057
18209TIP3   OH276041   6.776   3.595   5.624  0.4197 -0.0187 -0.3210
18209TIP3    H176042   6.818   3.569   5.707  0.5528  1.0742 -0.0383
18209TIP3    H276043   6.846   3.590   5.559  0.3680 -0.6612 -0.3366
18210TIP3   OH276044   0.202   5.758  14.675 -0.1682  0.4656  0.0289
18210TIP3    H176045   0.288   5.754  14.633  0.3173  2.3195  0.8212
18210TIP3    H276046   0.212   5.708  14.756  0.5810  1.9177  0.8354
18211TIP3   OH276047   2.928   4.707  15.364  0.2427  0.1930  0.0335
18211TIP3    H176048   2.993   4.691  15.433  1.2624 -1.0194 -1.1774
18211TIP3    H276049   2.968   4.670  15.285 -0.2174  2.9249 -1.5541
18212TIP3   OH276050   0.631   2.714   1.169 -0.1678  0.1003 -0.6900
18212TIP3    H176051   0.568   2.690   1.237 -0.7334  0.4592 -1.0874
18212TIP3    H276052   0.593   2.682   1.088 -0.4703  1.4666 -1.0966
18213TIP3   OH276053   5.253   1.232  13.595  0.2513 -0.1420  0.2222
18213TIP3    H176054   5.322   1.174  13.565  0.4631 -1.3608  3.0022
18213TIP3    H276055   5.219   1.191  13.674 -1.1608  2.3323  0.9488
18214TIP3   OH276056   1.816   2.850  15.186  0.0546  0.1190 -0.3414
18214TIP3    H176057   1.731   2.890  15.203  0.0932 -0.2972  0.9413
18214TIP3    H276058   1.802   2.793  15.110 -0.7935  0.1089 -0.1760
18215TIP3   OH276059   0.746   6.010  10.948 -0.0599 -0.0233 -0.0402
18215TIP3    H176060   0.668   5.957  10.930  0.8101 -0.7931 -1.7167
18215TIP3    H276061   0.802   5.954  11.002  0.4299 -0.4514 -0.9820
18216TIP3   OH276062   2.603   1.013  11.757  0.3697  0.3510  0.1808
18216TIP3    H176063   2.590   1.080  11.824  0.9470  0.9866 -0.3389
18216TIP3    H276064   2.693   0.985  11.768  0.5555  0.6565 -0.5039
18217TIP3   OH276065   3.171   1.287  14.306  0.5147 -0.3225  0.5046
18217TIP3    H176066   3.093   1.265  14.358  0.1024  0.1358  0.0863
18217TIP3    H276067   3.236   1.316  14.371  0.3552 -0.7633  0.8604
18218TIP3   OH276068   4.540   3.456  10.589  0.3474  0.4983 -0.0613
18218TIP3    H176069   4.461   3.412  10.557 -0.4401  0.5179  1.7738
18218TIP3    H276070   4.597   3.462  10.512 -1.3263  0.2604 -1.3530
18219TIP3   OH276071   4.341   2.337  16.678 -0.0695 -0.3180  0.8149
18219TIP3    H176072   4.284   2.353  16.753 -1.2769 -1.5587  0.1926
18219TIP3    H276073   4.295   2.270  16.627 -0.5951  2.4163 -2.4716
18220TIP3   OH276074   2.854   2.847   1.258 -0.0096 -0.3696 -0.0521
18220TIP3    H176075   2.884   2.790   1.329 -0.6723  0.0077  0.5351
18220TIP3    H276076   2.854   2.790   1.181 -1.8572 -1.5380  0.7542
18221TIP3   OH276077   1.234   6.373  12.130  0.3212 -0.1578 -0.2005
18221TIP3    H176078   1.275   6.345  12.213  0.3010 -2.4294 -0.9110
18221TIP3    H276079   1.152   6.323  12.126 -0.1585  0.6988 -1.1088
18222TIP3   OH276080   6.526   2.946  14.369  0.4868 -0.1805  0.4749
18222TIP3    H176081   6.567   3.009  14.310  1.4653  1.8138  3.1800
18222TIP3    H276082   6.460   2.996  14.416 -1.2472 -2.0820  0.1279
18223TIP3   OH276083   6.233   6.025   4.373 -0.1540 -0.0244  0.2299
18223TIP3    H176084   6.274   6.061   4.294 -1.0025  0.6404  0.0802
18223TIP3    H276085   6.258   6.086   4.443  1.5721 -1.2592  0.7075
18224TIP3   OH276086   3.621   3.818  15.765  0.3980 -0.0604  0.0709
18224TIP3    H176087   3.717   3.826  15.766  0.4043 -0.1237 -0.0185
18224TIP3    H276088   3.590   3.907  15.749  0.4373 -0.0094  0.2734
18225TIP3   OH276089   3.860   6.261   3.851  0.3591  0.4209  0.9959
18225TIP3    H176090   3.891   6.233   3.765 -2.7030  1.0809 -0.3812
18225TIP3    H276091   3.839   6.180   3.897  0.3139  0.1280  0.4582
18226TIP3   OH276092   6.456   4.936  13.978 -0.1151 -0.1221  0.0897
18226TIP3    H176093   6.544   4.902  13.961 -0.5257 -0.7393 -0.8215
18226TIP3    H276094   6.419   4.950  13.891 -0.5592  1.0912  0.4680
18227TIP3   OH276095   6.272   0.413   3.683  0.0420 -0.2298 -0.7578
18227TIP3    H176096   6.207   0.470   3.724  0.8385 -0.7811  1.3604
18227TIP3    H276097   6.330   0.472   3.636 -2.3892  0.2070 -3.2911
18228TIP3   OH276098   6.269   0.637   1.947 -0.6384 -0.1066 -0.5394
18228TIP3    H176099   6.362   0.618   1.935 -0.1755  1.7024  0.0467
18228TIP3    H276100   6.268   0.717   2.000 -2.5353 -1.0740  0.9241
18229TIP3   OH276101   5.508   0.415  14.659  0.5091  0.2613 -0.2994
18229TIP3    H176102   5.523   0.479  14.729  0.3816 -1.4655  1.3604
18229TIP3    H276103   5.593   0.408  14.616  0.2059  2.4608 -1.3363
18230TIP3   OH276104   0.175   4.916  11.976  0.0632  0.5046 -0.2570
18230TIP3    H176105   0.243   4.929  11.911 -1.0304  1.1063 -1.3113
18230TIP3    H276106   0.178   4.822  11.996  1.4221  0.5925 -0.0219
18231TIP3   OH276107   6.615   5.870  16.885 -0.4526  0.3408  0.1854
18231TIP3    H176108   6.640   5.778  16.875  1.7953  1.1610 -2.6074
18231TIP3    H276109   6.585   5.895  16.797 -1.5299  2.1566  1.0489
18232TIP3   OH276110   4.204   6.781  15.087  0.9471 -0.0643  0.2472
18232TIP3    H176111   4.145   6.854  15.102 -0.6278 -0.6822 -2.5843
18232TIP3    H276112   4.289   6.812  15.119  0.2403  2.8587 -0.5510
18233TIP3   OH276113   6.498   0.693   2.918  0.6420  0.4314  0.3826
18233TIP3    H176114   6.546   0.767   2.881 -0.2725  0.2651 -1.1778
18233TIP3    H276115   6.546   0.616   2.888 -0.1068  0.2971 -0.4995
18234TIP3   OH276116   5.324   6.198  13.113 -0.0601  0.7835  0.3702
18234TIP3    H176117   5.325   6.169  13.204  1.8236  0.2311  0.1942
18234TIP3    H276118   5.407   6.245  13.102 -0.5322  1.3385 -0.9080
18235TIP3   OH276119   1.232   0.566   6.100  0.2689 -0.2703  0.0993
18235TIP3    H176120   1.140   0.540   6.105 -0.0784  0.9935  0.3562
18235TIP3    H276121   1.248   0.614   6.181  1.2267 -0.6755  0.1568
18236TIP3   OH276122   1.464   4.992  12.936  0.4919 -0.4000  0.0144
18236TIP3    H176123   1.502   5.010  12.850 -0.0572 -1.2648 -0.4047
18236TIP3    H276124   1.444   4.899  12.936  0.0453 -0.3164  0.9050
18237TIP3   OH276125   1.176   6.579  14.066 -0.5981 -0.4241 -0.3308
18237TIP3    H176126   1.190   6.612  13.977 -0.6191  0.0404 -0.1650
18237TIP3    H276127   1.263   6.552  14.096 -0.8079 -1.8586 -0.9896
18238TIP3   OH276128   2.234   4.981  16.995 -0.3324 -0.0962  0.4597
18238TIP3    H176129   2.227   4.929  16.915  1.1974  0.2047  0.1235
18238TIP3    H276130   2.327   4.999  17.004 -0.6926  1.3909  1.3427
18239TIP3   OH276131   5.837   4.247  14.784  0.0898  0.1264  0.4349
18239TIP3    H176132   5.814   4.196  14.862  1.4044 -0.6113  0.3552
18239TIP3    H276133   5.790   4.203  14.713  1.0114 -0.8481  0.4078
18240TIP3   OH276134   5.303   2.938   2.360 -0.2447 -0.2279 -0.1009
18240TIP3    H176135   5.213   2.906   2.357 -0.2594 -0.1920 -0.0374
18240TIP3    H276136   5.301   3.012   2.421 -0.5121  0.8659 -1.4094
18241TIP3   OH276137   0.720   1.019   5.824  0.5603  0.3471 -0.0254
18241TIP3    H176138   0.752   1.083   5.761  0.7360 -0.0262 -0.3185
18241TIP3    H276139   0.706   1.070   5.904  1.3901  0.6198 -0.0458
18242TIP3   OH276140   6.063   2.579  12.590  0.1278 -0.2081  0.0206
18242TIP3    H176141   6.045   2.485  12.587  2.2784 -0.6089 -1.3320
18242TIP3    H276142   6.146   2.586  12.637  0.0349  1.0195  0.0203
18243TIP3   OH276143   4.800   2.728   1.916 -0.7720  0.3047  0.3958
18243TIP3    H176144   4.807   2.818   1.884 -1.0129 -0.1684 -1.0406
18243TIP3    H276145   4.726   2.691   1.867 -0.5822 -0.7162  0.8698
18244TIP3   OH276146   6.542   0.251  14.599 -0.0491 -0.7303  0.3600
18244TIP3    H176147   6.572   0.257  14.689 -0.4766 -1.9133  0.5943
18244TIP3    H276148   6.472   0.316  14.591  1.1467  0.5844  0.3883
18245TIP3   OH276149   3.576   1.109   5.948 -0.2584 -0.2534  0.5632
18245TIP3    H176150   3.487   1.078   5.962 -0.7624  0.0578 -1.7708
18245TIP3    H276151   3.567   1.201   5.924  0.8813  0.3841  2.3803
18246TIP3   OH276152   4.866   5.730  14.631 -0.5202 -0.1996  0.1126
18246TIP3    H176153   4.827   5.816  14.644 -1.0743 -0.7823  2.4308
18246TIP3    H276154   4.851   5.711  14.538 -0.2553  2.2494 -0.4669
18247TIP3   OH276155   5.769   3.912  14.094  0.4174 -0.5228 -0.6296
18247TIP3    H176156   5.693   3.864  14.061  0.6828 -0.1086 -1.8584
18247TIP3    H276157   5.782   3.877  14.182 -1.1861 -0.6069 -0.4037
18248TIP3   OH276158   6.259   5.796   6.007  0.7205  0.0781  0.1615
18248TIP3    H176159   6.178   5.827   6.046 -0.6520  1.1298 -3.3847
18248TIP3    H276160   6.251   5.700   6.009  0.3495  0.1282  1.7088
18249TIP3   OH276161   2.931   1.866  15.817 -0.0777  0.6131 -0.5518
18249TIP3    H176162   2.932   1.896  15.908 -0.6288 -0.1876 -0.2794
18249TIP3    H276163   2.874   1.928  15.772 -0.8509  0.2472 -0.0832
18250TIP3   OH276164   3.836   1.046  16.690  0.4949  0.0476  0.6336
18250TIP3    H176165   3.832   1.142  16.688  0.1078 -0.0013 -1.5627
18250TIP3    H276166   3.748   1.018  16.664  1.0631 -0.9057 -0.2871
18251TIP3   OH276167   2.092   1.364   0.725  0.2398  0.3665  0.1546
18251TIP3    H176168   2.024   1.323   0.671  0.4794 -0.4820  0.4778
18251TIP3    H276169   2.111   1.447   0.682 -0.2435  0.1243 -0.5322
18252TIP3   OH276170   6.763   0.233  14.385 -0.3543 -0.1442 -0.0676
18252TIP3    H176171   6.763   0.139  14.402  0.6185 -0.1594 -0.1084
18252TIP3    H276172   6.695   0.268  14.442 -1.0128 -0.9288 -0.3626
18253TIP3   OH276173   6.160   0.139  12.053 -0.6092 -0.2648 -0.0784
18253TIP3    H176174   6.156   0.193  11.974 -3.7127  2.1951  1.6225
18253TIP3    H276175   6.133   0.052  12.023  0.5534  0.0398 -2.1443
18254TIP3   OH276176   4.357   3.080   2.995 -0.3746 -0.2860  0.2843
18254TIP3    H176177   4.279   3.121   3.032 -0.7355  1.5591 -2.4119
18254TIP3    H276178   4.430   3.127   3.035 -0.6702 -0.6292  1.2412
18255TIP3   OH276179   5.456   0.027  10.802  0.1167 -0.7328 -0.2080
18255TIP3    H176180   5.526  -0.039  10.812 -0.4387 -1.7127 -2.5313
18255TIP3    H276181   5.491   0.089  10.738  0.4640  1.0529  1.6701
18256TIP3   OH276182   1.021   5.897   2.361 -0.7313  0.2637 -1.1476
18256TIP3    H176183   0.928   5.913   2.377 -1.1396 -1.8023 -1.3393
18256TIP3    H276184   1.053   5.857   2.441  0.4143  2.4863 -0.4509
18257TIP3   OH276185   0.912   5.197   5.121 -0.3925 -0.2555  0.1612
18257TIP3    H176186   0.955   5.259   5.179 -1.3913  0.3563  0.2530
18257TIP3    H276187   0.982   5.135   5.096  0.9485  1.6647 -1.0299
18258TIP3   OH276188   5.369   3.274  13.515  0.4978 -0.3975  0.1413
18258TIP3    H176189   5.443   3.317  13.473 -1.1000  1.7456 -0.5809
18258TIP3    H276190   5.307   3.259  13.443  1.0713 -4.1650  0.3115
18259TIP3   OH276191   3.231   5.140   5.044 -0.7908 -0.0560  0.2693
18259TIP3    H176192   3.259   5.230   5.065  0.5575 -0.3684 -0.1392
18259TIP3    H276193   3.251   5.090   5.123 -1.3246 -0.0395  0.4122
18260TIP3   OH276194   5.395   3.997   2.092 -0.1499  0.3579 -0.0780
18260TIP3    H176195   5.386   4.033   2.180 -2.1434 -0.5105  0.1131
18260TIP3    H276196   5.442   3.915   2.104 -1.8683 -0.5834  0.4286
18261TIP3   OH276197   3.567   1.702  11.886 -0.1026  0.4389  0.3812
18261TIP3    H176198   3.510   1.779  11.874  1.3410  1.5464  0.5189
18261TIP3    H276199   3.508   1.627  11.877 -1.3559  1.5402 -0.8224
18262TIP3   OH276200   4.906   1.278  11.958  0.1468  0.0315  0.1109
18262TIP3    H176201   4.960   1.209  11.996 -0.1742 -0.5166 -0.4150
18262TIP3    H276202   4.833   1.231  11.916 -0.0329  0.6836 -0.3133
18263TIP3   OH276203   3.160   2.621  13.865  0.2432  0.2363  0.2203
18263TIP3    H176204   3.224   2.618  13.794 -0.7602 -1.0947 -0.6363
18263TIP3    H276205   3.086   2.669  13.829  0.2404  0.6768  0.8028
18264TIP3   OH276206   0.637   2.088   2.725  0.4077 -0.1574 -0.1314
18264TIP3    H176207   0.667   2.017   2.668 -0.7448 -0.3076 -0.5650
18264TIP3    H276208   0.544   2.099   2.703  0.2404  0.5625  0.9042
18265TIP3   OH276209   6.773   6.655  14.776 -0.0536  0.3549  0.5078
18265TIP3    H176210   6.700   6.665  14.714  0.0538 -1.9166 -0.0531
18265TIP3    H276211   6.741   6.589  14.838  2.2492 -2.2762 -0.9748
18266TIP3   OH276212   2.147   3.217   5.416  0.2151 -0.3535 -0.0543
18266TIP3    H176213   2.125   3.174   5.334  3.4792 -0.9466 -0.6892
18266TIP3    H276214   2.137   3.311   5.398 -0.2680 -0.5403 -0.7489
18267TIP3   OH276215   1.535   0.564  13.851  0.4776 -0.4527  0.7598
18267TIP3    H176216   1.508   0.546  13.941  1.3813 -1.7149  0.7897
18267TIP3    H276217   1.492   0.496  13.800 -0.7807  0.8080  0.1029
18268TIP3   OH276218   2.150   2.787  14.980  0.3967  0.2420  0.0735
18268TIP3    H176219   2.163   2.692  14.987  0.4593  0.2297 -0.2001
18268TIP3    H276220   2.235   2.824  15.006  0.0180  0.2598  1.2888
18269TIP3   OH276221   4.489   1.613   2.518  0.4091 -0.0744 -0.0068
18269TIP3    H176222   4.539   1.575   2.445  0.0790 -0.2323 -0.1522
18269TIP3    H276223   4.437   1.540   2.551  1.7316 -0.4086  1.4077
18270TIP3   OH276224   2.600   2.669   3.137 -0.5694  0.1793 -0.3661
18270TIP3    H176225   2.605   2.739   3.203  0.1880  0.3034 -0.5465
18270TIP3    H276226   2.668   2.607   3.163 -1.0311 -0.3390 -0.3871
18271TIP3   OH276227   0.316   6.071   3.017 -0.0863 -0.1786 -0.1944
18271TIP3    H176228   0.362   6.139   2.968  1.2730  0.1683  1.4964
18271TIP3    H276229   0.251   6.118   3.069  0.5754 -0.1902  0.6636
18272TIP3   OH276230   5.462   1.087  13.492 -0.4042  0.0915 -0.4740
18272TIP3    H176231   5.546   1.127  13.469  0.3107 -1.7701 -1.1568
18272TIP3    H276232   5.485   1.000  13.524 -1.8714  0.5035  1.8380
18273TIP3   OH276233   5.740   2.825  16.763  0.0964 -0.0199 -0.5690
18273TIP3    H176234   5.800   2.889  16.800 -0.4598 -0.2936  0.8698
18273TIP3    H276235   5.793   2.772  16.704  1.3334 -0.4033  0.8511
18274TIP3   OH276236   0.412   3.459   6.107 -0.4827 -0.0701  0.0913
18274TIP3    H176237   0.400   3.377   6.154  3.3460 -1.2020 -0.7156
18274TIP3    H276238   0.365   3.447   6.025 -1.0558 -0.9430  0.5396
18275TIP3   OH276239   2.583   1.882   2.262 -0.5939  0.2598 -0.3884
18275TIP3    H176240   2.633   1.827   2.322  0.6150  0.5564 -1.1023
18275TIP3    H276241   2.596   1.841   2.176  0.5928  1.8112 -0.9855
18276TIP3   OH276242   3.959   3.329  15.728 -0.1155  0.0818  0.8726
18276TIP3    H176243   3.920   3.254  15.682 -1.1773  1.8135 -1.1656
18276TIP3    H276244   3.892   3.396  15.725  1.4002  1.6539  1.2459
18277TIP3   OH276245   5.526   4.051  12.743 -0.5040 -0.4435 -0.0105
18277TIP3    H176246   5.550   4.023  12.655  2.2371 -0.0880  0.5795
18277TIP3    H276247   5.503   3.971  12.789  0.6221 -0.9527 -0.3129
18278TIP3   OH276248   6.726   1.121  15.571 -0.0008  0.7098  0.1442
18278TIP3    H176249   6.819   1.101  15.575 -0.0210  0.5336 -0.2491
18278TIP3    H276250   6.713   1.188  15.637  0.6932  1.8278 -0.8320
18279TIP3   OH276251   5.435   6.563  10.619 -0.5696  0.1524  0.1967
18279TIP3    H176252   5.429   6.501  10.546  0.7974  0.0708  0.1475
18279TIP3    H276253   5.498   6.629  10.589 -1.5558  1.2479  0.4869
18280TIP3   OH276254   0.087   5.030   3.566 -0.4055  0.6358  1.0574
18280TIP3    H176255   0.149   5.042   3.495 -1.5411 -0.8502 -0.2174
18280TIP3    H276256   0.135   4.981   3.633  0.1685  0.5937  0.6184
18281TIP3   OH276257   3.640   3.984   2.653  0.3693 -0.1023 -0.1050
18281TIP3    H176258   3.563   3.928   2.653  0.6937 -0.5759 -1.5538
18281TIP3    H276259   3.648   4.015   2.743 -2.8616  1.8500 -0.4195
18282TIP3   OH276260   4.075   0.093   5.006  0.1775 -0.3657  0.2070
18282TIP3    H176261   4.168   0.113   4.993 -0.0183  0.4226 -0.0156
18282TIP3    H276262   4.033   0.123   4.925 -0.2198 -1.0681  0.1491
18283TIP3   OH276263   4.837   4.681   3.907 -0.6289 -0.6107 -0.2259
18283TIP3    H176264   4.911   4.622   3.892  0.6307  0.7007  0.7211
18283TIP3    H276265   4.855   4.721   3.992 -2.3084 -0.0938 -0.0992
18284TIP3   OH276266   5.974   4.793   2.313  0.0235  0.2465  0.6090
18284TIP3    H176267   5.972   4.862   2.378  1.3000  0.6156  0.2829
18284TIP3    H276268   6.027   4.724   2.353 -0.0725  0.0402  0.3835
18285TIP3   OH276269   6.194   4.817   0.860 -0.2246  0.3474 -0.1307
18285TIP3    H176270   6.146   4.737   0.837 -0.6010 -0.0160  1.8510
18285TIP3    H276271   6.125   4.879   0.883 -0.0050  1.6557 -2.7695
18286TIP3   OH276272   3.079   5.154   0.434 -0.2497 -0.2255 -0.2664
18286TIP3    H176273   3.122   5.198   0.360  2.4044 -1.9362  0.2030
18286TIP3    H276274   2.996   5.123   0.398 -1.1272  3.0254 -1.2333
18287TIP3   OH276275   5.608   6.759   2.510 -0.1314  0.6260  0.0769
18287TIP3    H176276   5.542   6.698   2.476  0.6180 -0.4049  0.4655
18287TIP3    H276277   5.657   6.709   2.575  1.3742  1.2257 -0.5711
18288TIP3   OH276278   1.707   1.210  16.900  0.3875  0.7670 -0.0567
18288TIP3    H176279   1.761   1.134  16.917  0.4599  1.1757  1.6063
18288TIP3    H276280   1.624   1.174  16.868  0.8594  0.0541 -0.4757
18289TIP3   OH276281   3.844   6.700   4.145  0.3593  0.1847  0.5442
18289TIP3    H176282   3.920   6.746   4.110  0.0873  1.2996  1.3879
18289TIP3    H276283   3.769   6.746   4.108  0.0843  0.1514  1.0596
18290TIP3   OH276284   3.113   0.047  11.563  0.4491  0.1838 -0.5211
18290TIP3    H176285   3.088   0.128  11.607 -0.2427 -0.1749 -0.2443
18290TIP3    H276286   3.205   0.034  11.587 -0.1642 -0.4821  1.6004
18291TIP3   OH276287   6.333   1.461  12.721  0.2368 -0.1879  0.3344
18291TIP3    H176288   6.331   1.411  12.639  0.5195 -0.4314  0.4767
18291TIP3    H276289   6.386   1.407  12.780  0.7981  0.4354  0.3949
18292TIP3   OH276290   3.483   5.972   5.100 -0.4168 -0.1759  0.1132
18292TIP3    H176291   3.571   5.942   5.125 -0.0811  0.8614  0.2036
18292TIP3    H276292   3.428   5.952   5.176  0.0796  0.6324  0.7004
18293TIP3   OH276293   0.700   4.444  10.660  0.0573 -0.5645  0.5793
18293TIP3    H176294   0.644   4.499  10.606 -1.5811  0.3084  3.0625
18293TIP3    H276295   0.660   4.357  10.656  0.4501 -0.7059 -0.3046
18294TIP3   OH276296   4.542   0.311   2.064 -0.7074 -0.4755 -0.4131
18294TIP3    H176297   4.500   0.376   2.007 -0.6088  1.5252  1.6989
18294TIP3    H276298   4.635   0.321   2.048 -0.6768  0.1278  0.0784
18295TIP3   OH276299   2.873   1.392   0.409 -0.0162 -0.5105  0.0412
18295TIP3    H176300   2.847   1.472   0.454 -1.2402 -0.3233 -0.9651
18295TIP3    H276301   2.959   1.411   0.372 -0.7330  0.6951 -1.0329
18296TIP3   OH276302   0.874   0.813  12.497  0.5946  0.0506  0.0859
18296TIP3    H176303   0.819   0.841  12.571  0.7511 -0.5768  0.4466
18296TIP3    H276304   0.925   0.890  12.474 -1.0733  0.8932 -0.8294
18297TIP3   OH276305   1.961   6.242  13.670 -0.3309  0.0825  0.0287
18297TIP3    H176306   2.041   6.197  13.696 -0.8927 -0.5319  0.7490
18297TIP3    H276307   1.928   6.191  13.596  0.0315  0.4377 -0.3792
18298TIP3   OH276308   5.104   5.666  12.701 -0.1408  0.5272 -0.0807
18298TIP3    H176309   5.138   5.639  12.787 -0.6904  2.4616  0.7648
18298TIP3    H276310   5.024   5.614  12.690  0.0586  0.0923  0.4650
18299TIP3   OH276311   4.797   0.614   0.873 -0.0194 -0.1503 -0.0561
18299TIP3    H176312   4.847   0.579   0.799 -0.1585  1.6777 -1.0347
18299TIP3    H276313   4.843   0.694   0.897 -1.1904  0.3653  0.4774
18300TIP3   OH276314   3.169   4.165  16.003 -0.1896 -0.2890 -0.0382
18300TIP3    H176315   3.089   4.217  16.002 -0.7237 -1.0995  0.0920
18300TIP3    H276316   3.239   4.228  16.018 -0.8015  0.4250 -0.1804
18301TIP3   OH276317   0.410   4.399   4.330 -0.4648  0.1684  0.3773
18301TIP3    H176318   0.330   4.445   4.303 -0.1165  0.8217  0.4451
18301TIP3    H276319   0.413   4.410   4.425 -0.0266  0.5859  0.3166
18302TIP3   OH276320   5.980   2.905   1.324  0.0773 -0.1089 -0.4213
18302TIP3    H176321   5.899   2.908   1.375 -0.5532  1.4102 -1.4807
18302TIP3    H276322   6.034   2.975   1.360  0.0572  0.2802 -1.1415
18303TIP3   OH276323   5.735   5.044   2.416  0.0929 -1.2255 -0.2304
18303TIP3    H176324   5.681   4.991   2.357 -1.7337 -1.9490  1.9799
18303TIP3    H276325   5.776   4.980   2.474  0.4350 -0.4370  0.4056
18304TIP3   OH276326   4.730   4.980   1.766 -0.3977 -0.3759  0.3600
18304TIP3    H176327   4.745   4.955   1.675  0.1565  0.6564  0.1613
18304TIP3    H276328   4.702   4.899   1.809  0.1098 -1.0372 -0.5486
18305TIP3   OH276329   1.130   4.550   5.002  0.2630  0.4443  0.5009
18305TIP3    H176330   1.187   4.626   5.009 -0.7906  1.3444 -0.3858
18305TIP3    H276331   1.174   4.491   4.940  1.4475 -0.0111  1.7761
18306TIP3   OH276332   2.611   4.114  11.911  0.1440  0.0159 -0.5504
18306TIP3    H176333   2.534   4.167  11.888 -0.0107  0.6381  1.3230
18306TIP3    H276334   2.581   4.024  11.899 -0.1870  0.2973 -1.9412
18307TIP3   OH276335   1.375   4.162  14.744 -0.0282  0.5627  0.3820
18307TIP3    H176336   1.390   4.256  14.750  1.8484  0.4160 -1.3480
18307TIP3    H276337   1.461   4.125  14.726 -0.8619 -1.4136  0.3124
18308TIP3   OH276338   5.653   2.391   4.955 -0.1551 -0.2705 -0.0733
18308TIP3    H176339   5.568   2.435   4.950  0.7885  1.7120  0.4620
18308TIP3    H276340   5.696   2.431   5.031  1.0306 -1.6434  0.0059
18309TIP3   OH276341   4.983   6.138  14.449  0.1865  0.8750  0.2529
18309TIP3    H176342   4.901   6.147  14.498  0.3100  0.8736  0.4624
18309TIP3    H276343   4.996   6.224  14.409 -0.7167  0.4047 -1.0611
18310TIP3   OH276344   1.890   2.283   0.212  0.3681 -0.0361  0.3812
18310TIP3    H176345   1.826   2.354   0.208  1.5666  1.0429  0.1038
18310TIP3    H276346   1.885   2.251   0.302 -0.0725  0.4985  0.5495
18311TIP3   OH276347   2.419   6.303   3.685  0.0185  0.2258  0.3286
18311TIP3    H176348   2.394   6.235   3.748  1.2115  0.1277  0.7119
18311TIP3    H276349   2.354   6.296   3.615 -1.5965  0.6386  1.7425
18312TIP3   OH276350   2.295   1.882  16.971 -0.8186 -0.1025  0.0733
18312TIP3    H176351   2.203   1.876  16.947 -0.5188  0.4788 -1.2180
18312TIP3    H276352   2.300   1.959  17.028 -0.8764  0.7684 -1.0854
18313TIP3   OH276353   1.544   2.290   5.622 -0.0273 -0.4131  0.4019
18313TIP3    H176354   1.523   2.221   5.685  0.4930 -3.4788 -2.6099
18313TIP3    H276355   1.639   2.300   5.627  0.0457 -0.8454 -0.0334
18314TIP3   OH276356   1.773   3.093   5.315 -0.1949  0.1945 -0.1108
18314TIP3    H176357   1.848   3.137   5.274 -0.5411 -0.0476 -1.0092
18314TIP3    H276358   1.813   3.033   5.379  0.3409  0.6752  0.0090
18315TIP3   OH276359   5.724   1.553  13.004 -0.4811  1.0030 -0.2816
18315TIP3    H176360   5.775   1.622  13.047 -0.8610 -0.1201  2.0055
18315TIP3    H276361   5.787   1.510  12.946 -0.1421  2.9734 -1.4510
18316TIP3   OH276362   5.004   4.436  11.334  0.3139  0.3480 -0.7115
18316TIP3    H176363   4.957   4.501  11.282  0.6359  1.0358 -0.1453
18316TIP3    H276364   5.089   4.476  11.350  0.3226  0.0010  0.0922
18317TIP3   OH276365   3.026   3.965  16.677 -0.0516 -0.0550  0.0058
18317TIP3    H176366   3.015   3.940  16.586 -0.0420  1.8936 -0.5510
18317TIP3    H276367   2.995   4.056  16.681  0.5917  0.1036  1.7819
18318TIP3   OH276368   4.998   1.115   4.994  0.1489  0.7565 -0.0380
18318TIP3    H176369   5.009   1.203   4.958 -0.2373  0.9921  0.4040
18318TIP3    H276370   4.988   1.129   5.089  0.8506  0.1749  0.1222
18319TIP3   OH276371   2.843   2.831  12.972  0.0253  0.4320  0.5374
18319TIP3    H176372   2.773   2.766  12.979  0.7068 -0.3897 -0.2199
18319TIP3    H276373   2.876   2.839  13.061  1.9138 -2.4812  0.1727
18320TIP3   OH276374   4.010   2.209  11.214  0.0161  0.2509  0.0742
18320TIP3    H176375   4.003   2.117  11.190 -1.2353  0.0674  1.1192
18320TIP3    H276376   4.057   2.209  11.297  2.0381  0.7260 -1.0248
18321TIP3   OH276377   1.738   6.584   0.384  0.6808 -0.1835  0.0053
18321TIP3    H176378   1.728   6.563   0.291 -0.8086  1.2873 -0.1900
18321TIP3    H276379   1.832   6.590   0.397  0.9406 -1.4275 -1.1784
18322TIP3   OH276380   3.615   2.093   4.477  0.3467  0.1242  0.2293
18322TIP3    H176381   3.636   2.000   4.482 -1.3640 -0.2119  1.4651
18322TIP3    H276382   3.641   2.129   4.562  0.6661  0.7068 -0.1108
18323TIP3   OH276383   6.025   0.547  11.747 -0.6062 -0.1004  0.2639
18323TIP3    H176384   6.042   0.579  11.658  0.1210 -0.8223  0.1401
18323TIP3    H276385   6.096   0.585  11.800 -0.9280  0.1734  0.5049
18324TIP3   OH276386   3.269   6.465   3.755 -0.5394 -0.2336  0.5171
18324TIP3    H176387   3.274   6.400   3.826 -0.4100 -0.5420  0.2271
18324TIP3    H276388   3.179   6.497   3.758 -0.5595 -0.3082  0.7637
18325TIP3   OH276389   3.048   6.693  10.973  0.5680  0.5267  0.1443
18325TIP3    H176390   3.074   6.773  11.019  2.4054  0.3936 -0.6325
18325TIP3    H276391   3.063   6.712  10.881 -0.1797 -0.2908 -0.1521
18326TIP3   OH276392   6.192   5.336  17.215  0.2189  0.6099  0.4687
18326TIP3    H176393   6.261   5.395  17.247 -0.2557  0.1732  2.3379
18326TIP3    H276394   6.155   5.297  17.294 -2.1361  0.7827 -0.5093
18327TIP3   OH276395   4.638   0.346   3.165  0.4086  0.0112  0.5371
18327TIP3    H176396   4.727   0.357   3.199  1.9366  1.5351 -3.6291
18327TIP3    H276397   4.602   0.434   3.164 -0.6990 -0.4367  1.0390
18328TIP3   OH276398   3.227   1.950  17.026 -0.6204  0.1531 -0.0477
18328TIP3    H176399   3.296   2.016  17.028 -1.0024  0.6432 -1.6682
18328TIP3    H276400   3.184   1.957  17.111  0.2315  1.0238  0.3270
18329TIP3   OH276401   2.000   2.437  13.112 -0.3815  0.7141 -0.3193
18329TIP3    H176402   1.998   2.364  13.050 -0.3140  0.5999 -0.1883
18329TIP3    H276403   2.037   2.510  13.062 -0.4212  0.6512 -0.4420
18330TIP3   OH276404   5.223   5.269   1.347 -0.0225 -0.7056 -0.0515
18330TIP3    H176405   5.290   5.303   1.288 -1.1565  1.8131  0.0451
18330TIP3    H276406   5.264   5.193   1.388  3.0104  1.0993  0.4442
18331TIP3   OH276407   2.283   6.585   3.283  0.5695 -0.6045  0.0875
18331TIP3    H176408   2.200   6.544   3.257  0.0119  1.3811 -1.3851
18331TIP3    H276409   2.348   6.547   3.224  0.4353 -0.9423  0.1536
18332TIP3   OH276410   0.559   2.467  14.552  0.4531  0.3540 -0.4139
18332TIP3    H176411   0.629   2.404  14.535 -0.7743 -0.8808 -0.9371
18332TIP3    H276412   0.554   2.519  14.472 -0.3788 -0.6688 -1.0241
18333TIP3   OH276413   3.997   0.192   3.024  0.7649 -0.2691  0.4043
18333TIP3    H176414   3.955   0.277   3.014 -0.4337 -0.8518  0.3527
18333TIP3    H276415   4.003   0.178   3.118 -1.4434 -1.2650  0.4275
18334TIP3   OH276416   3.601   4.732   5.271 -0.5689 -0.0585  0.0307
18334TIP3    H176417   3.652   4.700   5.197  0.5992  0.7585  0.4676
18334TIP3    H276418   3.600   4.659   5.333 -2.2464 -1.0294 -1.1325
18335TIP3   OH276419   4.682   5.032  13.809  0.2480 -0.0080 -0.2658
18335TIP3    H176420   4.725   4.961  13.763 -3.0094 -2.1979 -0.1112
18335TIP3    H276421   4.594   4.999  13.828  0.6670  1.5540  5.5513
18336TIP3   OH276422   6.049   6.019   5.374 -0.7295  0.5939 -0.7794
18336TIP3    H176423   6.096   5.952   5.424 -0.6683  0.8528 -0.4899
18336TIP3    H276424   5.958   5.991   5.377 -0.6732  0.4029 -0.8455
18337TIP3   OH276425   5.523   5.585  13.986  0.5956  0.0691  0.0562
18337TIP3    H176426   5.581   5.570  13.912  0.2642 -0.5486 -0.0838
18337TIP3    H276427   5.438   5.603  13.947 -0.1586 -2.7125  0.2936
18338TIP3   OH276428   4.505   3.495  11.791  0.0929  0.0358  0.1070
18338TIP3    H176429   4.590   3.452  11.793  0.2353  0.3163  0.0446
18338TIP3    H276430   4.442   3.423  11.797  0.3497 -0.0189  2.5844
18339TIP3   OH276431   4.715   0.804   4.704 -0.3608 -0.2554 -0.4849
18339TIP3    H176432   4.640   0.796   4.763 -1.1362 -1.4572 -1.6237
18339TIP3    H276433   4.790   0.784   4.760 -0.8245  1.2186  0.7319
18340TIP3   OH276434   5.455   3.182   2.247 -0.1071 -0.7178 -0.0790
18340TIP3    H176435   5.460   3.247   2.317 -0.6358  0.1972 -0.8789
18340TIP3    H276436   5.546   3.169   2.220 -0.0899  0.4456 -0.6019
18341TIP3   OH276437   1.043   6.265   3.486 -0.1780 -0.2631 -0.6277
18341TIP3    H176438   1.108   6.279   3.416 -0.5473 -0.6237 -1.0444
18341TIP3    H276439   1.078   6.194   3.538  0.3209  0.3065 -0.1732
18342TIP3   OH276440   4.031   0.339   5.418  0.5802 -0.1394 -0.2020
18342TIP3    H176441   4.025   0.248   5.447  0.3732 -0.0043  0.1783
18342TIP3    H276442   4.106   0.375   5.465  1.7027 -0.5857 -1.6293
18343TIP3   OH276443   5.528   2.355  17.052 -0.0743 -0.1355  0.1390
18343TIP3    H176444   5.551   2.315  16.968 -2.1478 -1.3544  0.1156
18343TIP3    H276445   5.548   2.448  17.041 -2.0421  0.0275 -2.3509
18344TIP3   OH276446   0.911   4.018  16.117 -0.2117 -0.1605  0.0691
18344TIP3    H176447   0.911   3.959  16.042 -0.9083  0.1445 -0.1741
18344TIP3    H276448   0.928   3.961  16.192  2.4035 -0.1918 -0.5101
18345TIP3   OH276449   3.894   3.212   0.879 -0.1580 -0.3869  0.1757
18345TIP3    H176450   3.899   3.307   0.891 -1.7582 -0.0941 -1.2384
18345TIP3    H276451   3.806   3.197   0.844  0.2672 -2.3332 -0.1112
18346TIP3   OH276452   2.833   1.874  13.942 -0.1370  0.3870 -0.1103
18346TIP3    H176453   2.804   1.900  13.855  1.7313 -0.6830 -1.0815
18346TIP3    H276454   2.816   1.780  13.946 -3.1232  0.9232  1.8904
18347TIP3   OH276455   6.522   5.970  17.215  0.1724  0.0586  0.1387
18347TIP3    H176456   6.571   5.981  17.296 -0.4062 -0.9657  0.6363
18347TIP3    H276457   6.487   6.057  17.195  2.4766  0.8891 -0.4150
18348TIP3   OH276458   4.898   4.462   1.493 -0.3390  0.0854  0.1819
18348TIP3    H176459   4.891   4.381   1.543 -0.8425 -0.8593 -1.3694
18348TIP3    H276460   4.978   4.452   1.442 -0.3406  0.6267  0.0738
18349TIP3   OH276461   2.229   2.347  15.736 -0.2616 -0.2361 -0.7456
18349TIP3    H176462   2.166   2.358  15.808  0.1040 -0.6373 -0.3537
18349TIP3    H276463   2.269   2.433  15.726 -0.2516 -0.1966 -0.4008
18350TIP3   OH276464   3.901   2.356  11.023  0.5975  0.0666  0.0043
18350TIP3    H176465   3.938   2.302  11.093  1.7519  0.0901 -0.5781
18350TIP3    H276466   3.844   2.418  11.068  1.5500  0.2600  0.9586
18351TIP3   OH276467   1.316   6.071   1.763  0.4488 -0.1107  0.1324
18351TIP3    H176468   1.250   6.036   1.823  0.6052 -0.7230 -0.0526
18351TIP3    H276469   1.399   6.044   1.801  0.5822  0.3036  0.1390
18352TIP3   OH276470   4.781   3.869   4.701 -0.0834 -0.1512  0.2619
18352TIP3    H176471   4.701   3.823   4.674  0.5175 -0.5347 -0.9254
18352TIP3    H276472   4.752   3.958   4.720 -0.6541 -0.0360 -1.0848
18353TIP3   OH276473   6.409   1.943  11.245 -0.0722  0.2210 -0.0532
18353TIP3    H176474   6.458   2.017  11.279  0.3886 -0.0027 -0.2192
18353TIP3    H276475   6.382   1.894  11.323  2.3679 -1.1724 -0.0455
18354TIP3   OH276476   1.650   2.305   2.111 -0.4575 -0.1991 -0.4074
18354TIP3    H176477   1.561   2.333   2.089 -0.6487  0.4462  1.0776
18354TIP3    H276478   1.638   2.234   2.174  0.0624 -0.2715 -0.3860
18355TIP3   OH276479   3.484   5.381   5.308 -0.3443  0.0268 -0.3946
18355TIP3    H176480   3.547   5.328   5.356 -0.7383 -1.3940 -1.4118
18355TIP3    H276481   3.398   5.355   5.343 -0.5208  0.3137 -0.6020
18356TIP3   OH276482   1.753   4.118   5.383 -0.0682  0.4035  0.3267
18356TIP3    H176483   1.826   4.169   5.348  0.3378  0.5279  1.3444
18356TIP3    H276484   1.756   4.036   5.335  2.1545 -0.5095  1.9348
18357TIP3   OH276485   3.613   1.637   3.559 -0.2150 -0.4131  0.1762
18357TIP3    H176486   3.573   1.680   3.634  0.1315  0.5503 -0.1789
18357TIP3    H276487   3.542   1.586   3.520 -0.6160 -0.2179  0.6461
18358TIP3   OH276488   6.572   3.588   5.912 -0.4984 -0.4211  0.5577
18358TIP3    H176489   6.617   3.655   5.964 -2.3513  0.9268  0.4704
18358TIP3    H276490   6.611   3.505   5.941  0.9347  0.5824  1.5838
18359TIP3   OH276491   6.391   0.296  15.298 -0.6900  0.2443  0.0122
18359TIP3    H176492   6.340   0.340  15.366 -2.1140  0.2272 -1.0158
18359TIP3    H276493   6.335   0.299  15.220  0.8385  0.1227 -1.1246
18360TIP3   OH276494   5.375   1.955  12.339 -0.2447  0.0603 -0.1929
18360TIP3    H176495   5.286   1.921  12.326  0.6254 -1.8600 -1.3247
18360TIP3    H276496   5.422   1.931  12.259  2.0202 -1.3943  1.5122
18361TIP3   OH276497   1.872   6.007  12.212  0.2440  0.0752  0.3105
18361TIP3    H176498   1.860   5.928  12.159 -0.2560  1.8844 -2.4236
18361TIP3    H276499   1.936   5.983  12.278  1.3701 -2.1412 -1.5176
18362TIP3   OH276500   4.811   5.078   5.268  0.2252  0.4046  0.3010
18362TIP3    H176501   4.806   5.126   5.185 -0.7761  1.6893  1.0845
18362TIP3    H276502   4.721   5.049   5.284  0.6484 -0.9271  0.3142
18363TIP3   OH276503   5.230   6.633  15.811  0.2267 -0.1663  0.2062
18363TIP3    H176504   5.233   6.702  15.877  1.5925 -1.8119  1.9046
18363TIP3    H276505   5.143   6.642  15.771 -0.2355  1.4744  1.5349
18364TIP3   OH276506   4.302   5.169   1.559  0.1198 -0.1230  0.0467
18364TIP3    H176507   4.316   5.078   1.532  0.6874 -0.4633  1.4433
18364TIP3    H276508   4.366   5.183   1.628 -1.9430  0.3972  1.9005
18365TIP3   OH276509   3.827   0.046  14.236 -0.3061 -0.3417 -0.1833
18365TIP3    H176510   3.826   0.108  14.163 -0.1104  0.4507  0.4823
18365TIP3    H276511   3.788   0.094  14.309  1.4748 -0.3845  0.8243
18366TIP3   OH276512   2.228   6.494   1.043  0.4570 -0.2224  0.3311
18366TIP3    H176513   2.258   6.522   1.129  2.6178 -0.1446 -0.4287
18366TIP3    H276514   2.302   6.446   1.006 -0.1895  0.3591 -1.7656
18367TIP3   OH276515   5.563   1.408  11.561  0.1757 -0.3847  0.0751
18367TIP3    H176516   5.630   1.343  11.542  0.1659 -0.1713 -0.6876
18367TIP3    H276517   5.611   1.483  11.596  0.4062  0.0307 -1.1246
18368TIP3   OH276518   4.953   2.256   1.731 -0.1009 -0.2819 -0.1892
18368TIP3    H176519   4.879   2.279   1.676 -0.4486 -1.7770 -0.3836
18368TIP3    H276520   5.025   2.311   1.700 -1.1655  1.2718  0.0921
18369TIP3   OH276521   4.971   2.979  15.346  0.6295  0.2488 -0.2719
18369TIP3    H176522   5.027   3.033  15.289  0.4746  0.4520 -0.2300
18369TIP3    H276523   5.015   2.982  15.431  0.6106  0.3268 -0.2636
18370TIP3   OH276524   1.419   1.310   5.735  0.1083 -0.3140  0.9130
18370TIP3    H176525   1.360   1.311   5.810 -0.8198 -2.1445  0.2361
18370TIP3    H276526   1.442   1.402   5.721 -1.5297  0.2792  1.9997
18371TIP3   OH276527   4.032   2.552  15.341  0.2966 -0.1839 -0.5234
18371TIP3    H176528   4.014   2.613  15.413 -2.2343  0.1607 -1.4049
18371TIP3    H276529   4.069   2.475  15.384 -2.3729 -0.4962  1.3644
18372TIP3   OH276530   0.836   3.372   1.427  0.4630 -0.1949 -0.0098
18372TIP3    H176531   0.866   3.454   1.466 -1.2229  1.1636 -1.5053
18372TIP3    H276532   0.901   3.352   1.360 -0.5973  1.3953 -1.5275
18373TIP3   OH276533   0.248   6.679  14.402 -0.4377  0.5562 -0.2214
18373TIP3    H176534   0.260   6.629  14.483  1.4901  0.5445 -0.4686
18373TIP3    H276535   0.156   6.703  14.402 -0.3137  1.2291  2.3625
18374TIP3   OH276536   5.184   1.094  11.695 -0.1259 -0.6431 -0.1055
18374TIP3    H176537   5.176   1.059  11.784 -0.0847  0.6347  0.4050
18374TIP3    H276538   5.096   1.087  11.658  0.0147 -1.8763 -0.2407
18375TIP3   OH276539   5.052   6.606   2.039  0.1145 -0.0512  0.2384
18375TIP3    H176540   5.031   6.603   2.133  2.4404 -4.0575  0.7167
18375TIP3    H276541   5.134   6.655   2.034  0.3697 -0.4686  0.3626
18376TIP3   OH276542   3.523   4.779   1.877  0.4204  0.1509  0.4167
18376TIP3    H176543   3.557   4.707   1.930 -0.0872 -0.4403 -0.0410
18376TIP3    H276544   3.533   4.749   1.787 -1.2073 -0.0015  0.2719
18377TIP3   OH276545   5.284   1.499  11.058 -0.6971  0.8848  0.5713
18377TIP3    H176546   5.234   1.576  11.030 -1.4154  0.7892  1.5659
18377TIP3    H276547   5.269   1.494  11.153 -2.5076 -1.7907  0.1875
18378TIP3   OH276548   5.230   4.562  11.438  0.3945  0.2186 -0.0816
18378TIP3    H176549   5.266   4.645  11.406  0.6844 -0.6350 -1.9698
18378TIP3    H276550   5.224   4.575  11.533  2.6399  1.5484 -0.0843
18379TIP3   OH276551   2.660   2.896   0.259 -0.2925 -0.4257  0.4463
18379TIP3    H176552   2.714   2.818   0.245 -0.4698 -0.0940 -2.3644
18379TIP3    H276553   2.619   2.913   0.174 -1.4608  1.8548  1.4043
18380TIP3   OH276554   3.471   6.192   6.085  0.2954 -0.3544 -0.4181
18380TIP3    H176555   3.388   6.224   6.122  1.2986 -0.5679  2.0775
18380TIP3    H276556   3.466   6.097   6.093  0.6027 -0.3960 -0.7165
18381TIP3   OH276557   4.072   4.750  11.999 -0.3027 -0.5286  0.0664
18381TIP3    H176558   4.162   4.776  12.019  0.1010  0.7400 -3.0583
18381TIP3    H276559   4.021   4.829  12.011 -0.9036 -1.0793  1.1746
18382TIP3   OH276560   2.771   5.474  13.897 -0.3556  0.1360  0.3330
18382TIP3    H176561   2.764   5.431  13.812  0.6767 -1.2792  0.9466
18382TIP3    H276562   2.826   5.551  13.880  0.3561 -0.4761 -0.1543
18383TIP3   OH276563   4.002   2.557  11.428 -0.3544 -1.5281  0.6517
18383TIP3    H176564   3.926   2.556  11.369 -1.4946  2.0471  1.9686
18383TIP3    H276565   3.981   2.491  11.495 -0.5633 -3.1984 -1.0065
18384TIP3   OH276566   6.150   2.179  13.886  0.1470 -0.3341 -0.4941
18384TIP3    H176567   6.080   2.125  13.921 -0.0170  2.0625  3.2856
18384TIP3    H276568   6.113   2.267  13.883  2.1793  0.5484 -0.8095
18385TIP3   OH276569   2.470   3.347  11.456  0.1277  0.0258 -0.6493
18385TIP3    H176570   2.514   3.429  11.478 -1.7635  1.2260 -1.2032
18385TIP3    H276571   2.523   3.308  11.386  1.8153  0.0662  0.5964
18386TIP3   OH276572   3.154   4.389   5.838  0.1420  1.2007 -0.1965
18386TIP3    H176573   3.212   4.421   5.768 -0.7379 -0.4158 -1.7122
18386TIP3    H276574   3.175   4.443   5.914  2.8106  1.4262 -1.0546
18387TIP3   OH276575   0.093   1.650  11.569 -0.3610  0.0004 -0.0264
18387TIP3    H176576   0.105   1.652  11.664 -0.8520  0.2809  0.0292
18387TIP3    H276577   0.098   1.742  11.542 -1.9533  0.0875 -0.0603
18388TIP3   OH276578   5.418   5.325   5.020  0.2482 -0.1903 -0.8822
18388TIP3    H176579   5.460   5.263   5.080  0.7520  1.8948  0.9798
18388TIP3    H276580   5.490   5.373   4.980 -0.1964  0.3878 -1.0000
18389TIP3   OH276581   5.025   4.844  13.234 -0.6897  0.4833  0.2809
18389TIP3    H176582   5.009   4.760  13.191  0.9192  1.3732 -2.2342
18389TIP3    H276583   4.972   4.907  13.185  0.0708  1.3110  0.4980
18390TIP3   OH276584   6.070   2.371   2.092  0.7695 -0.1308  0.4348
18390TIP3    H176585   6.087   2.315   2.168  1.4296  1.6560  1.6214
18390TIP3    H276586   6.155   2.379   2.048  0.8037  0.4474  0.6092
18391TIP3   OH276587   3.948   5.469  15.220 -0.0092 -0.3511  0.2677
18391TIP3    H176588   4.016   5.489  15.284 -1.0977  1.4994  0.8829
18391TIP3    H276589   3.991   5.481  15.135  0.4352  0.8413  0.6506
18392TIP3   OH276590   1.623   3.033  13.668 -0.7466 -0.0117 -0.1442
18392TIP3    H176591   1.701   3.065  13.715 -0.6312  0.0120 -0.3514
18392TIP3    H276592   1.655   2.956  13.620 -0.4665  0.9585 -1.5270
18393TIP3   OH276593   3.015   1.349   2.763  0.1186  0.2623 -0.9970
18393TIP3    H176594   2.995   1.437   2.793  0.2574  0.5416 -1.7111
18393TIP3    H276595   3.101   1.356   2.722  0.1972 -0.2331 -0.9181
18394TIP3   OH276596   3.172   2.669  11.564  0.0312  0.3986  0.3624
18394TIP3    H176597   3.189   2.607  11.636 -0.6358  0.3039  0.4433
18394TIP3    H276598   3.142   2.749  11.608  1.1641  0.8725  0.2712
18395TIP3   OH276599   6.725   1.924  11.517  0.1086  0.3286  0.1930
18395TIP3    H176600   6.818   1.945  11.517  0.0239  0.7038  0.1463
18395TIP3    H276601   6.698   1.935  11.608  0.0624  0.4241  0.1676
18396TIP3   OH276602   3.338   2.961  13.488 -0.3400 -0.4260 -0.0052
18396TIP3    H176603   3.333   3.036  13.547  1.0465 -0.0319 -0.3808
18396TIP3    H276604   3.431   2.939  13.485 -0.5736 -1.3107 -0.9656
18397TIP3   OH276605   6.721   2.547   3.858 -0.4703 -0.4438 -0.6964
18397TIP3    H176606   6.639   2.546   3.908 -0.3839 -0.1684 -0.5512
18397TIP3    H276607   6.771   2.620   3.894 -0.1959 -0.5575 -0.8450
18398TIP3   OH276608   6.693   3.204   1.784 -0.7260  0.3633  0.5208
18398TIP3    H176609   6.775   3.215   1.736 -1.0589  0.6039 -0.0015
18398TIP3    H276610   6.719   3.201   1.876 -0.2375  1.5421  0.4341
18399TIP3   OH276611   1.157   2.147   1.713 -0.0237  0.0889  0.1870
18399TIP3    H176612   1.111   2.158   1.630  0.8629  2.1262 -0.0655
18399TIP3    H276613   1.097   2.097   1.768 -1.5669  0.7140 -0.9149
18400TIP3   OH276614   1.469   1.605   5.634  0.0524  0.0775 -0.0691
18400TIP3    H176615   1.457   1.690   5.592  0.9200 -0.2283 -0.9627
18400TIP3    H276616   1.506   1.626   5.720 -1.4406  0.6925  0.4324
18401TIP3   OH276617   3.267   3.261   5.563  0.1252 -0.1119 -0.0752
18401TIP3    H176618   3.232   3.337   5.610 -1.1530 -0.9405  0.3200
18401TIP3    H276619   3.267   3.288   5.471 -0.0622  0.4593  0.0861
18402TIP3   OH276620   6.773   3.068  12.221  0.1828 -0.2431  0.5134
18402TIP3    H176621   6.797   3.155  12.253 -1.8612  0.3480  0.5418
18402TIP3    H276622   6.754   3.018  12.301 -0.9801  0.0295  0.4266
18403TIP3   OH276623   0.830   5.469  14.487  0.1443  0.6203 -0.2085
18403TIP3    H176624   0.897   5.537  14.499  0.4906  0.8467 -3.1260
18403TIP3    H276625   0.747   5.517  14.492  0.3654  1.1664 -1.4981
18404TIP3   OH276626   2.718   0.302   3.818  0.2751 -0.5134  0.3227
18404TIP3    H176627   2.704   0.244   3.743  0.2398 -1.5896  1.1424
18404TIP3    H276628   2.787   0.362   3.790 -0.8660  0.1462 -1.1442
18405TIP3   OH276629   6.295   3.359   4.298  0.4796  0.1389 -0.1074
18405TIP3    H176630   6.335   3.386   4.381  0.2374  1.4138 -0.3952
18405TIP3    H276631   6.226   3.424   4.284  0.9164  0.2773 -1.6198
18406TIP3   OH276632   5.458   2.954  16.061 -0.4170  0.0999  0.1278
18406TIP3    H176633   5.470   2.979  15.969 -0.4290  1.3404  0.4526
18406TIP3    H276634   5.453   2.858  16.060  1.6797 -0.0112 -0.9211
18407TIP3   OH276635   2.459   3.937   3.040 -0.0436 -0.1388 -0.0493
18407TIP3    H176636   2.480   4.020   2.996  1.7386 -0.2920  0.4802
18407TIP3    H276637   2.434   3.963   3.129  1.0423 -0.1818  0.2843
18408TIP3   OH276638   1.262   4.392  11.991 -0.0787  0.3270  0.0485
18408TIP3    H176639   1.260   4.296  11.993 -2.9453  0.3895  1.9438
18408TIP3    H276640   1.260   4.413  11.898 -1.9921 -1.4414 -0.3492
18409TIP3   OH276641   2.801   6.313  15.193  0.0991 -0.4977  0.5758
18409TIP3    H176642   2.852   6.340  15.269  1.0048 -0.7390  0.0569
18409TIP3    H276643   2.865   6.306  15.122 -0.8000  0.1721 -0.3228
18410TIP3   OH276644   3.792   5.896   2.555  0.2708  0.0144  0.0680
18410TIP3    H176645   3.735   5.972   2.542 -0.2144 -0.5238 -0.9497
18410TIP3    H276646   3.862   5.929   2.612 -1.1124  0.6517  1.4414
18411TIP3   OH276647   0.672   5.805  15.367  0.4398 -0.1485  0.0689
18411TIP3    H176648   0.640   5.843  15.285 -0.5605  1.6502  1.2666
18411TIP3    H276649   0.660   5.874  15.432 -0.5052 -2.1678  2.1019
18412TIP3   OH276650   1.298   4.021  17.088  0.4177  0.1033  0.4431
18412TIP3    H176651   1.337   4.059  17.010  0.9285  0.0853  0.6877
18412TIP3    H276652   1.274   4.097  17.142  1.8330  0.0728  1.1242
18413TIP3   OH276653   5.900   3.134   4.487  0.1550 -0.4088  0.3576
18413TIP3    H176654   5.858   3.180   4.414 -1.1870 -0.6485  0.9757
18413TIP3    H276655   5.861   3.047   4.486  0.8432 -0.7235  0.7663
18414TIP3   OH276656   4.102   5.128  11.664  0.0158  0.9664  0.5825
18414TIP3    H176657   4.070   5.039  11.679  0.6055  0.5140 -0.7712
18414TIP3    H276658   4.134   5.157  11.749 -1.7370  0.5272  1.4292
18415TIP3   OH276659   1.031   4.677  10.245 -0.5738  0.4719  0.5956
18415TIP3    H176660   1.124   4.664  10.231 -0.9911 -0.8651 -1.0947
18415TIP3    H276661   0.992   4.674  10.157 -2.4051 -0.7938  1.4065
18416TIP3   OH276662   3.791   5.715   3.321 -0.3432  0.3634  0.1347
18416TIP3    H176663   3.728   5.779   3.286 -0.2679  0.6907  0.5996
18416TIP3    H276664   3.803   5.740   3.412 -0.0862 -0.1398  0.2431
18417TIP3   OH276665   5.448   1.991  16.374  0.2575 -0.1716 -0.2984
18417TIP3    H176666   5.361   2.022  16.396 -0.1422 -2.7968  2.0389
18417TIP3    H276667   5.506   2.035  16.436  0.6496  1.5974 -1.8727
18418TIP3   OH276668   1.081   3.846   5.892 -0.7405 -0.3392 -0.4160
18418TIP3    H176669   1.076   3.764   5.942  0.0595  0.3683  0.8556
18418TIP3    H276670   1.158   3.835   5.836 -0.8396 -0.5977 -0.5012
18419TIP3   OH276671   0.671   3.569  11.252 -0.1138  0.4214 -0.2954
18419TIP3    H176672   0.716   3.512  11.190 -0.4615  0.8364 -0.9295
18419TIP3    H276673   0.611   3.620  11.199 -1.1068  0.0989  0.5136
18420TIP3   OH276674   4.926   3.868   4.941 -0.0579 -0.0975  0.0810
18420TIP3    H176675   4.880   3.883   4.858 -0.5895 -1.0546  0.2029
18420TIP3    H276676   5.015   3.846   4.915  0.1428  0.9932 -0.1818
18421TIP3   OH276677   5.300   5.932   0.787 -0.3322 -0.4056 -0.2455
18421TIP3    H176678   5.393   5.950   0.805 -0.4484 -0.3147  0.2530
18421TIP3    H276679   5.298   5.914   0.693 -0.2050  2.1894 -0.8026
18422TIP3   OH276680   1.821   6.100  15.664 -0.2560  0.2256  0.2917
18422TIP3    H176681   1.761   6.066  15.598 -0.3053 -1.1567  1.0215
18422TIP3    H276682   1.908   6.079  15.631 -0.1997  1.3789 -0.3123
18423TIP3   OH276683   6.602   0.586  13.367  0.0349 -0.6561 -0.2772
18423TIP3    H176684   6.688   0.615  13.399  0.4155 -0.3569 -1.5138
18423TIP3    H276685   6.610   0.491  13.359 -0.1235 -0.7483  0.6877
18424TIP3   OH276686   2.546   0.980  17.059  0.2752 -0.3397  0.6446
18424TIP3    H176687   2.481   1.038  17.020 -0.8275 -2.1347 -0.2542
18424TIP3    H276688   2.629   1.004  17.017  0.2204  1.8987  1.7303
18425TIP3   OH276689   4.670   2.840   0.409  0.2534 -0.0024 -0.0685
18425TIP3    H176690   4.669   2.810   0.318 -0.7222  0.4911 -0.2280
18425TIP3    H276691   4.760   2.825   0.438  1.0600  1.5769 -1.6987
18426TIP3   OH276692   4.534   0.887  16.844  0.0743  0.3751 -0.2343
18426TIP3    H176693   4.587   0.840  16.779 -0.2072  0.9535 -0.8982
18426TIP3    H276694   4.588   0.962  16.868  1.3896 -1.3165  2.3193
18427TIP3   OH276695   4.615   6.268  13.078  0.4942  0.8882  0.1821
18427TIP3    H176696   4.701   6.230  13.063  0.6106  0.6084  1.4860
18427TIP3    H276697   4.584   6.227  13.159 -2.1581 -1.2795 -1.8372
18428TIP3   OH276698   4.231   5.060  16.003 -0.7875 -0.3312 -0.5371
18428TIP3    H176699   4.304   5.107  15.963 -0.0576 -1.0136 -0.0256
18428TIP3    H276700   4.159   5.123  16.006 -0.0669  0.4848 -0.6047
18429TIP3   OH276701   0.328   2.843   2.335  0.8140  0.0087 -0.3419
18429TIP3    H176702   0.280   2.923   2.311  0.3470 -0.9148 -2.6526
18429TIP3    H276703   0.317   2.836   2.430 -0.5143  1.8097 -0.3281
18430TIP3   OH276704   6.323   5.045  13.751 -0.7454 -0.1524 -0.5565
18430TIP3    H176705   6.368   5.128  13.734  0.4965 -0.8529 -0.7361
18430TIP3    H276706   6.234   5.070  13.776 -0.4402  1.2217 -0.8397
18431TIP3   OH276707   5.337   3.045  12.165 -0.6439 -0.2954  0.0486
18431TIP3    H176708   5.385   2.972  12.125  2.6671  1.6247  0.2646
18431TIP3    H276709   5.377   3.056  12.251 -2.6521  0.3306  0.9288
18432TIP3   OH276710   2.865   1.833   5.606  0.3864 -0.0440  0.5264
18432TIP3    H176711   2.780   1.839   5.650  0.3273 -0.8076  0.5079
18432TIP3    H276712   2.916   1.904   5.645 -1.3909  2.7470 -1.9646
18433TIP3   OH276713   3.578   2.171   0.898 -0.4083  0.3295  0.2463
18433TIP3    H176714   3.580   2.255   0.851  0.3178  0.1407 -0.0746
18433TIP3    H276715   3.515   2.118   0.850  2.0412 -0.6705 -1.9429
18434TIP3   OH276716   3.311   3.955  12.014  0.0131 -0.2464 -0.0758
18434TIP3    H176717   3.281   4.034  12.060  2.3512  0.2235  0.7083
18434TIP3    H276718   3.251   3.887  12.042 -0.4649  0.7089  1.2862
18435TIP3   OH276719   3.620   0.483  12.041 -0.3157 -0.6410 -0.5011
18435TIP3    H176720   3.641   0.552  12.104 -1.3212  0.8904 -1.8082
18435TIP3    H276721   3.638   0.401  12.088  1.6832  0.5043  0.7948
18436TIP3   OH276722   5.071   2.317  16.084 -0.1758  0.3503 -0.8549
18436TIP3    H176723   5.028   2.264  16.016 -0.6209  0.1095 -0.3923
18436TIP3    H276724   5.121   2.254  16.136 -2.2722  0.0748  0.8979
18437TIP3   OH276725   2.460   4.218  14.734  0.1855  0.8787  0.2745
18437TIP3    H176726   2.466   4.313  14.749  1.0970  0.6874  1.1708
18437TIP3    H276727   2.480   4.179  14.819  1.2709 -0.1507 -0.4424
18438TIP3   OH276728   3.981   6.100  13.477 -0.3522  0.5334 -0.1312
18438TIP3    H176729   3.949   6.099  13.387 -1.2194  0.5683  0.1696
18438TIP3    H276730   4.073   6.127  13.470 -0.6205  1.2614 -0.9395
18439TIP3   OH276731   3.257   1.287  12.870 -0.3438 -0.1213 -0.2579
18439TIP3    H176732   3.320   1.278  12.941 -0.3663 -1.1951 -0.3669
18439TIP3    H276733   3.257   1.202  12.827 -1.7515 -0.0750 -0.3638
18440TIP3   OH276734   1.918   3.796  17.017  0.0024  0.2368 -0.3179
18440TIP3    H176735   1.868   3.753  16.947 -0.0685 -1.0219  0.4799
18440TIP3    H276736   1.900   3.743  17.095  0.9753  0.9585  0.4113
18441TIP3   OH276737   5.168   0.618  12.732 -0.1354  0.0222 -0.0587
18441TIP3    H176738   5.241   0.666  12.771 -0.8676  0.3259  0.9750
18441TIP3    H276739   5.165   0.648  12.641  0.1619  1.0519  0.2600
18442TIP3   OH276740   6.631   1.711   5.087 -0.3040 -0.3945 -0.1378
18442TIP3    H176741   6.615   1.803   5.064 -1.7806 -0.3786  0.8787
18442TIP3    H276742   6.627   1.710   5.183  1.3465 -1.2291 -0.0633
18443TIP3   OH276743   2.873   0.604  15.366  0.1736 -0.5914  0.2492
18443TIP3    H176744   2.892   0.697  15.373 -3.6470  0.4152 -1.2387
18443TIP3    H276745   2.931   0.573  15.296  2.1962  0.4160  1.4421
18444TIP3   OH276746   6.642   3.525  13.655 -0.1977 -0.0153 -0.1610
18444TIP3    H176747   6.701   3.591  13.692  0.9006 -0.8564 -0.3675
18444TIP3    H276748   6.701   3.455  13.625 -1.4453 -2.1411  2.1533
18445TIP3   OH276749   1.279   3.699   0.984 -0.3429  0.6208 -0.3695
18445TIP3    H176750   1.192   3.704   0.944 -0.4073  0.7662 -0.2145
18445TIP3    H276751   1.340   3.708   0.911 -0.4540 -0.4271 -0.5963
18446TIP3   OH276752   0.842   0.898   2.436  0.4696  0.8077  0.5312
18446TIP3    H176753   0.805   0.978   2.400  0.4257  0.6812  0.2942
18446TIP3    H276754   0.937   0.911   2.434  0.6556 -0.4975 -2.7251
18447TIP3   OH276755   3.437   4.667   2.338  0.1416  0.9586 -0.5798
18447TIP3    H176756   3.499   4.612   2.387 -1.2395 -0.3905 -0.2965
18447TIP3    H276757   3.460   4.757   2.362  1.9497  0.4711 -0.4526
18448TIP3   OH276758   4.058   0.145  14.474 -0.2518  0.1922  0.3527
18448TIP3    H176759   4.079   0.162  14.382 -1.9648  0.6475  0.0242
18448TIP3    H276760   4.142   0.151  14.520  0.3566  1.7547 -0.9140
18449TIP3   OH276761   3.034   5.120   2.317 -0.0609  0.4390  0.4563
18449TIP3    H176762   3.081   5.113   2.234 -1.1838  0.6037 -0.2057
18449TIP3    H276763   3.012   5.030   2.340  0.2289  0.3952  0.5575
18450TIP3   OH276764   2.350   5.407  11.597 -0.2093  0.2665 -0.2159
18450TIP3    H176765   2.390   5.371  11.518 -0.6062 -1.2676  0.2545
18450TIP3    H276766   2.422   5.413  11.660 -0.1583  0.2206 -0.2697
18451TIP3   OH276767   4.050   2.219   1.918 -0.4196 -0.1844 -0.6841
18451TIP3    H176768   4.052   2.134   1.961  1.4548 -0.5208 -1.4107
18451TIP3    H276769   3.963   2.223   1.878 -1.0664 -1.1211  0.6072
18452TIP3   OH276770   3.722   0.021  15.049  0.2029 -0.5302  0.5190
18452TIP3    H176771   3.739  -0.003  15.140  1.1896 -0.0394  0.4668
18452TIP3    H276772   3.709   0.116  15.052  0.8120 -0.4363  0.0570
18453TIP3   OH276773   3.212   4.178   4.459 -0.4112 -0.1201  0.3650
18453TIP3    H176774   3.153   4.110   4.427 -1.7676  0.5669  1.3379
18453TIP3    H276775   3.157   4.257   4.465  0.9264  0.8665  0.0354
18454TIP3   OH276776   3.601   0.270   4.417  0.1112  0.1149 -0.1777
18454TIP3    H176777   3.562   0.235   4.497  0.5970  2.1051  0.9637
18454TIP3    H276778   3.625   0.360   4.439  1.1037  0.4030 -2.2838
18455TIP3   OH276779   2.288   3.782  15.188 -0.1740 -0.0665  0.4005
18455TIP3    H176780   2.339   3.861  15.170 -0.4578  0.2767  1.0862
18455TIP3    H276781   2.339   3.734  15.252 -0.4469  0.0091  0.6754
18456TIP3   OH276782   4.516   5.337   4.374  0.3277  0.3468  0.5308
18456TIP3    H176783   4.431   5.380   4.381  0.5596  0.9321 -0.2250
18456TIP3    H276784   4.559   5.355   4.457  0.1410  0.9681  0.4916
18457TIP3   OH276785   1.085   1.487   4.357  0.1193  0.1480  0.3310
18457TIP3    H176786   1.174   1.455   4.374 -0.6959 -2.4455 -0.0611
18457TIP3    H276787   1.029   1.428   4.408 -1.5022  0.4235 -1.1070
18458TIP3   OH276788   0.835   0.326  11.696 -0.5324  0.0693 -0.5323
18458TIP3    H176789   0.758   0.373  11.729 -0.7151 -0.5383 -0.0661
18458TIP3    H276790   0.798   0.255  11.643 -0.2869  0.0088 -0.6184
18459TIP3   OH276791   5.715   1.721  11.493  0.2197 -0.7736  0.0482
18459TIP3    H176792   5.729   1.643  11.547 -2.7782 -1.0029  0.6075
18459TIP3    H276793   5.705   1.792  11.556 -0.8533 -0.6120 -0.3023
18460TIP3   OH276794   4.397   6.494  12.504  0.0954  0.3711  0.1768
18460TIP3    H176795   4.432   6.411  12.534  2.1834 -0.3896 -4.0113
18460TIP3    H276796   4.302   6.485  12.514  0.3946 -1.8370  1.2918
18461TIP3   OH276797   4.344   5.642  16.361  0.2165 -1.0339  0.1050
18461TIP3    H176798   4.424   5.598  16.330  2.4524  0.8475  2.9791
18461TIP3    H276799   4.348   5.728  16.321 -1.8794 -1.8442 -1.9598
18462TIP3   OH276800   2.042   6.433  11.223  0.4359  0.0549 -0.8141
18462TIP3    H176801   2.010   6.494  11.290 -0.2847 -0.7085 -0.4520
18462TIP3    H276802   2.136   6.428  11.238  0.3907  0.5021 -0.3621
18463TIP3   OH276803   0.272   5.521   0.255 -0.2173  0.3056  0.3815
18463TIP3    H176804   0.310   5.502   0.340  0.0033  1.1937  0.4908
18463TIP3    H276805   0.177   5.515   0.270 -0.1527 -0.6737  0.4074
18464TIP3   OH276806   5.038   6.731   6.558  0.0111  0.6934  0.5656
18464TIP3    H176807   5.121   6.765   6.592 -0.2966  1.7967  0.2121
18464TIP3    H276808   5.030   6.644   6.598  2.2646 -0.2353 -0.8752
18465TIP3   OH276809   0.081   4.637   1.947 -0.7812 -0.4256 -0.7026
18465TIP3    H176810   0.011   4.700   1.967 -0.8824 -1.5391  2.7217
18465TIP3    H276811   0.162   4.682   1.970 -0.5376 -0.0769 -2.2015
18466TIP3   OH276812   3.223   0.136   1.125  0.3386  0.0241  0.7857
18466TIP3    H176813   3.291   0.155   1.189 -0.1250 -1.7705  1.8476
18466TIP3    H276814   3.253   0.057   1.081  0.0799  0.5716 -0.4049
18467TIP3   OH276815   0.363   1.864  11.329 -0.3694  0.7138 -0.1350
18467TIP3    H176816   0.315   1.943  11.304  0.3134  0.5251 -2.1431
18467TIP3    H276817   0.346   1.802  11.259  1.3699  0.0570 -0.0067
18468TIP3   OH276818   0.761   3.756  14.165 -0.1686  0.1202  0.1911
18468TIP3    H176819   0.732   3.845  14.185 -0.6430 -0.3106  1.4219
18468TIP3    H276820   0.687   3.716  14.121  0.3630  0.6038 -1.1881
18469TIP3   OH276821   1.268   1.811   1.140  0.3820 -0.2977  0.4925
18469TIP3    H176822   1.207   1.881   1.114 -0.7835 -0.6337  2.1794
18469TIP3    H276823   1.333   1.855   1.194  0.8882 -0.1468 -0.2493
18470TIP3   OH276824   1.006   6.470   4.741 -0.5602 -0.1038  0.0190
18470TIP3    H176825   1.005   6.401   4.675  1.0075 -0.8051  0.6962
18470TIP3    H276826   1.077   6.446   4.800 -1.0949  1.2018  1.2317
18471TIP3   OH276827   6.483   2.794   0.023  0.4952 -0.6761 -0.3220
18471TIP3    H176828   6.456   2.885   0.037 -1.9447 -1.6459  1.6571
18471TIP3    H276829   6.568   2.800  -0.019  0.1477  2.5332 -0.6511
18472TIP3   OH276830   6.373   5.767   1.215  0.9708  0.5468 -0.2361
18472TIP3    H176831   6.395   5.769   1.308  1.6146 -1.5351 -0.3134
18472TIP3    H276832   6.295   5.821   1.207  1.0261  0.8984  1.4864
18473TIP3   OH276833   0.177   0.286   5.292  0.3302 -0.8201 -0.2049
18473TIP3    H176834   0.116   0.308   5.362 -0.1436 -0.6894 -0.6542
18473TIP3    H276835   0.121   0.267   5.217  0.8543  0.0085 -0.8183
18474TIP3   OH276836   4.520   5.674  12.506  0.3999 -0.7813  0.8119
18474TIP3    H176837   4.606   5.711  12.488  0.6027 -0.9291  1.4602
18474TIP3    H276838   4.502   5.616  12.432  0.2397  0.3268 -0.0326
18475TIP3   OH276839   0.878   4.461  16.889 -0.1176 -0.2901  0.5063
18475TIP3    H176840   0.822   4.384  16.879 -0.6803  0.1760  0.0248
18475TIP3    H276841   0.952   4.430  16.941 -0.0113 -1.3274 -0.2345
18476TIP3   OH276842   0.644   6.446  16.207  0.2910  0.0047 -0.2684
18476TIP3    H176843   0.671   6.467  16.296  1.9641  0.4103 -0.8372
18476TIP3    H276844   0.574   6.508  16.188  1.5921  1.5726 -0.0755
18477TIP3   OH276845   2.447   0.005   1.809  0.5996 -0.3447  0.4412
18477TIP3    H176846   2.488  -0.016   1.893  0.2917 -0.1943  0.6318
18477TIP3    H276847   2.374   0.063   1.832  0.0116 -0.9532  0.1553
18478TIP3   OH276848   5.342   4.914   1.082 -0.1055  0.3463 -0.4330
18478TIP3    H176849   5.289   4.919   1.002 -0.2156 -3.0649 -0.6354
18478TIP3    H276850   5.281   4.886   1.150  0.6355  0.1569  0.1661
18479TIP3   OH276851   1.054   5.094   5.368  0.1602  0.7828 -0.3459
18479TIP3    H176852   1.058   5.022   5.305  2.4895 -0.6109  1.2756
18479TIP3    H276853   1.122   5.155   5.339 -0.1415  1.1239 -0.3338
18480TIP3   OH276854   1.415   3.522  11.601 -0.2861 -0.4410 -0.1290
18480TIP3    H176855   1.373   3.437  11.610 -3.3481  0.7716 -1.9860
18480TIP3    H276856   1.454   3.519  11.513  0.5151 -0.3276  0.2277
18481TIP3   OH276857   5.750   6.775   1.073  0.3896  0.1451  1.0716
18481TIP3    H176858   5.774   6.812   0.988 -1.6584 -0.3949  0.2289
18481TIP3    H276859   5.713   6.849   1.122 -4.1477 -0.7412 -0.7854
18482TIP3   OH276860   3.236   2.410   2.114  0.4791  0.0346 -0.0235
18482TIP3    H176861   3.230   2.418   2.019  0.4267  1.2674  0.0760
18482TIP3    H276862   3.146   2.392   2.142  0.4246  0.0832 -0.1649
18483TIP3   OH276863   2.132   3.701   5.618 -0.0423 -0.2889 -0.2230
18483TIP3    H176864   2.158   3.671   5.705 -0.2415 -0.5424 -0.2497
18483TIP3    H276865   2.160   3.792   5.614  1.1637 -0.6644 -0.3893
18484TIP3   OH276866   6.678   3.662   5.299  0.3319 -0.0140  0.3852
18484TIP3    H176867   6.758   3.663   5.246  0.3220  1.0467  0.3682
18484TIP3    H276868   6.616   3.610   5.248  0.7713 -0.1902  0.0282
18485TIP3   OH276869   1.476   5.385   5.072  0.3578 -0.0925  0.0827
18485TIP3    H176870   1.528   5.313   5.107 -1.5945 -1.4197  0.3478
18485TIP3    H276871   1.386   5.352   5.074 -0.2220  1.2034 -2.6877
18486TIP3   OH276872   2.268   3.680  15.998 -0.2651  0.0639 -0.1643
18486TIP3    H176873   2.284   3.773  16.008  1.3143 -0.1506 -0.5437
18486TIP3    H276874   2.292   3.641  16.082 -3.1492  0.2391  0.8087
18487TIP3   OH276875   0.993   5.502   1.060  0.1455 -0.0451  0.3390
18487TIP3    H176876   0.927   5.570   1.044  0.8557  0.5127 -0.2623
18487TIP3    H276877   1.075   5.541   1.029  0.6825 -0.8968  0.6888
18488TIP3   OH276878   4.321   5.825   3.679 -0.2403  0.1607  0.0824
18488TIP3    H176879   4.275   5.781   3.608  1.4831  1.4890 -1.9259
18488TIP3    H276880   4.396   5.769   3.697 -0.5142 -0.0217  0.6529
18489TIP3   OH276881   6.690   1.364   2.503  0.2779  0.3393 -0.2816
18489TIP3    H176882   6.728   1.310   2.574 -0.3685 -0.9508 -0.8982
18489TIP3    H276883   6.762   1.421   2.476  0.3674  1.2805  1.8150
18490TIP3   OH276884   3.704   6.450  13.708 -0.3351 -0.0525 -0.8829
18490TIP3    H176885   3.670   6.538  13.724 -0.6181  0.1985 -2.6964
18490TIP3    H276886   3.654   6.394  13.767  0.0567  1.0298  0.5068
18491TIP3   OH276887   1.372   4.941   1.271  0.0635 -0.7723 -0.2991
18491TIP3    H176888   1.414   5.025   1.254  0.8282 -0.8228  1.2738
18491TIP3    H276889   1.401   4.917   1.359 -0.5629 -2.4317 -0.5309
18492TIP3   OH276890   5.452   3.317   0.712  0.2194  0.1379 -0.5426
18492TIP3    H176891   5.398   3.290   0.638 -0.1720  1.5964 -0.7908
18492TIP3    H276892   5.500   3.238   0.736 -0.8109 -0.7492 -1.3525
18493TIP3   OH276893   6.700   3.927   3.319 -0.0802  0.0370  0.2190
18493TIP3    H176894   6.693   3.943   3.225 -1.7391 -1.7023 -0.0035
18493TIP3    H276895   6.780   3.875   3.329  0.1009  0.2306 -0.2208
18494TIP3   OH276896   0.272   4.269   0.508  0.1086  0.5246 -0.5892
18494TIP3    H176897   0.220   4.280   0.429 -1.3895  0.3552  0.3570
18494TIP3    H276898   0.349   4.324   0.495  0.5739 -0.5925 -2.7654
18495TIP3   OH276899   5.423   1.365  13.281 -0.8657  0.3109  0.7056
18495TIP3    H176900   5.371   1.287  13.295 -1.6733  0.5305 -0.8635
18495TIP3    H276901   5.447   1.361  13.188  0.8559  0.8530  1.1113
18496TIP3   OH276902   5.954   2.080  13.450 -0.4600 -0.6336  0.8037
18496TIP3    H176903   5.939   2.137  13.526 -1.9313  2.1722 -1.4831
18496TIP3    H276904   5.867   2.053  13.423 -0.2575  1.3424 -2.0071
18497TIP3   OH276905   6.238   5.860   1.889 -0.0642 -0.5368  0.0416
18497TIP3    H176906   6.269   5.943   1.855  0.8778  0.0874  2.3366
18497TIP3    H276907   6.146   5.876   1.912  0.6179  0.4242  2.1767
18498TIP3   OH276908   0.622   1.945  11.932 -0.8195 -0.0102 -0.2043
18498TIP3    H176909   0.547   2.005  11.925 -0.6956  0.3891  1.6307
18498TIP3    H276910   0.603   1.892  12.009  0.2576 -0.6785 -0.3891
18499TIP3   OH276911   5.082   4.632  12.702  0.2628 -0.1219  0.0366
18499TIP3    H176912   5.005   4.688  12.691 -1.2411 -2.0519  0.6600
18499TIP3    H276913   5.118   4.624  12.614  0.0802  1.2029 -0.1808
18500TIP3   OH276914   3.713   1.543  15.562  1.0677  0.1970 -0.3080
18500TIP3    H176915   3.753   1.470  15.515  1.2780 -0.0271  0.2137
18500TIP3    H276916   3.760   1.546  15.645  0.2294  0.1532  0.1697
18501TIP3   OH276917   1.262   6.677   4.991 -0.0947 -0.1953 -1.0404
18501TIP3    H176918   1.303   6.714   4.913  0.9179  1.5339  0.2563
18501TIP3    H276919   1.174   6.715   4.993  0.2662  0.6436 -0.7607
18502TIP3   OH276920   1.792   6.610   4.763  0.1595 -0.2792  0.1048
18502TIP3    H176921   1.699   6.627   4.751 -0.1583 -1.7270  0.3891
18502TIP3    H276922   1.828   6.693   4.795 -1.0522  0.2409  0.1347
18503TIP3   OH276923   4.339   6.604   5.753  0.0074 -0.0596  0.4682
18503TIP3    H176924   4.257   6.557   5.771  0.4926 -0.2706  2.2382
18503TIP3    H276925   4.379   6.557   5.681 -2.0227  0.7815 -1.2569
18504TIP3   OH276926   6.226   1.457  15.361  0.4673 -0.2854  0.3592
18504TIP3    H176927   6.289   1.422  15.299 -1.3147 -1.3778 -0.8635
18504TIP3    H276928   6.141   1.437  15.323 -0.6583  4.2941  0.2103
18505TIP3   OH276929   0.235   4.981   0.922  0.4520  0.1075 -0.4612
18505TIP3    H176930   0.191   4.923   0.984  0.7924  0.3308  0.0005
18505TIP3    H276931   0.292   4.923   0.871  2.4127  0.2763  1.4316
18506TIP3   OH276932   2.047   5.523  13.706 -0.6320  0.6616 -0.2188
18506TIP3    H176933   2.003   5.593  13.756  0.3737  0.3468  1.1340
18506TIP3    H276934   1.994   5.445  13.723 -2.1362  1.1931 -2.2608
18507TIP3   OH276935   4.907   2.718   4.699 -0.3744  0.0740  0.0805
18507TIP3    H176936   4.977   2.679   4.646 -1.5850 -0.7331 -0.9581
18507TIP3    H276937   4.826   2.682   4.662 -1.3201  0.6658  1.5385
18508TIP3   OH276938   0.086   2.515   2.682  0.0656 -0.1924 -0.5816
18508TIP3    H176939   0.134   2.546   2.759 -3.1604 -0.0032  1.4390
18508TIP3    H276940   0.091   2.419   2.688  0.0258 -0.1766 -0.2679
18509TIP3   OH276941   1.112   4.941  13.341 -0.0820  0.3988 -0.5116
18509TIP3    H176942   1.206   4.949  13.323  0.6914 -0.8286  2.7136
18509TIP3    H276943   1.072   4.931  13.254  2.8350  0.2629 -1.9013
18510TIP3   OH276944   3.812   6.034   6.528  0.4092 -0.1147  0.0184
18510TIP3    H176945   3.900   6.010   6.498  0.1694 -1.8443  0.6205
18510TIP3    H276946   3.759   5.956   6.509 -1.0912  1.0695 -0.7279
18511TIP3   OH276947   0.896   4.150   2.986  0.5406 -0.3260 -0.0315
18511TIP3    H176948   0.842   4.160   2.908 -0.8722  0.5739  1.0243
18511TIP3    H276949   0.917   4.056   2.990 -0.9096 -0.6754 -0.4958
18512TIP3   OH276950   3.670   4.247  13.954  0.1471  0.3228  0.0875
18512TIP3    H176951   3.737   4.203  13.900  1.1455  2.3984 -0.4042
18512TIP3    H276952   3.690   4.218  14.044  2.4861  1.8067  0.1021
18513TIP3   OH276953   5.133   4.735  17.187 -0.1114 -0.1973  0.2549
18513TIP3    H176954   5.103   4.824  17.209  0.2645  0.4183 -1.6563
18513TIP3    H276955   5.052   4.687  17.171 -0.3748 -0.5192  2.3166
18514TIP3   OH276956   6.330   0.922   5.955  0.0142  0.1356 -0.1457
18514TIP3    H176957   6.334   1.013   5.984 -1.4116 -0.4423  1.9758
18514TIP3    H276958   6.242   0.912   5.919  0.7201  0.0074 -1.8710
18515TIP3   OH276959   2.521   1.458  13.550 -0.4066  0.1593  0.4474
18515TIP3    H176960   2.439   1.409  13.541  0.5772 -1.0584 -2.3381
18515TIP3    H276961   2.583   1.394  13.585  0.4664 -0.2061 -1.6820
18516TIP3   OH276962   0.751   4.480   6.212 -0.2091 -0.3212 -0.1982
18516TIP3    H176963   0.720   4.424   6.142 -2.1613 -0.3639  0.6817
18516TIP3    H276964   0.797   4.421   6.272  1.7361 -0.2386 -1.5457
18517TIP3   OH276965   2.298   3.021  15.944 -0.2399 -0.6523 -0.3332
18517TIP3    H176966   2.369   2.957  15.948  0.5332  0.1521 -0.7960
18517TIP3    H276967   2.324   3.080  15.873 -0.3704  0.8368  0.8379
18518TIP3   OH276968   6.633   3.453  13.082 -0.0103 -0.3475  0.3893
18518TIP3    H176969   6.706   3.418  13.031  0.0676  1.1619 -0.5821
18518TIP3    H276970   6.555   3.433  13.030 -0.0148  0.4456  0.0851
18519TIP3   OH276971   4.066   3.113  12.090 -0.2417  0.4155 -0.4358
18519TIP3    H176972   4.027   3.122  12.177  0.3039  1.1212 -0.2609
18519TIP3    H276973   4.000   3.146  12.030  0.4315  2.5037 -0.0650
18520TIP3   OH276974   5.382   0.834   5.378  0.1240  0.0896  1.0133
18520TIP3    H176975   5.471   0.865   5.390  0.2299  1.1701 -2.2383
18520TIP3    H276976   5.379   0.751   5.426  3.2711 -0.6087  0.1161
18521TIP3   OH276977   3.883   6.382   2.293 -0.2099  0.1716  0.5758
18521TIP3    H176978   3.885   6.331   2.374  0.5668  0.3936  0.7002
18521TIP3    H276979   3.802   6.355   2.250 -0.9452  0.5108  1.7182
18522TIP3   OH276980   4.002   1.961  13.243  0.2799  0.2360 -0.1535
18522TIP3    H176981   3.966   2.046  13.218 -0.0486 -0.0624 -0.7160
18522TIP3    H276982   3.968   1.901  13.177  0.2300 -0.3935  0.4434
18523TIP3   OH276983   4.968   5.327  10.979 -0.8135 -0.8183  0.1641
18523TIP3    H176984   4.935   5.259  11.038 -0.6783 -0.6454  0.4389
18523TIP3    H276985   5.056   5.297  10.955 -0.2942 -0.1790  1.2011
18524TIP3   OH276986   0.590   2.896   0.808  0.3276 -0.0625  0.6405
18524TIP3    H176987   0.607   2.907   0.715  0.4082 -1.0655  0.5368
18524TIP3    H276988   0.510   2.947   0.824  1.3210  1.6011  0.4011
18525TIP3   OH276989   0.822   2.622   3.015  0.8118  0.0427  0.2457
18525TIP3    H176990   0.795   2.543   2.968  1.2495 -0.6109  1.0689
18525TIP3    H276991   0.754   2.687   2.994 -0.1964 -0.9092  0.4860
18526TIP3   OH276992   0.946   4.038  11.875 -0.2026  0.0431 -0.8239
18526TIP3    H176993   0.879   4.094  11.914  0.8438  0.4616  0.4050
18526TIP3    H276994   0.923   3.950  11.903 -0.1437  0.2022 -0.2816
18527TIP3   OH276995   1.241   3.346  14.764 -0.9339 -0.1327  0.4413
18527TIP3    H176996   1.333   3.335  14.740 -0.8839 -0.5396  0.8264
18527TIP3    H276997   1.222   3.437  14.742 -0.5765 -0.1815 -0.0977
18528TIP3   OH276998   6.564   6.130   2.618  0.0287 -0.1780 -0.7418
18528TIP3    H176999   6.632   6.132   2.684 -2.0534 -1.4263  1.5115
18528TIP3    H277000   6.547   6.037   2.603 -1.4124  0.1055 -1.0133
18529TIP3   OH277001   6.046   2.757  13.899 -0.2867 -0.4704  0.5053
18529TIP3    H177002   6.080   2.680  13.945 -0.2421 -0.9466 -0.3233
18529TIP3    H277003   5.954   2.761  13.926  0.3636  0.7785  2.6863
18530TIP3   OH277004   5.602   0.739  15.946  0.0573  0.2800 -0.2456
18530TIP3    H177005   5.526   0.690  15.914 -0.3316  0.2549  0.6989
18530TIP3    H277006   5.584   0.754  16.039  0.3582  1.8819 -0.4334
18531TIP3   OH277007   1.599   4.335   2.508  0.1913 -0.3372 -0.2650
18531TIP3    H177008   1.687   4.356   2.477  0.0172 -1.3878 -1.5461
18531TIP3    H277009   1.566   4.273   2.443 -1.5579  0.1866  0.1137
18532TIP3   OH277010   1.398   2.150   4.238  0.0018  0.0923  0.3222
18532TIP3    H177011   1.305   2.172   4.252  0.1484  0.7840  0.2318
18532TIP3    H277012   1.430   2.125   4.325  0.3895  2.3971  0.8769
18533TIP3   OH277013   5.081   2.365  14.361  0.3501 -0.0866  0.0783
18533TIP3    H177014   5.072   2.283  14.311 -0.9945  0.6778 -0.9644
18533TIP3    H277015   5.026   2.428  14.315 -1.6627  0.4246  3.0253
18534TIP3   OH277016   4.437   3.298  12.187  0.3364  0.6538  0.3994
18534TIP3    H177017   4.531   3.282  12.181  0.4219  1.0826  0.6183
18534TIP3    H277018   4.404   3.279  12.099  1.0969  3.5514 -0.5636
18535TIP3   OH277019   5.873   5.005  13.804  0.2246  0.9158 -0.1050
18535TIP3    H177020   5.895   4.966  13.888 -1.0289 -0.0500 -0.2064
18535TIP3    H277021   5.779   5.022  13.810  0.5214  2.7992 -0.5255
18536TIP3   OH277022   3.480   2.196   5.101  0.4964  0.1505 -0.1924
18536TIP3    H177023   3.498   2.282   5.138  0.5344  0.6394 -1.3143
18536TIP3    H277024   3.385   2.184   5.112  0.4197  0.5306 -0.4274
18537TIP3   OH277025   2.261   1.836  15.461  0.2155  0.7751  0.5017
18537TIP3    H177026   2.308   1.891  15.525 -1.0665  1.6817  0.6805
18537TIP3    H277027   2.170   1.866  15.466 -0.4656 -1.2152  0.4187
18538TIP3   OH277028   3.632   6.038   2.166  0.0764  0.0196  0.2414
18538TIP3    H177029   3.623   6.105   2.098  0.5881  0.1790  0.3318
18538TIP3    H277030   3.716   5.996   2.148  0.2777  0.1587  0.8626
18539TIP3   OH277031   4.590   2.733   3.636  0.0239  0.1933 -0.2939
18539TIP3    H177032   4.683   2.748   3.653  0.2080 -1.5540  0.3541
18539TIP3    H277033   4.578   2.758   3.544  0.6461  2.4699  0.2023
18540TIP3   OH277034   6.720   4.839   2.689 -0.0440  0.1632 -0.1871
18540TIP3    H177035   6.668   4.820   2.767  1.7785 -0.6512  0.8513
18540TIP3    H277036   6.673   4.794   2.618 -0.3025 -1.3007  0.8848
18541TIP3   OH277037   1.181   2.394   3.793  0.1202 -0.2804 -0.0475
18541TIP3    H177038   1.230   2.346   3.727 -1.2916 -0.5921 -0.9000
18541TIP3    H277039   1.089   2.370   3.777 -0.1324 -1.6840  3.0862
18542TIP3   OH277040   4.007   5.414   1.340 -0.3785 -0.1096  0.0082
18542TIP3    H177041   3.935   5.382   1.395 -0.1982  0.9959  0.8950
18542TIP3    H277042   3.969   5.485   1.290 -0.3115 -0.5550 -0.6793
18543TIP3   OH277043   2.571   5.160   4.772 -0.0812 -0.2281  0.2446
18543TIP3    H177044   2.580   5.113   4.854 -0.1553  0.6871  0.7905
18543TIP3    H277045   2.514   5.105   4.719  1.6099 -1.8218  0.0224
18544TIP3   OH277046   3.587   3.764  12.510  0.2225 -0.3674  0.0924
18544TIP3    H177047   3.508   3.800  12.550  0.0173 -2.1173  1.3249
18544TIP3    H277048   3.659   3.804  12.559  0.0714  0.1994 -0.1451
18545TIP3   OH277049   0.504   3.527  14.835  0.1544  0.2304  0.1743
18545TIP3    H177050   0.531   3.617  14.815 -1.1954  0.1458 -2.2335
18545TIP3    H277051   0.573   3.472  14.799  1.1077  0.2634  1.8713
18546TIP3   OH277052   0.636   1.032   5.042 -0.1134 -0.3474  0.0615
18546TIP3    H177053   0.710   1.060   5.096 -0.3128 -0.1612  0.2376
18546TIP3    H277054   0.577   1.108   5.039 -0.1903 -0.4165 -0.2677
18547TIP3   OH277055   5.294   5.718   2.002  0.5439  0.0308  0.6638
18547TIP3    H177056   5.361   5.650   2.004  0.9881  0.4839  2.3640
18547TIP3    H277057   5.243   5.700   1.923  0.8969 -2.0330  0.8749
18548TIP3   OH277058   2.484   3.785  11.484  0.2860  0.1985 -0.0674
18548TIP3    H177059   2.498   3.877  11.507 -1.2495  0.7610 -1.3036
18548TIP3    H277060   2.549   3.768  11.416  0.4943  0.3954  0.0780
18549TIP3   OH277061   1.043   0.858   3.332 -0.3298 -0.1203  0.5583
18549TIP3    H177062   1.133   0.826   3.336  1.2696  4.2020  0.8267
18549TIP3    H277063   1.009   0.844   3.421  0.9356  0.5914  1.1681
18550TIP3   OH277064   3.001   3.922  15.753  0.1105 -0.3149 -0.3869
18550TIP3    H177065   3.071   3.986  15.747 -0.2761  0.0776 -0.8052
18550TIP3    H277066   3.043   3.843  15.786  0.6701  0.0293 -0.2653
18551TIP3   OH277067   1.806   4.559  16.108 -0.4263 -0.0715  0.1050
18551TIP3    H177068   1.770   4.492  16.165 -0.0253 -0.6906 -0.3684
18551TIP3    H277069   1.797   4.523  16.020  1.2667 -0.2145 -0.0373
18552TIP3   OH277070   1.354   1.993   1.986  0.0048 -0.3799  0.8631
18552TIP3    H177071   1.395   2.030   1.909 -2.7370  2.4713  0.6548
18552TIP3    H277072   1.359   1.898   1.973  2.0987  0.0028 -1.4042
18553TIP3   OH277073   4.217   4.500  11.262  0.7201 -0.3948 -0.5039
18553TIP3    H177074   4.244   4.574  11.317  0.7500 -0.2165 -0.7600
18553TIP3    H277075   4.258   4.516  11.178  2.7025 -1.9581  0.1343
18554TIP3   OH277076   1.945   0.444  14.415  0.0991 -0.5904  0.1912
18554TIP3    H177077   1.955   0.480  14.327  0.1285  0.2417  0.5322
18554TIP3    H277078   1.868   0.488  14.451  0.3502 -0.5942  0.7407
18555TIP3   OH277079   4.588   1.236   4.590 -0.3573  0.0691 -0.2891
18555TIP3    H177080   4.635   1.297   4.647  2.8443 -0.8270 -1.8542
18555TIP3    H277081   4.545   1.175   4.651  1.4710  0.2182  1.2189
18556TIP3   OH277082   0.859   4.751  14.345  0.3111  0.0122  0.7130
18556TIP3    H177083   0.937   4.698  14.329  0.7861  0.9119  0.0265
18556TIP3    H277084   0.850   4.751  14.440  2.4443  1.7339  0.9495
18557TIP3   OH277085   1.510   4.380  11.366  0.5915  0.2265 -0.1342
18557TIP3    H177086   1.570   4.446  11.331 -0.0304  1.4046  0.9532
18557TIP3    H277087   1.467   4.424  11.440 -0.0495 -1.3066  0.4242
18558TIP3   OH277088   3.970   5.609   5.811  0.5475  0.3203 -0.3566
18558TIP3    H177089   4.019   5.659   5.746 -0.7437  0.8419 -0.9459
18558TIP3    H277090   3.933   5.676   5.870 -0.7500  0.0400 -0.8399
18559TIP3   OH277091   0.900   0.476   2.876 -0.2984 -0.0820  0.1758
18559TIP3    H177092   0.806   0.497   2.882 -0.0213  1.4716 -0.7429
18559TIP3    H277093   0.917   0.472   2.782  0.1865 -2.1854  0.3185
18560TIP3   OH277094   3.201   1.598  16.598  0.1958  0.3513  0.0697
18560TIP3    H177095   3.263   1.666  16.622 -1.3862  2.2768 -1.2171
18560TIP3    H277096   3.237   1.560  16.517  1.1889 -0.5305  0.9075
18561TIP3   OH277097   6.298   3.073  13.153  0.5029  0.0494  0.1342
18561TIP3    H177098   6.314   3.011  13.224  0.5699  1.0822  1.0282
18561TIP3    H277099   6.216   3.043  13.114  1.3566 -1.5445 -0.4676
18562TIP3   OH277100   1.650   3.913   2.583 -0.1168  0.0078 -0.6706
18562TIP3    H177101   1.603   3.832   2.564  1.5626 -0.8189 -1.4499
18562TIP3    H277102   1.597   3.957   2.649 -1.3760 -1.4354 -0.6914
18563TIP3   OH277103   2.787   3.274  12.247 -0.0454  0.0702 -0.2456
18563TIP3    H177104   2.784   3.363  12.211 -0.9353 -0.0089 -0.3728
18563TIP3    H277105   2.880   3.258  12.263  0.1418  0.9390 -0.4385
18564TIP3   OH277106   1.149   6.708   1.341  0.0088  0.3009 -0.0040
18564TIP3    H177107   1.106   6.677   1.261  1.1812  0.6198 -0.7614
18564TIP3    H277108   1.089   6.683   1.412 -1.9168  1.5919 -1.1278
18565TIP3   OH277109   5.488   4.812   3.662  0.3061 -0.1881 -0.0362
18565TIP3    H177110   5.393   4.799   3.651  0.1877 -3.6685  3.6995
18565TIP3    H277111   5.520   4.726   3.689  3.9854  1.7517  2.0565
18566TIP3   OH277112   4.757   4.447  10.821  0.3742  0.8066 -0.0356
18566TIP3    H177113   4.689   4.493  10.771  0.3835 -0.3575 -1.1469
18566TIP3    H277114   4.828   4.434  10.759  1.0860  0.8584  0.7622
18567TIP3   OH277115   3.374   4.549   5.074  0.0278  0.8683  0.4104
18567TIP3    H177116   3.384   4.503   4.991 -0.9584  1.5517 -0.1056
18567TIP3    H277117   3.444   4.515   5.130  2.5713  2.5469 -1.6455
18568TIP3   OH277118   0.374   5.487  15.688 -0.1405 -1.0345  0.3246
18568TIP3    H177119   0.433   5.448  15.752 -0.4674 -1.0465  0.6184
18568TIP3    H277120   0.364   5.578  15.717  1.1666 -0.5338 -0.7448
18569TIP3   OH277121   3.116   0.086   2.885  0.2872  0.6351  0.2465
18569TIP3    H177122   3.078   0.170   2.859  0.2776  0.6669  0.3620
18569TIP3    H277123   3.210   0.098   2.877  0.3828  1.2308  1.9606
18570TIP3   OH277124   5.141   3.222  14.328  0.4904 -0.2758  0.3034
18570TIP3    H177125   5.192   3.290  14.283  0.8543 -0.1346  0.9297
18570TIP3    H277126   5.206   3.165  14.367  0.2291 -2.2769 -2.1017
18571TIP3   OH277127   3.437   2.522  13.071  0.1147  0.5687 -0.4781
18571TIP3    H177128   3.490   2.488  13.143 -0.7098 -0.5372 -0.3785
18571TIP3    H277129   3.435   2.617  13.085 -1.2047  0.2475  1.7795
18572TIP3   OH277130   1.247   1.875  12.319 -0.8571  0.0666  0.0826
18572TIP3    H177131   1.263   1.967  12.299 -0.7374  0.2750  1.1334
18572TIP3    H277132   1.219   1.837  12.235 -1.5458  1.1974 -0.2088
18573TIP3   OH277133   0.751   0.864   1.030 -0.3490  0.1644  0.0139
18573TIP3    H177134   0.807   0.856   0.952  0.1580 -0.6919  0.4718
18573TIP3    H277135   0.666   0.829   1.002  0.4629 -2.2779  0.5197
18574TIP3   OH277136   2.130   2.442  12.542  1.3046  0.8253  0.0195
18574TIP3    H177137   2.182   2.474  12.468 -0.2084  1.7285 -0.6825
18574TIP3    H277138   2.141   2.347  12.540  1.3937  0.8569 -1.2931
18575TIP3   OH277139   1.478   6.089  12.027  0.3466 -0.0652 -0.2697
18575TIP3    H177140   1.526   6.007  12.034  1.3789  0.4313 -1.4377
18575TIP3    H277141   1.433   6.097  12.112  1.0604 -1.3093  0.2459
18576TIP3   OH277142   1.767   5.580   6.324  0.3481 -0.2834 -0.4579
18576TIP3    H177143   1.703   5.586   6.254 -0.6499 -1.4676  0.3237
18576TIP3    H277144   1.851   5.570   6.280 -0.2343 -0.6954 -1.4790
18577TIP3   OH277145   4.589   3.744  12.432  0.5289  0.1881 -0.1605
18577TIP3    H177146   4.602   3.650  12.443 -0.3870  0.1215  0.4073
18577TIP3    H277147   4.672   3.783  12.459  0.8848 -0.4463 -0.3248
18578TIP3   OH277148   0.046   5.433   5.885  0.3186 -0.1348 -0.2287
18578TIP3    H177149   0.110   5.501   5.863 -0.9322  1.1865  0.1171
18578TIP3    H277150   0.046   5.375   5.809 -0.7908  1.9490 -1.8945
18579TIP3   OH277151   5.893   3.699  13.415 -0.0680 -0.0044  0.0406
18579TIP3    H177152   5.802   3.700  13.387  0.2572  0.4837 -1.0547
18579TIP3    H277153   5.931   3.622  13.372  0.6576  1.2591 -1.6676
18580TIP3   OH277154   4.459   6.684   4.150 -0.0602 -0.1598 -0.3132
18580TIP3    H177155   4.467   6.780   4.153 -0.7026 -0.0962 -0.5093
18580TIP3    H277156   4.543   6.654   4.117  1.2555  0.1543  2.5976
18581TIP3   OH277157   1.863   4.998  13.591  0.3030 -0.1183  0.3251
18581TIP3    H177158   1.818   5.006  13.675  0.4323  3.5435  0.1327
18581TIP3    H277159   1.956   4.990  13.615  0.1747 -0.9671  0.5571
18582TIP3   OH277160   3.893   1.883  10.576  0.1560  0.3010 -0.0748
18582TIP3    H177161   3.811   1.851  10.536 -0.6647  2.0397  0.1960
18582TIP3    H277162   3.886   1.978  10.572  1.5977  0.4648  1.1654
18583TIP3   OH277163   3.133   4.081   1.771  0.3191 -0.3140  0.3726
18583TIP3    H177164   3.098   4.170   1.775 -1.5689 -1.0185 -0.1286
18583TIP3    H277165   3.136   4.060   1.678 -0.3489 -1.2116  0.5565
18584TIP3   OH277166   1.921   6.746   3.955  0.0913 -0.5503  0.2365
18584TIP3    H177167   1.869   6.787   4.024 -1.8998 -2.8632  0.1848
18584TIP3    H277168   1.969   6.676   4.000  0.6539 -0.5121 -0.2955
18585TIP3   OH277169   2.025   6.551   0.404  0.1872 -0.3993  0.3966
18585TIP3    H177170   2.068   6.604   0.471 -2.5668  0.0868  1.8504
18585TIP3    H277171   2.075   6.469   0.402  1.2709  0.2091  1.8853
18586TIP3   OH277172   2.366   3.839  14.601 -0.0899 -0.1863  0.5958
18586TIP3    H177173   2.321   3.885  14.672  1.2068  1.3898  0.4337
18586TIP3    H277174   2.399   3.759  14.642 -1.1330 -0.2966  1.2520
18587TIP3   OH277175   5.221   0.056   5.027  0.0286  0.2803  0.7553
18587TIP3    H177176   5.140   0.059   5.078  0.6774 -1.5015  1.9277
18587TIP3    H277177   5.276  -0.007   5.074  1.6065  0.5257 -0.7455
18588TIP3   OH277178   2.840   4.368   4.585  0.6174  0.1944 -0.0041
18588TIP3    H177179   2.872   4.278   4.591 -0.5275 -0.2349 -0.1113
18588TIP3    H277180   2.775   4.375   4.655  1.8837  1.4526  1.0547
18589TIP3   OH277181   1.119   6.219   5.544 -0.0440 -0.6038 -0.5220
18589TIP3    H177182   1.202   6.176   5.523  1.1171  0.7099  1.2831
18589TIP3    H277183   1.110   6.287   5.477 -0.6852 -2.0257 -1.9220
18590TIP3   OH277184   0.063   4.834   3.981  0.0414 -0.1908 -0.0255
18590TIP3    H177185   0.100   4.847   4.068  2.0364 -0.0427 -0.8585
18590TIP3    H277186   0.020   4.917   3.961  0.1576  0.0169  0.5623
18591TIP3   OH277187   2.670   3.193  15.097 -1.1472  0.3203  0.0769
18591TIP3    H177188   2.648   3.144  15.176 -1.1464 -0.8730 -0.6630
18591TIP3    H277189   2.723   3.133  15.045  1.2403  2.0542  0.3959
18592TIP3   OH277190   1.123   6.393   1.385 -0.7638  0.3039 -0.2207
18592TIP3    H177191   1.165   6.338   1.452 -0.3906  1.2930  0.3623
18592TIP3    H277192   1.080   6.463   1.434  0.6174  1.7804 -1.0728
18593TIP3   OH277193   0.102   0.235  13.459  0.4084  0.1185 -0.0319
18593TIP3    H177194   0.158   0.168  13.421  2.5806  0.9325  1.6903
18593TIP3    H277195   0.075   0.200  13.544  0.8729  1.0687  0.5167
18594TIP3   OH277196   3.928   6.762  10.682  0.2419  0.1563 -0.1504
18594TIP3    H177197   3.987   6.765  10.606  0.9635  0.2034  0.4070
18594TIP3    H277198   3.913   6.853  10.705 -0.3059  0.1539 -0.4823
18595TIP3   OH277199   3.324   1.021  13.118  0.5610  0.0087  0.7042
18595TIP3    H177200   3.388   1.089  13.096  1.8077 -1.2695  0.3325
18595TIP3    H277201   3.248   1.070  13.151  0.5642  1.7207 -1.6831
18596TIP3   OH277202   3.730   1.076   4.603  0.1247 -0.1950  0.3369
18596TIP3    H177203   3.688   1.054   4.686  0.3306 -0.9775  0.2371
18596TIP3    H277204   3.751   0.991   4.563 -0.0334  0.1716 -0.5470
18597TIP3   OH277205   3.667   6.266  15.352 -0.2527  0.0372  0.0085
18597TIP3    H177206   3.622   6.217  15.282  1.0406  0.5959 -1.2249
18597TIP3    H277207   3.751   6.290  15.314 -0.0569  1.4678  1.3312
18598TIP3   OH277208   6.018   1.271  12.040 -0.2531 -0.1852 -0.5508
18598TIP3    H177209   6.094   1.265  12.098 -0.2564 -0.8122 -0.6138
18598TIP3    H277210   6.042   1.221  11.963 -0.6877 -0.2870 -0.6225
18599TIP3   OH277211   3.911   1.033   0.863 -0.5750  0.2194 -0.1659
18599TIP3    H177212   3.819   1.053   0.880 -0.2092  2.6331 -0.9231
18599TIP3    H277213   3.910   0.986   0.780 -1.2483 -1.0764  0.5613
18600TIP3   OH277214   1.545   2.555   4.719 -0.1396 -0.5531  0.1281
18600TIP3    H177215   1.532   2.464   4.695 -0.3784 -0.5570  0.2626
18600TIP3    H277216   1.601   2.591   4.651 -1.5713 -0.3216 -0.9606
18601TIP3   OH277217   2.341   4.070  10.694 -0.4229  0.0084 -0.1232
18601TIP3    H177218   2.396   4.000  10.728 -0.2308  0.2450  0.0552
18601TIP3    H277219   2.275   4.085  10.762 -0.9726 -0.5667 -0.5199
18602TIP3   OH277220   2.587   5.676  16.100 -0.5086  0.4343 -0.6367
18602TIP3    H177221   2.569   5.770  16.102 -2.7562  0.0197 -0.0594
18602TIP3    H277222   2.567   5.646  16.189 -1.4360 -0.8653 -1.2659
18603TIP3   OH277223   2.435   2.188  11.799 -0.1146 -0.5632  0.7004
18603TIP3    H177224   2.509   2.127  11.799 -0.5267 -1.0804  1.9190
18603TIP3    H277225   2.461   2.257  11.738  1.0625 -1.1135  0.5618
18604TIP3   OH277226   5.474   6.075  10.749 -0.6959 -0.2770  0.3867
18604TIP3    H177227   5.422   6.152  10.727  0.7161  0.5607 -0.0749
18604TIP3    H277228   5.450   6.010  10.683  0.9868  1.0866 -1.6333
18605TIP3   OH277229   6.265   2.713  12.406 -0.1410  0.0208  0.1667
18605TIP3    H177230   6.262   2.743  12.497 -1.1378 -0.2593  0.2273
18605TIP3    H277231   6.221   2.782  12.356  0.0056 -0.0417 -0.0498
18606TIP3   OH277232   0.335   6.066  13.189 -0.1181  0.0353  0.3943
18606TIP3    H177233   0.335   5.971  13.177  1.9133 -0.1302  1.5083
18606TIP3    H277234   0.403   6.082  13.255  0.2591  2.3470 -0.5034
18607TIP3   OH277235   0.259   4.077  11.653  0.7632 -0.8108  0.5118
18607TIP3    H177236   0.257   4.173  11.646 -0.1002 -0.7137  1.8822
18607TIP3    H277237   0.350   4.054  11.638  0.7915  0.1335 -0.8865
18608TIP3   OH277238   1.523   5.859  13.878 -0.5352 -0.5968  0.3922
18608TIP3    H177239   1.468   5.847  13.800 -0.7773 -2.1779  0.7772
18608TIP3    H277240   1.598   5.802  13.863  1.7395  2.5543 -0.7356
18609TIP3   OH277241   0.667   4.586   5.463 -0.1606  0.0502 -0.4462
18609TIP3    H177242   0.657   4.647   5.536  0.3917 -1.6684  1.0901
18609TIP3    H277243   0.762   4.570   5.458 -0.2736 -0.4790 -1.0075
18610TIP3   OH277244   0.905   2.729   2.671  0.1126  0.5078 -0.0270
18610TIP3    H177245   0.966   2.673   2.718 -0.1586  0.7226  0.5892
18610TIP3    H277246   0.820   2.711   2.711 -0.4737 -0.8406 -1.8235
18611TIP3   OH277247   4.701   1.300   5.186 -0.4159 -0.6757  0.2280
18611TIP3    H177248   4.624   1.264   5.230 -2.1492 -0.8339 -2.8096
18611TIP3    H277249   4.677   1.391   5.166  0.3943 -0.5680 -0.2811
18612TIP3   OH277250   6.484   0.211  11.818  0.4406  0.3835 -0.2680
18612TIP3    H177251   6.472   0.306  11.827 -1.7892  0.0470  0.6092
18612TIP3    H277252   6.481   0.178  11.907  0.8906 -0.5572 -0.6026
18613TIP3   OH277253   4.159   6.083   0.225 -0.1319 -0.0610  0.6810
18613TIP3    H177254   4.070   6.063   0.252 -0.7387  0.2418 -1.0176
18613TIP3    H277255   4.182   6.014   0.163  1.0466 -0.4828  1.5684
18614TIP3   OH277256   1.136   0.262  14.333  0.5489 -0.5412  0.1620
18614TIP3    H177257   1.124   0.170  14.308  1.1995 -0.3515 -0.8499
18614TIP3    H277258   1.107   0.266  14.425 -1.7867 -1.2576 -0.5109
18615TIP3   OH277259   0.792   1.485  14.727  0.1825  0.4818  0.0440
18615TIP3    H177260   0.784   1.392  14.706 -2.1362  0.7092 -0.1967
18615TIP3    H277261   0.886   1.499  14.738  0.5988 -1.7797 -0.3898
18616TIP3   OH277262   1.059   5.728   2.128 -0.2652  0.4088 -0.4210
18616TIP3    H177263   1.016   5.776   2.199 -2.2832  0.3035 -1.5423
18616TIP3    H277264   1.053   5.636   2.154 -2.0301  0.2757 -1.2505
18617TIP3   OH277265   5.600   1.846   6.225  0.6180  0.6205 -0.5230
18617TIP3    H177266   5.523   1.846   6.282  0.1175  1.0703 -1.1858
18617TIP3    H277267   5.607   1.936   6.194 -0.1474  0.0279 -2.5168
18618TIP3   OH277268   4.135   6.372   0.972 -0.5606  0.3849 -0.4261
18618TIP3    H177269   4.134   6.468   0.967 -0.7767  0.6688  3.3316
18618TIP3    H277270   4.068   6.351   1.037  1.8249 -2.0858  1.3558
18619TIP3   OH277271   0.802   2.639  11.466  0.3527 -0.3218  0.6105
18619TIP3    H177272   0.869   2.668  11.529  2.3946 -1.7696 -0.8134
18619TIP3    H277273   0.841   2.562  11.424 -1.5072 -0.1529 -1.5221
18620TIP3   OH277274   0.628   1.306   2.624 -0.2528  0.0964  0.2885
18620TIP3    H177275   0.723   1.305   2.632 -0.3726  0.5365  1.9297
18620TIP3    H277276   0.611   1.301   2.530  1.3765 -0.6538  0.0321
18621TIP3   OH277277   0.279   6.720   2.154  0.3467 -0.7435 -0.6312
18621TIP3    H177278   0.332   6.650   2.118  1.0387 -0.5680  0.0227
18621TIP3    H277279   0.343   6.788   2.178 -0.3992  0.5464 -2.2414
18622TIP3   OH277280   4.056   1.992   3.078  0.2938 -0.3535 -0.6876
18622TIP3    H177281   4.070   2.056   3.008 -0.9288 -1.2259 -1.7523
18622TIP3    H277282   4.123   1.925   3.063  1.8160  0.8231  0.6497
18623TIP3   OH277283   0.192   3.976  16.858 -0.3851  0.1523  0.0636
18623TIP3    H177284   0.123   4.039  16.878 -0.4975  1.2497 -3.3770
18623TIP3    H277285   0.164   3.894  16.899 -2.3853  1.2675  0.9663
18624TIP3   OH277286   4.981   0.622  17.224 -0.0143  0.0944 -0.5061
18624TIP3    H177287   4.985   0.543  17.169  0.9133 -0.6975  0.6675
18624TIP3    H277288   4.888   0.636  17.240 -0.0831 -2.2361  1.3371
18625TIP3   OH277289   2.098   2.025   5.264  0.3755 -0.1409  0.2966
18625TIP3    H177290   2.106   2.120   5.276 -1.2085 -0.1881  1.9312
18625TIP3    H277291   2.006   2.007   5.281  0.7602 -2.0354  0.4247
18626TIP3   OH277292   1.690   1.348  14.891  0.0889  0.4543  0.6498
18626TIP3    H177293   1.720   1.401  14.818 -1.3429  0.1565 -0.1734
18626TIP3    H277294   1.613   1.395  14.924 -0.5567 -0.5487  0.5832
18627TIP3   OH277295   1.295   5.803  12.109 -0.4246  0.2309  0.3651
18627TIP3    H177296   1.278   5.844  12.024  1.2479  0.3320  0.0563
18627TIP3    H277297   1.284   5.874  12.172 -0.8026  0.3665  0.1469
18628TIP3   OH277298   1.835   2.375  16.643 -0.0646 -0.1190  0.1238
18628TIP3    H177299   1.915   2.325  16.628 -0.1618 -0.3894  0.5152
18628TIP3    H277300   1.845   2.453  16.589  0.3597 -0.2652 -0.0069
18629TIP3   OH277301   1.734   3.204  13.167  0.7277  0.3141 -0.0163
18629TIP3    H177302   1.740   3.184  13.260  1.3975  1.0242  0.1009
18629TIP3    H277303   1.776   3.130  13.124 -0.5571 -0.5384  0.1846
18630TIP3   OH277304   2.429   5.288  11.346  0.0885  0.4886 -0.6392
18630TIP3    H177305   2.518   5.285  11.311  0.5903  0.3216  0.6340
18630TIP3    H277306   2.403   5.197  11.354  0.1264  0.5086 -0.2364
18631TIP3   OH277307   2.954   5.879   5.496  0.5886  0.1278  0.1431
18631TIP3    H177308   3.020   5.836   5.442  1.2706  0.5366  0.6439
18631TIP3    H277309   2.980   5.859   5.586 -1.8493 -2.5359  0.3444
18632TIP3   OH277310   2.729   1.256   3.773  0.1453  0.5320 -0.7076
18632TIP3    H177311   2.787   1.197   3.725 -0.0069 -0.0121 -0.2402
18632TIP3    H277312   2.672   1.197   3.823 -1.2181  1.0342 -1.6431
18633TIP3   OH277313   2.428   3.823   1.195 -0.3842  0.0865  0.2557
18633TIP3    H177314   2.462   3.840   1.107 -2.8867  0.7832 -0.6278
18633TIP3    H277315   2.470   3.889   1.250 -0.3271  0.9747 -0.8185
18634TIP3   OH277316   5.285   4.201  13.529  0.0758 -0.2403 -0.5793
18634TIP3    H177317   5.267   4.290  13.499  1.5371 -0.0289 -0.8514
18634TIP3    H277318   5.288   4.149  13.449  0.4162 -0.3201 -0.5144
18635TIP3   OH277319   5.108   1.046   5.842 -0.1130  0.2799  0.6208
18635TIP3    H177320   5.074   1.126   5.803  1.1194  0.6588  0.2991
18635TIP3    H277321   5.075   1.047   5.932 -0.5573  0.8729  0.4492
18636TIP3   OH277322   1.075   1.202   4.722  0.0772  0.2069  0.2691
18636TIP3    H177323   1.103   1.186   4.632 -0.1474  0.2954  0.1848
18636TIP3    H277324   1.011   1.273   4.716  1.4120  1.4712  0.6912
18637TIP3   OH277325   5.451   1.234   2.359 -0.1013 -0.3385 -0.1858
18637TIP3    H177326   5.547   1.241   2.360 -0.0623 -0.9409  0.1434
18637TIP3    H277327   5.422   1.319   2.325  0.5929 -0.6512 -1.6016
18638TIP3   OH277328   3.397   1.854   5.245  0.1022 -0.5587  0.4351
18638TIP3    H177329   3.326   1.790   5.248 -0.1902 -0.1347  3.1578
18638TIP3    H277330   3.471   1.810   5.286  0.7899 -0.2303 -0.4457
18639TIP3   OH277331   0.936   0.693   4.145  0.2301  0.0107  0.3075
18639TIP3    H177332   0.889   0.648   4.216  0.0855  1.0894  0.9091
18639TIP3    H277333   1.025   0.658   4.149 -0.5985 -2.3949 -1.1371
18640TIP3   OH277334   5.621   4.297  12.325  0.4711 -0.1458  0.1489
18640TIP3    H177335   5.648   4.349  12.250  1.3640  0.5848  0.9683
18640TIP3    H277336   5.545   4.248  12.294 -0.3208  1.5533 -0.6807
18641TIP3   OH277337   6.401   1.296  15.215  0.2712 -0.4379  0.4680
18641TIP3    H177338   6.457   1.219  15.207 -0.5681 -0.8071 -2.4146
18641TIP3    H277339   6.430   1.354  15.145 -0.9130  0.7022  0.9011
18642TIP3   OH277340   3.542   4.732   4.623  0.2630  0.5323 -0.0806
18642TIP3    H177341   3.577   4.765   4.541 -0.7578  0.5694 -0.5017
18642TIP3    H277342   3.452   4.707   4.603 -0.1844  1.1025  1.1664
18643TIP3   OH277343   0.686   0.200   6.626  0.5650  0.1389  0.1366
18643TIP3    H177344   0.667   0.127   6.685 -3.3352  0.0019 -1.2126
18643TIP3    H277345   0.648   0.276   6.669  1.6186  0.8271 -0.1165
18644TIP3   OH277346   6.221   5.595  15.406  0.2094 -0.5664 -0.9309
18644TIP3    H177347   6.292   5.548  15.451 -2.0933 -1.7285  1.5914
18644TIP3    H277348   6.205   5.543  15.327  0.6962 -1.5201 -0.4085
18645TIP3   OH277349   2.461   3.354   5.222 -0.2639  0.6750  0.4672
18645TIP3    H177350   2.515   3.420   5.179 -0.3402 -0.3316 -1.2394
18645TIP3    H277351   2.388   3.403   5.260  1.6821  2.0250  2.6001
18646TIP3   OH277352   2.319   3.634  15.722  0.1941 -0.6716 -0.0639
18646TIP3    H177353   2.317   3.538  15.725 -1.1955 -0.6747 -1.0159
18646TIP3    H277354   2.284   3.661  15.807 -2.1212 -0.9938 -0.9069
18647TIP3   OH277355   0.673   3.996   1.586 -0.8151  0.1556  0.5964
18647TIP3    H177356   0.659   3.957   1.500 -2.0459 -0.5927  1.1281
18647TIP3    H277357   0.646   4.087   1.575 -0.1456  0.2862 -0.0328
18648TIP3   OH277358   1.382   3.746  11.737  0.1378  0.1823  0.2338
18648TIP3    H177359   1.478   3.751  11.744  0.0415  0.1658  1.5734
18648TIP3    H277360   1.367   3.671  11.679  0.9649  1.1987 -1.3414
18649TIP3   OH277361   5.311   6.742  13.105  0.0974 -0.1049 -0.6658
18649TIP3    H177362   5.325   6.794  13.026 -1.5055  1.9861  0.3651
18649TIP3    H277363   5.398   6.727  13.140  0.7200  0.1953 -2.0782
18650TIP3   OH277364   1.176   0.591   4.201 -0.4133  0.0671  0.5945
18650TIP3    H177365   1.177   0.496   4.186 -2.7690 -0.1720  1.6627
18650TIP3    H277366   1.247   0.624   4.147 -2.1659 -1.8586 -3.1124
18651TIP3   OH277367   1.353   4.745  10.966  0.0206 -0.1018 -0.7220
18651TIP3    H177368   1.426   4.744  10.904  0.0791  1.2960 -0.7030
18651TIP3    H277369   1.306   4.664  10.949  1.6869 -1.1140 -0.6042
18652TIP3   OH277370   1.441   6.383  12.736 -0.1551  0.1068 -0.8109
18652TIP3    H177371   1.491   6.381  12.655  1.7826  0.1692  0.3471
18652TIP3    H277372   1.446   6.474  12.766  0.5378 -0.2725  0.2283
18653TIP3   OH277373   1.813   5.925   3.597  0.2059 -0.1728  0.4847
18653TIP3    H177374   1.890   5.897   3.547  0.7813 -0.4739  1.5293
18653TIP3    H277375   1.752   5.851   3.590  0.5112 -0.4486  0.6844
18654TIP3   OH277376   2.058   3.104   5.145 -0.0136 -0.3100 -0.0912
18654TIP3    H177377   2.015   3.022   5.120  0.8895 -1.2417  1.3177
18654TIP3    H277378   2.152   3.086   5.131  0.1530  0.6445 -0.2030
18655TIP3   OH277379   0.131   5.013  13.369 -0.3525  0.5381 -0.2138
18655TIP3    H177380   0.176   4.930  13.384  0.3673  1.0272  0.3858
18655TIP3    H277381   0.201   5.077  13.357 -0.8383  1.5417  1.9974
18656TIP3   OH277382   2.111   3.456  11.576 -0.0795  0.1737  0.0188
18656TIP3    H177383   2.069   3.541  11.570  0.7181  0.6109  0.4989
18656TIP3    H277384   2.141   3.450  11.666  1.1102 -0.0092 -0.3759
18657TIP3   OH277385   4.024   4.011  16.492  0.1944  0.4630 -0.4015
18657TIP3    H177386   4.074   4.046  16.567 -0.6656  1.2817 -0.2001
18657TIP3    H277387   4.074   4.039  16.415  0.6736  0.2760 -0.1589
18658TIP3   OH277388   2.382   5.812   1.674 -0.0910  0.1685 -0.2815
18658TIP3    H177389   2.446   5.836   1.741 -0.1160  1.9582 -0.8822
18658TIP3    H277390   2.432   5.760   1.610  0.4354  0.3720 -0.0323
18659TIP3   OH277391   2.312   3.677  11.700 -0.1625  0.1481 -0.0241
18659TIP3    H177392   2.372   3.697  11.628 -0.9345  0.3947 -0.6078
18659TIP3    H277393   2.315   3.582  11.708 -0.3328  0.0886 -0.6165
18660TIP3   OH277394   6.292   3.761   5.452 -0.1501 -0.0023 -0.5921
18660TIP3    H177395   6.350   3.738   5.524 -0.7021  1.3315  0.3021
18660TIP3    H277396   6.348   3.760   5.374  0.7546 -0.0564  0.0545
18661TIP3   OH277397   2.225   5.968  12.804 -0.8055  0.4265  0.5010
18661TIP3    H177398   2.268   5.905  12.747 -1.7486  2.0600 -2.0920
18661TIP3    H277399   2.133   5.942  12.803 -0.8837  0.6823  0.9942
18662TIP3   OH277400   3.254   3.855   3.483  0.4085  0.7351  0.1960
18662TIP3    H177401   3.269   3.827   3.393  0.1031 -0.8225  0.6088
18662TIP3    H277402   3.265   3.775   3.535  1.6338  1.8106  1.6625
18663TIP3   OH277403   4.865   5.499   0.832  0.0027 -0.7043  0.2900
18663TIP3    H177404   4.960   5.496   0.823 -0.0785 -1.4822 -0.4033
18663TIP3    H277405   4.843   5.424   0.887 -0.3901 -1.8771 -1.4066
18664TIP3   OH277406   3.641   4.547   1.936  0.7062 -0.3691 -0.3483
18664TIP3    H177407   3.573   4.496   1.979  0.8698 -0.1142  0.2244
18664TIP3    H277408   3.713   4.550   2.000  1.5763 -1.3183 -1.2577
18665TIP3   OH277409   1.243   0.419  11.438  0.1037  0.6054 -0.0134
18665TIP3    H177410   1.252   0.506  11.400 -0.9616  0.8336  0.2249
18665TIP3    H277411   1.150   0.412  11.460  0.4866  0.0463  1.4817
18666TIP3   OH277412   0.708   3.266  15.255 -0.8442  0.3128 -0.1398
18666TIP3    H177413   0.705   3.298  15.345 -1.0829 -0.3439  0.0858
18666TIP3    H277414   0.630   3.211  15.246 -1.6414  1.6017 -1.2171
18667TIP3   OH277415   6.708   5.091  14.144  0.0227 -0.3149  0.2685
18667TIP3    H177416   6.781   5.098  14.082  0.1619  1.9976  0.6536
18667TIP3    H277417   6.743   5.126  14.226 -1.3055  0.1389  0.6480
18668TIP3   OH277418   5.353   1.901   1.554  0.0617 -0.3652  0.2119
18668TIP3    H177419   5.297   1.954   1.497  2.9942  0.0217 -2.4240
18668TIP3    H277420   5.338   1.811   1.524  0.7579 -0.2732 -0.4146
18669TIP3   OH277421   2.692   1.528  11.100 -0.1168 -0.1634 -0.0579
18669TIP3    H177422   2.637   1.543  11.024  0.4895 -0.0271 -0.4793
18669TIP3    H277423   2.765   1.589  11.089  1.7246 -2.4566 -1.1412
18670TIP3   OH277424   6.444   0.763   3.199 -0.5364  0.3027 -0.0886
18670TIP3    H177425   6.438   0.754   3.104 -1.9309 -1.0200  0.1021
18670TIP3    H277426   6.532   0.797   3.214 -0.3053  0.5554 -1.8481
18671TIP3   OH277427   0.470   3.466   3.619  0.0012  0.0919  0.6301
18671TIP3    H177428   0.502   3.437   3.705  2.0424 -1.0121 -0.4597
18671TIP3    H277429   0.490   3.393   3.560 -0.1826  1.3474 -1.0312
18672TIP3   OH277430   2.377   3.145  14.080 -0.5704 -0.1355 -0.2644
18672TIP3    H177431   2.440   3.077  14.058 -0.1726 -0.7836  2.7366
18672TIP3    H277432   2.421   3.227  14.054  1.9077 -0.5069  2.4835
18673TIP3   OH277433   0.881   1.651  12.395  0.3758  0.0253 -0.3208
18673TIP3    H177434   0.871   1.643  12.301  0.0612 -0.7235 -0.2253
18673TIP3    H277435   0.849   1.568  12.430  2.2562 -0.4578  0.3172
18674TIP3   OH277436   3.411   1.900  11.760  0.2556  0.1581 -0.0883
18674TIP3    H177437   3.383   1.947  11.681 -0.2448 -0.2741 -0.1739
18674TIP3    H277438   3.356   1.821  11.761  1.1285 -0.4558  0.0147
18675TIP3   OH277439   3.125   0.241   2.498  0.3361 -0.4380  0.1570
18675TIP3    H177440   3.214   0.231   2.531  0.2742 -1.4207  0.0437
18675TIP3    H277441   3.080   0.160   2.524  0.0094 -0.7805 -1.4113
18676TIP3   OH277442   1.298   3.835   2.092  0.4114 -0.2933  0.1979
18676TIP3    H177443   1.276   3.764   2.033  1.5223 -0.3755 -0.1258
18676TIP3    H277444   1.364   3.798   2.150  1.0962  0.5135 -0.0594
18677TIP3   OH277445   6.640   0.095   5.267  0.1299 -0.1473 -0.3869
18677TIP3    H177446   6.612   0.173   5.315 -0.2763  0.0443 -0.9315
18677TIP3    H277447   6.563   0.070   5.216  1.4730  1.3556 -3.2245
18678TIP3   OH277448   5.578   2.539   5.466  0.1574 -0.0318 -0.4766
18678TIP3    H177449   5.606   2.592   5.540  3.0084 -1.7741 -0.2242
18678TIP3    H277450   5.599   2.592   5.389 -0.9897  0.9628 -0.1119
18679TIP3   OH277451   4.219   5.297  13.322  0.6005 -0.1624  0.0148
18679TIP3    H177452   4.214   5.307  13.417  2.0458  0.8896 -0.0009
18679TIP3    H277453   4.148   5.351  13.288  0.6559  0.1960  0.4600
18680TIP3   OH277454   1.484   4.124   3.722  0.1313  0.0029 -0.4569
18680TIP3    H177455   1.568   4.138   3.764  0.1647 -0.5431 -0.3439
18680TIP3    H277456   1.429   4.083   3.789 -0.2522  0.4269 -0.5035
18681TIP3   OH277457   2.569   5.728  15.492 -0.5954 -0.4092  0.0210
18681TIP3    H177458   2.632   5.755  15.559 -2.3845 -2.1658  2.5226
18681TIP3    H277459   2.579   5.633  15.487 -1.0828 -0.3825 -1.6264
18682TIP3   OH277460   2.930   1.913  12.069 -0.2687 -0.2596 -0.4596
18682TIP3    H177461   2.881   1.980  12.117  1.3807 -0.3193  1.3310
18682TIP3    H277462   2.889   1.831  12.093 -2.2972  0.0451 -2.6580
18683TIP3   OH277463   1.063   3.783  14.145  0.4179  0.2438 -0.2216
18683TIP3    H177464   0.973   3.770  14.174  1.0922  0.7948  2.3054
18683TIP3    H277465   1.063   3.867  14.100 -0.3003  0.3382 -0.0483
18684TIP3   OH277466   6.727   1.613   2.959 -0.2165  0.8662  0.7237
18684TIP3    H177467   6.636   1.643   2.956 -0.0409  1.4013  0.6534
18684TIP3    H277468   6.752   1.603   2.867  0.6032  3.2249  0.6505
18685TIP3   OH277469   2.560   0.582   1.554  0.4352 -0.2039 -0.3345
18685TIP3    H177470   2.466   0.571   1.543  0.1166 -0.6452  2.6902
18685TIP3    H277471   2.580   0.662   1.505 -1.8371  0.9687  0.5924
18686TIP3   OH277472   5.021   6.027  14.734 -1.1131  0.0774 -0.1888
18686TIP3    H177473   4.931   6.050  14.711 -0.8755  0.4231 -0.7829
18686TIP3    H277474   5.066   6.022  14.650  0.0764  2.6364  0.2767
18687TIP3   OH277475   2.279   6.090   2.571 -0.3413  0.1577 -0.8038
18687TIP3    H177476   2.278   6.163   2.633  0.5837  0.0289 -0.6414
18687TIP3    H277477   2.333   6.121   2.498  0.8945 -0.7549 -0.2723
18688TIP3   OH277478   3.351   3.659   2.465 -0.1902 -0.1941  0.1615
18688TIP3    H177479   3.262   3.687   2.487  0.3084 -0.8736  3.2209
18688TIP3    H277480   3.342   3.568   2.439 -0.6724  0.3905 -1.8340
18689TIP3   OH277481   1.422   4.611   1.785  0.0180  0.0273 -0.5835
18689TIP3    H177482   1.356   4.546   1.762 -0.3339  0.3524 -0.4940
18689TIP3    H277483   1.420   4.616   1.880 -0.6649  0.9015 -0.6415
18690TIP3   OH277484   2.497   6.340   0.578 -0.3134  0.2848  0.0308
18690TIP3    H177485   2.416   6.386   0.556 -1.1040 -0.1332  1.9338
18690TIP3    H277486   2.475   6.247   0.568 -0.5220  0.1066  1.8255
18691TIP3   OH277487   5.261   5.325   3.368 -0.0163 -0.3692 -0.0374
18691TIP3    H177488   5.253   5.234   3.394 -0.4047 -0.7328 -1.4083
18691TIP3    H277489   5.173   5.361   3.375 -0.0097 -0.3059 -0.2713
18692TIP3   OH277490   6.700   2.364  11.579 -0.5002 -0.7926  0.0982
18692TIP3    H177491   6.786   2.403  11.565  0.2710 -1.7126  2.0614
18692TIP3    H277492   6.690   2.361  11.674 -3.2704  0.4832 -0.0999
18693TIP3   OH277493   5.283   2.047  10.467  0.1385 -0.4714  0.1680
18693TIP3    H177494   5.282   1.955  10.494 -0.4178 -0.5237 -0.0269
18693TIP3    H277495   5.376   2.070  10.467  0.3887 -1.3774 -0.9275
18694TIP3   OH277496   3.460   4.776   4.364  0.3100 -0.0454 -0.3057
18694TIP3    H177497   3.417   4.729   4.293 -3.6174  2.6424  0.1175
18694TIP3    H277498   3.479   4.862   4.327  1.7985  0.0951  0.7572
18695TIP3   OH277499   3.159   1.634  14.553 -0.1146 -0.0541 -0.4321
18695TIP3    H177500   3.141   1.584  14.632  1.7555 -1.3321 -0.7798
18695TIP3    H277501   3.079   1.625  14.500 -1.3551  0.7805  1.2672
18696TIP3   OH277502   1.424   2.503  13.406 -0.1343  0.5283  0.1260
18696TIP3    H177503   1.366   2.439  13.365  0.0958 -0.2450  0.9912
18696TIP3    H277504   1.486   2.526  13.338  0.3086 -0.8239  0.0591
18697TIP3   OH277505   1.617   4.647  12.437  0.1051 -0.0540  0.4221
18697TIP3    H177506   1.560   4.580  12.475 -1.1926  1.0897  0.5384
18697TIP3    H277507   1.597   4.645  12.343  0.5985 -0.3338  0.3234
18698TIP3   OH277508   1.080   1.580  11.574 -0.0214  0.2457 -0.3651
18698TIP3    H177509   0.985   1.568  11.576  0.1141 -1.0275 -0.8654
18698TIP3    H277510   1.092   1.658  11.519 -0.8135  1.1573  0.7081
18699TIP3   OH277511   4.885   2.583  13.277  0.4115  0.5174 -0.2334
18699TIP3    H177512   4.870   2.644  13.205  0.9182 -0.3145 -1.0531
18699TIP3    H277513   4.814   2.601  13.339 -1.0801  0.0227 -1.7718
18700TIP3   OH277514   2.088   3.777   2.402 -0.0280  0.2805 -0.3696
18700TIP3    H177515   2.102   3.856   2.349 -1.8262 -0.0170 -1.3240
18700TIP3    H277516   2.006   3.741   2.370 -0.4141 -0.7164  1.6482
18701TIP3   OH277517   0.415   5.329  15.937 -0.1452  0.4269  0.2319
18701TIP3    H177518   0.430   5.260  15.872  1.8538  1.6965 -0.7232
18701TIP3    H277519   0.496   5.332  15.988 -0.2455  1.9617  0.3428
18702TIP3   OH277520   3.849   1.788   6.401 -0.1986 -0.4168  0.3026
18702TIP3    H177521   3.787   1.859   6.385  0.9558  0.0765 -2.1927
18702TIP3    H277522   3.926   1.832   6.439  0.3400 -0.3834 -0.8158
18703TIP3   OH277523   2.583   5.465  13.015  0.3587  0.3860 -0.2171
18703TIP3    H177524   2.488   5.456  13.014  0.3718 -0.1047  1.2423
18703TIP3    H277525   2.602   5.531  12.948 -1.0857  1.1128  0.0641
18704TIP3   OH277526   4.260   3.301   6.380  0.2591 -0.4460 -0.6074
18704TIP3    H177527   4.234   3.388   6.409 -1.4037 -1.2270  0.2895
18704TIP3    H277528   4.342   3.284   6.425  1.1008  1.0421 -1.5390
18705TIP3   OH277529   3.177   0.421   1.505  0.8293  0.2992  0.4299
18705TIP3    H177530   3.153   0.504   1.463 -0.8416  0.0440  0.8733
18705TIP3    H277531   3.251   0.444   1.561  0.7488  1.3766  0.1101
18706TIP3   OH277532   1.444   5.399  13.427 -0.4478 -0.0536  0.0748
18706TIP3    H177533   1.420   5.333  13.362  0.5792 -2.0646  1.6533
18706TIP3    H277534   1.427   5.356  13.511  1.4038  1.2405  1.1506
18707TIP3   OH277535   1.641   5.059  13.380  0.0087 -0.0332 -0.0664
18707TIP3    H177536   1.707   5.037  13.446  0.6580  1.1793 -0.2960
18707TIP3    H277537   1.668   5.012  13.302  0.3262  0.0581 -0.0122
18708TIP3   OH277538   5.670   5.860  14.061  0.1073  0.1917 -0.4863
18708TIP3    H177539   5.738   5.926  14.077  0.4401 -0.6279  1.7376
18708TIP3    H277540   5.710   5.799  13.999  0.9460  0.3995 -0.1624
18709TIP3   OH277541   3.151   1.936  12.781  0.1370  0.5066  0.2918
18709TIP3    H177542   3.111   2.023  12.783 -0.1553  0.3631  1.1636
18709TIP3    H277543   3.240   1.949  12.814  0.5360  0.6932 -0.8630
18710TIP3   OH277544   4.622   2.149  11.467  0.5171  0.1989 -0.0587
18710TIP3    H177545   4.699   2.130  11.414  0.6527  0.7194 -0.0532
18710TIP3    H277546   4.647   2.124  11.556 -0.0286 -1.5316 -0.3775
18711TIP3   OH277547   5.817   4.920   3.898 -0.0723  0.8407 -0.1286
18711TIP3    H177548   5.748   4.858   3.921  0.7919  0.3206  1.1618
18711TIP3    H277549   5.870   4.928   3.978  0.5922  2.2402 -0.6841
18712TIP3   OH277550   5.171   3.028  10.465 -0.1850 -0.1758 -0.1259
18712TIP3    H177551   5.129   2.943  10.458  0.6702 -0.6119 -0.0202
18712TIP3    H277552   5.118   3.075  10.530 -2.2190  0.3377 -2.1082
18713TIP3   OH277553   6.422   3.465  14.561 -0.2807 -0.3703 -0.3733
18713TIP3    H177554   6.481   3.393  14.586 -0.0099 -1.0521 -2.8795
18713TIP3    H277555   6.479   3.531  14.523 -0.7180  0.5325  0.5301
18714TIP3   OH277556   2.200   3.036   1.383  0.0001  0.2221 -0.0200
18714TIP3    H177557   2.173   2.985   1.307 -1.6552 -1.4016  1.6041
18714TIP3    H277558   2.127   3.097   1.398 -0.3593 -0.4697  1.1196
18715TIP3   OH277559   3.295   4.025   5.298  0.4774 -0.4830  0.3091
18715TIP3    H177560   3.279   4.074   5.217  1.1102 -0.2558  0.3130
18715TIP3    H277561   3.238   3.949   5.292 -0.1523  0.0071  0.0707
18716TIP3   OH277562   5.301   0.447   1.746 -0.6609  0.2536  0.2904
18716TIP3    H177563   5.315   0.484   1.658  0.2530 -1.4872 -0.3091
18716TIP3    H277564   5.303   0.523   1.804 -0.0518  1.3009 -1.0684
18717TIP3   OH277565   1.700   0.374  14.187 -0.1809 -0.5884  0.0008
18717TIP3    H177566   1.789   0.394  14.159 -1.0072  2.1549 -0.8426
18717TIP3    H277567   1.660   0.460  14.202 -2.4823 -1.7941  1.0106
18718TIP3   OH277568   0.401   3.135   4.555  0.4704 -0.0439 -0.3162
18718TIP3    H177569   0.413   3.045   4.586  0.4652  0.3432  0.8310
18718TIP3    H277570   0.319   3.133   4.506  1.3754 -1.0580 -1.8271
18719TIP3   OH277571   3.779   5.347  15.660 -0.2843  0.5789 -0.6190
18719TIP3    H177572   3.843   5.393  15.713 -0.5828 -0.0593  0.2925
18719TIP3    H277573   3.745   5.278  15.716  0.8862 -1.4232 -2.2937
18720TIP3   OH277574   5.058   1.664  13.502  0.1612  0.3078  0.2949
18720TIP3    H177575   5.135   1.611  13.523  2.5098  3.9854  1.4982
18720TIP3    H277576   5.002   1.656  13.579 -0.6155 -2.1894 -0.4840
18721TIP3   OH277577   5.393   5.224  15.657 -0.1598  0.0418 -0.2924
18721TIP3    H177578   5.315   5.226  15.602  0.2023  0.6702 -0.7914
18721TIP3    H277579   5.388   5.141  15.704 -3.3864  1.9083  2.9319
18722TIP3   OH277580   1.412   6.258   3.499 -0.5561  0.2094 -0.4684
18722TIP3    H177581   1.360   6.249   3.578 -0.5090  1.7127 -0.2546
18722TIP3    H277582   1.366   6.205   3.433 -2.2097  1.3076 -0.2140
18723TIP3   OH277583   3.486   5.722   0.216  0.1400 -0.1346  0.4880
18723TIP3    H177584   3.496   5.651   0.279  0.0868 -0.6580 -0.0771
18723TIP3    H277585   3.419   5.779   0.253  0.8314  0.1047  1.3782
18724TIP3   OH277586   1.021   1.111  11.808 -0.2832  0.2488 -0.0977
18724TIP3    H177587   0.989   1.094  11.720  0.4966 -2.5746  0.1383
18724TIP3    H277588   1.097   1.054  11.818  0.2019  1.2152  2.0921
18725TIP3   OH277589   6.073   3.116   4.726  0.3826  0.2220 -0.2051
18725TIP3    H177590   6.036   3.143   4.641  1.3953  3.6404  0.3593
18725TIP3    H277591   6.013   3.153   4.791  0.0037 -1.7819  0.6198
18726TIP3   OH277592   0.104   4.830   1.131  0.3892  0.0640  0.2753
18726TIP3    H177593   0.042   4.872   1.191  0.0794  1.3665 -0.9095
18726TIP3    H277594   0.054   4.758   1.092 -0.2953  0.8916 -0.4099
18727TIP3   OH277595   3.592   1.312  13.727 -0.0518 -0.0709 -0.1584
18727TIP3    H177596   3.548   1.360  13.797 -1.4477  0.0952 -1.1377
18727TIP3    H277597   3.675   1.283  13.766 -0.2942  1.0238  1.1831
18728TIP3   OH277598   2.867   2.710   0.266  0.0921 -0.4900 -0.2548
18728TIP3    H177599   2.953   2.753   0.267 -0.5124  0.7699 -0.9650
18728TIP3    H277600   2.864   2.661   0.348  0.8784  0.6935  0.5090
18729TIP3   OH277601   5.709   6.475   4.526  0.0916  0.0448 -0.1669
18729TIP3    H177602   5.708   6.484   4.621 -0.4150  0.2934 -0.1981
18729TIP3    H277603   5.664   6.392   4.509 -0.9369  0.6236 -0.2655
18730TIP3   OH277604   0.010   6.072   2.749  0.3570 -0.8921  0.6693
18730TIP3    H177605   0.088   6.125   2.737 -1.5738  2.4113  2.2307
18730TIP3    H277606   0.031   6.014   2.822  0.6292  1.4339  2.4796
18731TIP3   OH277607   2.435   0.629  15.483 -0.6162  0.0791 -0.6098
18731TIP3    H177608   2.419   0.577  15.561 -0.4982  1.3130  0.2608
18731TIP3    H277609   2.351   0.672  15.465 -0.2732  0.8594 -0.3560
18732TIP3   OH277610   4.581   1.538   4.581 -0.0816  0.0257  0.4362
18732TIP3    H177611   4.601   1.498   4.497  1.7425 -0.8407  1.2506
18732TIP3    H277612   4.599   1.631   4.568  0.9128 -0.2119  0.0687
18733TIP3   OH277613   3.181   4.793   2.427  0.1963 -0.2938 -0.1581
18733TIP3    H177614   3.152   4.853   2.359  0.1357 -1.6620 -1.3539
18733TIP3    H277615   3.235   4.729   2.381  2.0665  0.0715  1.4469
18734TIP3   OH277616   0.433   5.047  14.611 -0.1776 -0.0708 -0.3298
18734TIP3    H177617   0.339   5.046  14.623 -0.1631  2.1222  0.2253
18734TIP3    H277618   0.450   5.125  14.558  1.2494 -0.9384 -1.2188
18735TIP3   OH277619   3.811   6.478  14.815 -0.2002  0.0565  0.0978
18735TIP3    H177620   3.898   6.457  14.848 -1.0159  0.3571  2.5328
18735TIP3    H277621   3.809   6.574  14.812  0.6353  0.0459 -3.0883
18736TIP3   OH277622   5.981   4.977   0.934  0.3600 -0.3395  0.5274
18736TIP3    H177623   5.926   4.973   1.012 -0.5360 -0.0648 -0.0874
18736TIP3    H277624   5.969   5.066   0.900 -0.7068 -1.0301 -0.9626
18737TIP3   OH277625   1.778   6.638  13.435 -0.2942 -0.2888 -0.2263
18737TIP3    H177626   1.819   6.577  13.496  0.9556  0.1177 -0.6544
18737TIP3    H277627   1.686   6.611  13.432  0.1194 -1.7245  0.0720
18738TIP3   OH277628   3.798   6.652   2.395  0.3844 -0.7049 -0.8908
18738TIP3    H177629   3.842   6.607   2.323  1.6531 -1.4856  0.3467
18738TIP3    H277630   3.779   6.584   2.459 -2.3753 -0.3294 -1.2321
18739TIP3   OH277631   1.190   4.452   3.313  0.4160  0.0694 -0.6727
18739TIP3    H177632   1.154   4.412   3.234 -0.9089 -0.5411  0.2279
18739TIP3    H277633   1.278   4.414   3.321 -0.4777 -2.0228 -0.3240
18740TIP3   OH277634   6.538   2.841   5.181  0.0828 -0.1306 -0.1124
18740TIP3    H177635   6.616   2.885   5.148  0.2699 -0.7406 -0.4818
18740TIP3    H277636   6.510   2.895   5.255 -0.7542  1.6763 -1.6806
18741TIP3   OH277637   3.212   0.025  17.188  0.0316 -0.0075  0.9151
18741TIP3    H177638   3.269  -0.048  17.213  0.0199 -1.3351 -2.5877
18741TIP3    H277639   3.127  -0.017  17.172 -0.5113  1.1062  0.8626
18742TIP3   OH277640   0.681   0.670   4.870  0.0318 -0.5216 -0.1137
18742TIP3    H177641   0.741   0.616   4.819 -0.9991 -1.6466 -0.1465
18742TIP3    H277642   0.651   0.738   4.809  0.9781 -0.1758 -0.1987
18743TIP3   OH277643   5.345   4.062   5.124  0.4006  0.5444 -0.3910
18743TIP3    H177644   5.334   4.157   5.117  0.9117  0.6091 -0.3913
18743TIP3    H277645   5.433   4.046   5.089 -0.2359 -0.1027 -1.7449
18744TIP3   OH277646   2.905   4.875   4.443  0.7587  0.3295 -0.2479
18744TIP3    H177647   2.830   4.934   4.431 -0.3407 -1.1163 -0.5701
18744TIP3    H277648   2.934   4.892   4.533 -0.9443 -0.2228  0.4267
18745TIP3   OH277649   4.713   4.355   1.757 -0.1247  0.1109 -0.1269
18745TIP3    H177650   4.788   4.412   1.777  0.0355  0.4827 -1.6817
18745TIP3    H277651   4.729   4.326   1.667 -0.3497 -2.1867  0.5362
18746TIP3   OH277652   4.600   4.252  11.999 -0.4237  0.4761  0.7571
18746TIP3    H177653   4.554   4.253  11.916  1.6273  0.5592 -0.4027
18746TIP3    H277654   4.536   4.286  12.062 -1.0209  3.4629 -1.3171
18747TIP3   OH277655   5.903   3.426   6.216 -0.1664 -0.1667 -0.0576
18747TIP3    H177656   5.813   3.415   6.246  0.3808 -0.5527  1.4826
18747TIP3    H277657   5.921   3.519   6.231 -0.0090 -0.2851  0.4982
18748TIP3   OH277658   6.244   2.875   3.134  0.1119 -0.2559 -0.1989
18748TIP3    H177659   6.276   2.882   3.224 -1.2701  0.3138  0.2607
18748TIP3    H277660   6.225   2.965   3.109 -2.0145 -0.6447 -0.1132
18749TIP3   OH277661   5.306   5.867  16.591 -0.2667  0.3462  0.0741
18749TIP3    H177662   5.257   5.830  16.664  0.0184  1.5527  0.8870
18749TIP3    H277663   5.396   5.835  16.604 -0.6193 -1.0878 -0.8869
18750TIP3   OH277664   4.331   0.076   2.614 -0.5813  0.0866  0.1870
18750TIP3    H177665   4.347   0.080   2.708 -0.9168  1.3246  0.2061
18750TIP3    H277666   4.269   0.004   2.603 -0.5624 -0.0455  0.9131
18751TIP3   OH277667   2.267   2.562  12.732  0.3354 -0.0050 -0.1240
18751TIP3    H177668   2.274   2.490  12.795 -1.9436 -0.3712 -0.2400
18751TIP3    H277669   2.221   2.524  12.657  0.5915  1.1433 -0.8705
18752TIP3   OH277670   1.967   5.153   3.115 -0.0931 -0.1399  0.0453
18752TIP3    H177671   2.011   5.211   3.177 -1.8704  2.1484 -0.7414
18752TIP3    H277672   1.948   5.209   3.040 -0.6580 -2.1144 -1.3315
18753TIP3   OH277673   1.424   4.097  16.852 -0.1764 -0.2887 -0.0689
18753TIP3    H177674   1.363   4.049  16.796  1.7710 -1.8326 -0.9241
18753TIP3    H277675   1.508   4.054  16.838  1.2740  2.2587  0.5302
18754TIP3   OH277676   3.838   1.489   5.506 -0.4201 -0.6716 -0.1977
18754TIP3    H177677   3.897   1.529   5.443 -0.6727 -0.3321 -0.2189
18754TIP3    H277678   3.853   1.395   5.497  0.5782 -0.5600  0.2512
18755TIP3   OH277679   5.621   0.483  16.868 -0.1138 -0.0481 -0.2982
18755TIP3    H177680   5.664   0.523  16.793 -1.7696 -1.7939 -2.2525
18755TIP3    H277681   5.576   0.555  16.912  0.8778  0.9923 -0.9823
18756TIP3   OH277682   0.159   6.523   2.737  0.6826 -0.3969  0.0609
18756TIP3    H177683   0.172   6.580   2.813 -0.5101 -1.1210  0.8285
18756TIP3    H277684   0.079   6.556   2.696 -0.0008 -1.4938  0.4960
18757TIP3   OH277685   2.443   5.739   0.752  0.0118  0.2583  0.1125
18757TIP3    H177686   2.398   5.760   0.834  1.2217  0.9945  0.6060
18757TIP3    H277687   2.482   5.822   0.724 -0.0557 -0.0791 -1.0035
18758TIP3   OH277688   2.119   1.022   0.787  0.3631 -0.1065  0.1061
18758TIP3    H177689   2.177   0.950   0.812  0.4636 -0.1689 -0.3062
18758TIP3    H277690   2.046   0.979   0.743 -0.5040 -0.1276  1.5033
18759TIP3   OH277691   0.956   1.926  12.391  0.1730  0.4655  0.2569
18759TIP3    H177692   0.913   1.840  12.384  0.0864  0.4520  0.8950
18759TIP3    H277693   1.012   1.918  12.468  2.8005 -0.1551 -1.6482
18760TIP3   OH277694   0.756   1.393   4.968  0.0113 -0.5044 -0.8570
18760TIP3    H177695   0.775   1.308   5.007 -4.2081 -0.5801  1.2610
18760TIP3    H277696   0.774   1.456   5.037 -1.0519 -0.0405 -1.0020
18761TIP3   OH277697   1.771   1.476   3.723  0.2455  0.3184 -0.8353
18761TIP3    H177698   1.729   1.544   3.776 -1.9061 -1.0598 -0.7060
18761TIP3    H277699   1.849   1.452   3.772  1.3068  2.9749 -1.1069
18762TIP3   OH277700   4.761   6.480  15.620 -0.2269 -0.5687  0.3829
18762TIP3    H177701   4.843   6.434  15.637 -0.4699 -0.3574  2.1572
18762TIP3    H277702   4.720   6.489  15.706 -0.3558  2.6562  0.0259
18763TIP3   OH277703   2.469   3.364   0.699 -0.6386  0.0294  0.2379
18763TIP3    H177704   2.527   3.288   0.708  1.9697  2.1995  2.7984
18763TIP3    H277705   2.521   3.428   0.650 -1.8810  1.0876  0.2682
18764TIP3   OH277706   0.292   2.118   3.264  0.3991  0.0580  0.2598
18764TIP3    H177707   0.331   2.179   3.202 -0.7852  0.9963  0.4349
18764TIP3    H277708   0.330   2.033   3.241  0.0070  0.3982 -1.6888
18765TIP3   OH277709   0.368   0.564  13.884 -0.1280  0.0840 -0.1891
18765TIP3    H177710   0.415   0.640  13.852 -0.9860  0.5915 -0.2591
18765TIP3    H277711   0.328   0.525  13.806  0.3212 -0.4478 -0.1569
18766TIP3   OH277712   6.675   5.433  14.791 -0.3258 -0.3116  0.2909
18766TIP3    H177713   6.650   5.524  14.802 -0.5050 -0.2383 -0.6983
18766TIP3    H277714   6.628   5.386  14.860 -0.8692  0.2346  0.2880
18767TIP3   OH277715   1.816   0.135   3.033  0.2846  0.5159  0.4321
18767TIP3    H177716   1.896   0.171   3.071  0.1725 -1.5367  2.7026
18767TIP3    H277717   1.844   0.054   2.990 -0.1812  1.0542 -0.9295
18768TIP3   OH277718   4.262   3.641  13.432 -0.1436  0.7795  0.1576
18768TIP3    H177719   4.245   3.592  13.512 -1.7607  1.5221  0.2886
18768TIP3    H277720   4.352   3.674  13.443 -0.6853  1.7159  2.1296
18769TIP3   OH277721   2.106   0.413   0.418  0.6185 -0.0176  0.5371
18769TIP3    H177722   2.132   0.323   0.437 -2.6543 -1.4468 -1.2565
18769TIP3    H277723   2.053   0.438   0.494 -1.4277 -0.9432 -0.5429
18770TIP3   OH277724   1.176   3.016   0.057  0.0976 -0.3854 -0.1800
18770TIP3    H177725   1.129   2.937   0.032  0.9738 -1.1266  0.4585
18770TIP3    H277726   1.117   3.061   0.117  1.1955 -2.6251  2.7324
18771TIP3   OH277727   1.390   3.144  13.783  0.7203 -0.5327 -0.3569
18771TIP3    H177728   1.470   3.100  13.752  0.9453  0.8481 -1.7500
18771TIP3    H277729   1.416   3.235  13.797 -0.4710 -0.1957 -0.2745
18772TIP3   OH277730   2.520   3.655   2.997 -0.1793 -0.3027  0.0168
18772TIP3    H177731   2.479   3.655   2.911 -0.5703 -1.2522  0.1985
18772TIP3    H277732   2.492   3.737   3.037 -0.6948 -0.2603 -0.4302
18773TIP3   OH277733   2.626   4.424  14.196  0.2742 -0.8807 -0.4929
18773TIP3    H177734   2.545   4.372  14.196  0.6453 -1.4747 -0.9634
18773TIP3    H277735   2.694   4.362  14.169  1.3381 -1.0700  2.4808
18774TIP3   OH277736   3.554   1.964   4.057  0.0022 -0.0105 -0.4109
18774TIP3    H177737   3.588   1.924   3.977 -2.0519 -0.2061 -1.2178
18774TIP3    H277738   3.595   1.915   4.128  0.5255 -0.9705 -1.3601
18775TIP3   OH277739   3.596   4.935  11.235 -0.0003 -0.5555  0.1298
18775TIP3    H177740   3.502   4.955  11.228 -0.1500 -2.1085 -4.7132
18775TIP3    H277741   3.640   5.018  11.214 -0.3448 -0.3803  0.0914
18776TIP3   OH277742   2.215   1.903  13.054 -0.0583  0.3966 -0.0792
18776TIP3    H177743   2.234   1.827  12.999 -0.5610  0.3396 -0.1796
18776TIP3    H277744   2.129   1.883  13.093 -1.1376  1.7949 -1.6602
18777TIP3   OH277745   0.335   5.544  16.575  0.1491  0.2449  0.0493
18777TIP3    H177746   0.393   5.617  16.597  0.4165 -0.3135  1.2843
18777TIP3    H277747   0.247   5.578  16.592  0.2099  0.6213 -0.3945
18778TIP3   OH277748   0.120   4.727   4.256 -0.1171 -0.1200  0.7842
18778TIP3    H177749   0.210   4.744   4.283  0.1875  1.0156 -0.9074
18778TIP3    H277750   0.077   4.812   4.260 -1.5511 -0.8959  3.0454
18779TIP3   OH277751   1.532   5.557   1.581  0.2721  0.1110 -0.2215
18779TIP3    H177752   1.537   5.590   1.670  1.6237 -1.1682  0.1815
18779TIP3    H277753   1.487   5.627   1.532 -0.3814  0.8560  1.4134
18780TIP3   OH277754   1.974   4.785  13.455  0.4963 -0.1526 -0.8950
18780TIP3    H177755   2.028   4.737  13.517  1.1285 -0.7265 -1.8932
18780TIP3    H277756   1.896   4.809  13.506  2.4025  2.2107  1.0888
18781TIP3   OH277757   4.882   6.550  16.115 -0.4472 -0.3275 -0.4682
18781TIP3    H177758   4.855   6.545  16.207  1.6135  0.2214  0.1710
18781TIP3    H277759   4.897   6.643  16.099 -0.6345 -0.4407 -1.3318
18782TIP3   OH277760   0.253   0.763  13.271  0.2808 -0.1875 -0.8782
18782TIP3    H177761   0.324   0.704  13.246  0.9751  0.6602 -0.9255
18782TIP3    H277762   0.265   0.775  13.365 -1.1437 -1.8005 -0.4522
18783TIP3   OH277763   0.368   5.479   0.518 -0.0123  0.2368 -0.0186
18783TIP3    H177764   0.412   5.561   0.540  0.8167 -0.7067  1.9809
18783TIP3    H277765   0.297   5.471   0.581 -0.8756  0.0182 -0.9996
18784TIP3   OH277766   1.758   5.196  11.224  0.1394  0.1294 -0.1519
18784TIP3    H177767   1.750   5.170  11.316  0.0308 -1.0430 -0.4858
18784TIP3    H277768   1.833   5.147  11.191 -1.1402 -1.1480 -1.2556
18785TIP3   OH277769   5.893   5.921  15.733 -0.0275  0.4866  0.5396
18785TIP3    H177770   5.950   5.997  15.718 -1.3448  0.9766 -2.4863
18785TIP3    H277771   5.949   5.845  15.719 -0.0895  0.9647 -2.7222
18786TIP3   OH277772   6.315   0.034  14.850 -0.5148  0.5904  0.1930
18786TIP3    H177773   6.376   0.100  14.885  0.9891 -0.6404 -0.0463
18786TIP3    H277774   6.242   0.034  14.912  2.0513 -1.4875  3.3930
18787TIP3   OH277775   3.744   0.196  12.409 -0.8431  0.0133  0.3608
18787TIP3    H177776   3.692   0.117  12.426 -0.9122  0.0254  0.2047
18787TIP3    H277777   3.827   0.180  12.455 -0.5546 -0.4855 -0.3235
18788TIP3   OH277778   3.672   3.980   0.592 -0.6209 -0.2314 -0.6432
18788TIP3    H177779   3.708   4.064   0.622 -0.5443 -0.6847  0.5745
18788TIP3    H277780   3.596   4.004   0.540 -0.9479  0.5864  0.1957
18789TIP3   OH277781   2.990   2.550   2.365  0.6296 -0.0830  0.0578
18789TIP3    H177782   2.992   2.459   2.335  0.5304 -0.3137  0.7401
18789TIP3    H277783   3.028   2.600   2.293  0.4630 -0.6391 -0.4169
18790TIP3   OH277784   0.152   0.886  15.446  0.0193 -0.0399  1.0279
18790TIP3    H177785   0.246   0.867  15.440 -0.3985 -2.5701  1.7774
18790TIP3    H277786   0.139   0.913  15.537  0.0305  0.4053  0.8987
18791TIP3   OH277787   3.188   2.648  10.930  0.1652 -0.1530 -0.2773
18791TIP3    H177788   3.105   2.669  10.888  1.2546 -1.0338 -2.9846
18791TIP3    H277789   3.204   2.556  10.907  1.9458  0.0529  0.0447
18792TIP3   OH277790   6.213   3.571   2.611 -0.5997 -0.0198  0.2490
18792TIP3    H177791   6.158   3.548   2.686 -1.5898  2.0001  0.1677
18792TIP3    H277792   6.293   3.606   2.649  0.2966 -2.0639  0.3548
18793TIP3   OH277793   1.112   1.641   4.921 -0.0136  0.8591  0.5333
18793TIP3    H177794   1.170   1.565   4.915 -1.4123 -0.1120 -1.1158
18793TIP3    H277795   1.097   1.652   5.014  2.3608  0.7951  0.9673
18794TIP3   OH277796   4.334   2.178  15.691 -0.3718 -0.1661  0.1960
18794TIP3    H177797   4.323   2.093  15.649  0.5871 -0.0536 -0.3122
18794TIP3    H277798   4.363   2.158  15.780 -0.4914 -0.3802  0.1853
18795TIP3   OH277799   0.998   3.401  14.172  0.0947  0.3967 -0.0840
18795TIP3    H177800   1.007   3.382  14.266  0.8576 -0.6737 -0.3677
18795TIP3    H277801   0.914   3.362  14.148  0.5791 -0.6088 -0.1598
18796TIP3   OH277802   0.288   5.942  17.023  0.2251 -0.2593 -0.1672
18796TIP3    H177803   0.317   5.862  16.979  0.1578 -1.1238  1.3194
18796TIP3    H277804   0.331   6.012  16.974 -0.8660 -1.0923 -2.3990
18797TIP3   OH277805   2.863   1.335   4.804 -0.1058 -0.8100  0.3880
18797TIP3    H177806   2.942   1.313   4.854  0.8187 -0.3977 -0.8330
18797TIP3    H277807   2.816   1.398   4.859  0.6678 -0.7059  0.9406
18798TIP3   OH277808   2.715   3.043   2.485  1.0772 -0.4736 -0.9626
18798TIP3    H177809   2.737   3.108   2.418 -0.1176 -0.2213 -1.1221
18798TIP3    H277810   2.628   3.011   2.460  0.3001  0.1347  0.8419
18799TIP3   OH277811   4.505   6.225   4.122 -0.2716 -0.1965  0.8326
18799TIP3    H177812   4.478   6.233   4.214  1.2920  0.7763  1.2130
18799TIP3    H277813   4.447   6.157   4.087  2.1456 -4.0039  3.7463
18800TIP3   OH277814   2.431   2.801   5.573  0.3100  0.4637  0.2154
18800TIP3    H177815   2.392   2.851   5.501  1.3502  1.8070  0.5707
18800TIP3    H277816   2.514   2.769   5.538 -0.0439 -0.4764  0.2132
18801TIP3   OH277817   6.554   4.185  13.714 -0.4432 -0.2276 -0.0562
18801TIP3    H177818   6.494   4.171  13.787 -1.6995  1.1840 -0.7920
18801TIP3    H277819   6.579   4.097  13.687 -0.7213 -0.7898  1.4490
18802TIP3   OH277820   0.670   6.745  16.867 -0.1199 -0.4183  0.6222
18802TIP3    H177821   0.598   6.801  16.897 -0.1470 -1.3879  2.3909
18802TIP3    H277822   0.648   6.658  16.899  0.8391 -1.1085 -0.5636
18803TIP3   OH277823   6.252   4.271  11.539 -0.0957  0.3964 -0.0488
18803TIP3    H177824   6.237   4.266  11.444 -1.3025 -0.8028  0.1853
18803TIP3    H277825   6.348   4.270  11.548  0.0386  1.0621 -1.2744
18804TIP3   OH277826   5.202   3.265   0.598 -0.1631 -0.0078  0.0409
18804TIP3    H177827   5.138   3.195   0.608 -0.5044  0.3077  0.0795
18804TIP3    H277828   5.203   3.284   0.504  1.1343 -1.1854 -0.1999
18805TIP3   OH277829   5.595   3.027  13.233  0.0471  0.5772 -0.1682
18805TIP3    H177830   5.631   3.072  13.310  0.6035 -0.7545  0.3734
18805TIP3    H277831   5.671   3.007  13.179  0.1745 -2.1221  0.9113
18806TIP3   OH277832   1.667   1.184  12.624 -0.1465  0.1381  0.2384
18806TIP3    H177833   1.721   1.106  12.616  0.1571  0.4632 -1.0042
18806TIP3    H277834   1.579   1.155  12.600 -0.5125 -0.3441  2.0622
18807TIP3   OH277835   4.247   1.052   0.662 -0.5704 -0.3651  0.3622
18807TIP3    H177836   4.292   1.073   0.744 -1.2410 -1.3014  0.9798
18807TIP3    H277837   4.271   0.962   0.644 -1.1776 -0.4644  0.0279
18808TIP3   OH277838   5.417   4.767   4.622 -0.1557  0.5295  0.6887
18808TIP3    H177839   5.463   4.831   4.567  0.9470  0.2711  1.2874
18808TIP3    H277840   5.346   4.735   4.567  1.1338  0.0180 -0.7310
18809TIP3   OH277841   2.711   2.461  14.385  0.0394  0.8294 -0.0665
18809TIP3    H177842   2.695   2.379  14.433  0.3993  0.6548 -0.2416
18809TIP3    H277843   2.623   2.495  14.366 -0.0936  1.4378  1.6292
18810TIP3   OH277844   6.163   1.129  11.820  0.3049  0.2981  0.3680
18810TIP3    H177845   6.214   1.075  11.880  0.3484 -0.5778 -0.4486
18810TIP3    H277846   6.228   1.171  11.764  0.2937  1.5230  1.2650
18811TIP3   OH277847   0.799   2.156  15.254 -0.4085  0.0098 -0.6254
18811TIP3    H177848   0.758   2.208  15.323  1.5634 -0.0013  0.6020
18811TIP3    H277849   0.825   2.074  15.298  2.4958  0.7356 -0.8810
18812TIP3   OH277850   0.173   4.925   2.692  0.3687 -0.1528  0.1055
18812TIP3    H177851   0.083   4.895   2.682  0.8396 -1.6397  0.1150
18812TIP3    H277852   0.194   4.910   2.784  1.1227 -1.3332 -0.2363
18813TIP3   OH277853   6.441   1.876  13.114  0.1460 -0.2426  0.2863
18813TIP3    H177854   6.354   1.912  13.133 -0.1955 -1.4566  1.0920
18813TIP3    H277855   6.501   1.949  13.130 -0.9594  1.7238 -3.8006
18814TIP3   OH277856   1.831   5.542  15.833 -0.1193  0.0630  0.1014
18814TIP3    H177857   1.888   5.618  15.816  0.0722 -0.0040  0.4409
18814TIP3    H277858   1.877   5.469  15.792 -0.3116  0.1333 -0.2387
18815TIP3   OH277859   4.531   1.627   1.329 -0.7340 -0.2600 -0.7051
18815TIP3    H177860   4.597   1.590   1.271 -1.2228 -0.2186 -1.2908
18815TIP3    H277861   4.534   1.721   1.313 -1.8494 -0.3791 -1.7214
18816TIP3   OH277862   5.723   4.599   3.445 -0.6251 -0.1145 -0.0217
18816TIP3    H177863   5.722   4.695   3.449  2.6598 -0.0869  2.9232
18816TIP3    H277864   5.722   4.578   3.352 -0.4659  2.7953 -0.7092
18817TIP3   OH277865   1.872   4.280  15.785 -0.0590 -0.2612  0.2527
18817TIP3    H177866   1.922   4.204  15.754 -0.4354 -0.3078 -0.2359
18817TIP3    H277867   1.931   4.324  15.847  0.2254 -0.8567  0.4090
18818TIP3   OH277868   1.453   4.919   4.218  0.0351  0.1492 -0.1711
18818TIP3    H177869   1.485   4.859   4.151 -0.2297 -0.4399  0.2246
18818TIP3    H277870   1.409   4.863   4.282  0.2437  0.7081  0.4709
18819TIP3   OH277871   5.956   3.445   3.500  0.2270 -0.0620 -0.2167
18819TIP3    H177872   5.912   3.376   3.551 -0.7198  0.9282  0.3351
18819TIP3    H277873   5.921   3.434   3.411  1.0329 -1.0795 -0.4229
18820TIP3   OH277874   0.813   3.833  11.322 -0.4635 -0.5129  0.5168
18820TIP3    H177875   0.791   3.741  11.333 -0.3098 -0.6784 -0.5867
18820TIP3    H277876   0.907   3.838  11.338 -0.4234 -0.5818  0.2879
18821TIP3   OH277877   2.677   0.024   6.174 -0.0170 -0.2387  0.5365
18821TIP3    H177878   2.597  -0.005   6.130  0.5157 -0.6215 -0.1781
18821TIP3    H277879   2.725  -0.056   6.194  1.2767  0.0925 -1.1135
18822TIP3   OH277880   5.888   4.676  12.758  0.5222 -0.5261 -0.5344
18822TIP3    H177881   5.899   4.596  12.809  0.9768 -0.1587 -0.0551
18822TIP3    H277882   5.969   4.683  12.706  0.9786  0.2169  0.2591
18823TIP3   OH277883   3.299   6.389  16.548  0.3028 -0.1677 -0.3582
18823TIP3    H177884   3.218   6.384  16.599  0.4413 -1.1914 -0.2375
18823TIP3    H277885   3.277   6.348  16.464  0.5446  0.0430 -0.5238
18824TIP3   OH277886   2.117   5.322   3.867 -1.0600  0.1188  0.0291
18824TIP3    H177887   2.021   5.319   3.860 -0.8586 -2.2601 -2.4768
18824TIP3    H277888   2.142   5.232   3.888  0.4993  1.2972  3.6668
18825TIP3   OH277889   6.025   3.578  16.197  0.6489  0.0234  0.1396
18825TIP3    H177890   5.933   3.605  16.198  0.9675  1.1171 -0.0806
18825TIP3    H277891   6.068   3.640  16.139  1.2225 -1.5574 -1.1806
18826TIP3   OH277892   1.592   5.045  11.827 -1.0465 -0.1230  0.3328
18826TIP3    H177893   1.681   5.023  11.854 -1.1593 -0.8222  0.1543
18826TIP3    H277894   1.591   5.029  11.732 -2.3151 -3.5028  0.8561
18827TIP3   OH277895   0.379   0.468   2.929 -0.4918  0.2991  0.6016
18827TIP3    H177896   0.462   0.429   2.901 -1.2915 -0.7912 -0.2691
18827TIP3    H277897   0.313   0.403   2.907 -1.4374  0.5556  2.6168
18828TIP3   OH277898   2.644   0.372  15.176 -0.0692 -0.4990  0.1063
18828TIP3    H177899   2.595   0.295  15.147  2.0325 -2.3638  1.2723
18828TIP3    H277900   2.605   0.394  15.261  0.7131 -1.6568  0.7873
18829TIP3   OH277901   5.891   2.738   2.842  0.2130  0.5494  0.0216
18829TIP3    H177902   5.927   2.693   2.766  1.5065  1.3385  0.1524
18829TIP3    H277903   5.962   2.736   2.907 -0.5749  0.6313  0.9065
18830TIP3   OH277904   6.276   1.633  15.575  0.0543 -0.1467 -0.0484
18830TIP3    H177905   6.256   1.573  15.647 -1.1432 -0.9297 -1.0127
18830TIP3    H277906   6.261   1.581  15.496 -1.9398  1.6921 -0.9169
18831TIP3   OH277907   2.944   0.655  11.894 -0.2579 -0.0810 -0.5904
18831TIP3    H177908   2.925   0.643  11.987  3.0134 -0.0237  0.1567
18831TIP3    H277909   3.040   0.655  11.889 -0.3537  1.1474 -3.8053
18832TIP3   OH277910   4.956   4.379   6.101 -0.1513 -0.0888 -0.5748
18832TIP3    H177911   4.994   4.383   6.013 -2.0428 -0.1932 -1.4105
18832TIP3    H277912   5.000   4.449   6.149 -0.9952  1.7076 -2.3499
18833TIP3   OH277913   3.827   4.033   3.309  0.5463 -0.1469  0.0573
18833TIP3    H177914   3.905   4.062   3.263 -1.1640  2.0659 -1.5814
18833TIP3    H277915   3.758   4.092   3.278 -1.6754 -1.7559  1.7883
18834TIP3   OH277916   5.375   2.352   0.034 -0.3863  0.4691  0.4712
18834TIP3    H177917   5.439   2.341  -0.037  0.5343  2.1010  1.0346
18834TIP3    H277918   5.296   2.384  -0.009 -1.0862 -2.1559 -0.3236
18835TIP3   OH277919   5.463   1.689   0.057  0.1966  0.0338  0.0399
18835TIP3    H177920   5.417   1.609   0.034 -1.6782  0.8330  0.9049
18835TIP3    H277921   5.461   1.742  -0.023  0.3433 -0.2690 -0.1655
18836TIP3   OH277922   3.016   2.743  13.192 -0.1704  0.7588  0.5565
18836TIP3    H177923   3.080   2.707  13.130  1.0804  1.0151  1.6633
18836TIP3    H277924   2.965   2.668  13.221 -0.6283  0.6100 -0.6293
18837TIP3   OH277925   0.996   3.588  12.856  0.1294  0.1110  0.0146
18837TIP3    H177926   1.060   3.635  12.909 -0.6444  0.0264  1.0426
18837TIP3    H277927   0.959   3.523  12.916 -1.4463  0.6542 -0.3349
18838TIP3   OH277928   0.213   5.893  11.437  0.3916  0.2615  0.8651
18838TIP3    H177929   0.144   5.944  11.394 -0.9650 -0.0535  2.6161
18838TIP3    H277930   0.171   5.810  11.458  1.6809 -0.3938  0.8269
18839TIP3   OH277931   5.398   4.364   1.443  0.0791 -0.7837 -0.5126
18839TIP3    H177932   5.398   4.434   1.508  1.6467 -0.4430 -0.8739
18839TIP3    H277933   5.489   4.355   1.416 -0.4532 -1.3424 -2.2214
18840TIP3   OH277934   4.007   0.131   3.753  0.0896 -0.0554 -0.2737
18840TIP3    H177935   4.023   0.036   3.755  0.0303 -0.0546  0.5841
18840TIP3    H277936   3.995   0.151   3.661 -0.5180 -0.9948 -0.4101
18841TIP3   OH277937   2.310   2.319   2.768  0.3651 -0.3291 -0.4807
18841TIP3    H177938   2.215   2.306   2.770  0.4513 -0.8408  1.0564
18841TIP3    H277939   2.336   2.320   2.860  1.5454  2.2824 -0.8106
18842TIP3   OH277940   5.560   1.390   4.969  0.2235  0.0035 -0.0444
18842TIP3    H177941   5.594   1.441   4.896 -0.7656 -0.3302 -0.7556
18842TIP3    H277942   5.569   1.299   4.941  1.2756 -0.1985  0.9026
18843TIP3   OH277943   3.058   4.515   2.300  0.1249  0.5481 -0.1943
18843TIP3    H177944   2.995   4.587   2.308 -0.2437  0.2449 -0.3011
18843TIP3    H277945   3.062   4.478   2.388 -2.7499 -1.8176 -0.9770
18844TIP3   OH277946   3.774   3.134  11.566  0.4120  0.4007  0.1868
18844TIP3    H177947   3.807   3.178  11.488  0.2535  0.5433  0.1991
18844TIP3    H277948   3.679   3.128  11.552  0.8641 -3.5513 -1.6408
18845TIP3   OH277949   5.273   1.938  11.873 -1.0100 -0.1778 -0.3587
18845TIP3    H177950   5.273   2.009  11.938  1.0361 -0.3740 -0.1174
18845TIP3    H277951   5.192   1.952  11.823 -0.8821  2.0574 -0.0187
18846TIP3   OH277952   5.651   4.266  12.856 -0.4697 -0.9618  0.7076
18846TIP3    H177953   5.680   4.322  12.783  2.5371  0.4368  2.8780
18846TIP3    H277954   5.615   4.188  12.813 -1.3632  1.0038 -2.3247
18847TIP3   OH277955   0.117   1.705   5.533  0.0012 -0.0852  0.3356
18847TIP3    H177956   0.110   1.613   5.508 -0.5301 -0.2057  0.9099
18847TIP3    H277957   0.180   1.706   5.605  0.3063  0.0509  0.0657
18848TIP3   OH277958   2.690   3.509  11.894 -0.2472 -0.7716 -0.4802
18848TIP3    H177959   2.607   3.506  11.941  0.3681 -1.1646  0.6028
18848TIP3    H277960   2.736   3.585  11.932  0.0935 -0.8579 -0.7175
18849TIP3   OH277961   0.642   5.063   1.967  0.3718  0.4626  0.2273
18849TIP3    H177962   0.614   5.026   1.883  0.8549  0.2088  0.1767
18849TIP3    H277963   0.593   5.012   2.032  1.8273 -1.0067  0.2082
18850TIP3   OH277964   2.588   5.993  14.859  0.6995  0.2424 -0.7184
18850TIP3    H177965   2.602   6.087  14.867  0.9277  0.1919 -0.5148
18850TIP3    H277966   2.583   5.962  14.950 -0.4710  0.2195 -0.7749
18851TIP3   OH277967   3.782   3.379  13.104  0.1411 -0.0317  0.7461
18851TIP3    H177968   3.827   3.398  13.021 -0.7659  2.2054  0.7545
18851TIP3    H277969   3.834   3.307  13.142  1.5625  0.0424 -0.9523
18852TIP3   OH277970   3.865   0.758  14.911  0.2154  0.4367  0.1299
18852TIP3    H177971   3.778   0.786  14.881 -0.1373  1.1558  1.7519
18852TIP3    H277972   3.915   0.840  14.916  0.3586  0.2917  1.1551
18853TIP3   OH277973   4.887   4.458   3.624  0.1631  0.3541 -0.0649
18853TIP3    H177974   4.819   4.446   3.691  1.4615 -0.9420  1.0413
18853TIP3    H277975   4.954   4.394   3.646  0.6986  0.0317 -2.5251
18854TIP3   OH277976   0.172   2.856  10.471 -0.3623  0.2949  0.3298
18854TIP3    H177977   0.198   2.857  10.379  0.7006  2.6352  0.6163
18854TIP3    H277978   0.245   2.812  10.515  0.1063  1.0428  0.3079
18855TIP3   OH277979   3.664   5.490   5.511 -0.2988  0.0230  0.2862
18855TIP3    H177980   3.645   5.396   5.513 -1.9798  0.3669  1.0829
18855TIP3    H277981   3.629   5.523   5.594  2.5963  0.9290  1.2020
18856TIP3   OH277982   5.510   5.165  12.119 -0.2802  0.3631  0.1749
18856TIP3    H177983   5.582   5.173  12.182 -0.5026 -0.1707  0.4991
18856TIP3    H277984   5.462   5.247  12.127 -0.9471 -0.1313  1.4973
18857TIP3   OH277985   0.177   5.258   3.220 -0.5921  0.1785 -0.0660
18857TIP3    H177986   0.229   5.196   3.170  0.2761  1.0545 -0.2562
18857TIP3    H277987   0.192   5.235   3.312  0.1206  0.4228 -0.1215
18858TIP3   OH277988   1.108   0.512   5.644 -0.5740  0.2058  0.7313
18858TIP3    H177989   1.078   0.421   5.645 -1.4217  0.4696  0.3561
18858TIP3    H277990   1.029   0.563   5.628 -0.3278  1.1199  2.3730
18859TIP3   OH277991   3.613   4.742  14.679  0.6685  0.9099 -0.0457
18859TIP3    H177992   3.687   4.751  14.620  1.2666 -2.8900 -0.0515
18859TIP3    H277993   3.653   4.727  14.765 -0.1732  3.4048  0.8187
18860TIP3   OH277994   0.853   3.005   1.220  0.3384 -0.0576 -0.0145
18860TIP3    H177995   0.835   2.986   1.128 -0.8311 -0.2159  0.2389
18860TIP3    H277996   0.868   2.919   1.259  4.2757  0.2272 -0.7314
18861TIP3   OH277997   3.383   1.252   3.984 -0.0653  0.1546 -0.3506
18861TIP3    H177998   3.341   1.233   4.068  0.2674  2.6356  0.4178
18861TIP3    H277999   3.314   1.237   3.919 -1.0512  0.6238  0.5790
18862TIP3   OH278000   5.364   5.885  17.220  0.3273 -0.1039  0.1641
18862TIP3    H178001   5.321   5.956  17.173 -1.7064 -1.3456  0.0503
18862TIP3    H278002   5.422   5.844  17.156 -0.5828 -0.2631 -0.5610
18863TIP3   OH278003   3.138   1.916   3.426 -0.4015 -0.0176 -0.2568
18863TIP3    H178004   3.195   1.970   3.372  2.0832 -1.9930  0.2916
18863TIP3    H278005   3.073   1.881   3.365 -0.4665  1.5021 -1.0708
18864TIP3   OH278006   0.837   0.098   1.344  0.1181 -0.0244  0.2133
18864TIP3    H178007   0.917   0.131   1.305 -0.1845  0.4130 -0.0442
18864TIP3    H278008   0.863   0.019   1.390  0.1358 -1.6703 -2.5333
18865TIP3   OH278009   1.862   6.218   0.625 -0.3029 -0.2782  0.2393
18865TIP3    H178010   1.799   6.169   0.572 -0.3211 -0.1471  0.1390
18865TIP3    H278011   1.808   6.283   0.671 -0.4335 -1.0598  1.2169
18866TIP3   OH278012   3.741   1.342   6.115 -0.1970 -0.0439 -0.1677
18866TIP3    H178013   3.805   1.289   6.163 -1.0101 -0.4240  0.5155
18866TIP3    H278014   3.747   1.428   6.156 -1.2618 -0.5049  0.9919
18867TIP3   OH278015   1.016   3.094   2.562  0.3926  0.3492  0.4719
18867TIP3    H178016   0.943   3.053   2.515  0.3272  1.3757 -0.3650
18867TIP3    H278017   1.094   3.070   2.513  0.8893 -2.4037  2.5036
18868TIP3   OH278018   1.633   4.700  13.571 -0.0942  0.2817  0.3256
18868TIP3    H178019   1.617   4.767  13.505  1.3537  0.4569  0.1234
18868TIP3    H278020   1.574   4.628  13.548  0.4916  0.2923 -1.2412
18869TIP3   OH278021   4.756   4.970   5.590  0.1850 -0.0449 -0.0213
18869TIP3    H178022   4.727   4.912   5.661  0.2787 -1.8555 -1.4234
18869TIP3    H278023   4.679   4.982   5.535  0.7243 -0.6299 -0.9214
18870TIP3   OH278024   5.890   3.156   4.049 -0.5064  0.1018  0.1763
18870TIP3    H178025   5.957   3.148   4.117  0.1570  2.6227 -0.1456
18870TIP3    H278026   5.865   3.065   4.029  2.3911 -0.8418  0.6728
18871TIP3   OH278027   6.411   4.689  15.408 -0.1536  0.5311  0.7053
18871TIP3    H178028   6.496   4.722  15.436  0.1510  1.7933 -1.5585
18871TIP3    H278029   6.357   4.767  15.397 -0.6531 -0.0108 -0.8492
18872TIP3   OH278030   3.623   3.151  15.246 -0.0744 -0.2718 -0.5825
18872TIP3    H178031   3.577   3.169  15.164 -1.4257  3.8248  0.9382
18872TIP3    H278032   3.631   3.237  15.287  1.1162 -2.1657  3.3065
18873TIP3   OH278033   2.706   2.781   5.673 -0.3841 -0.0689 -0.5730
18873TIP3    H178034   2.745   2.697   5.699 -2.0083 -0.6483 -0.0014
18873TIP3    H278035   2.612   2.765   5.671 -0.9404  2.4610  2.2071
18874TIP3   OH278036   5.797   1.318  17.208 -0.1492 -0.5668 -0.0732
18874TIP3    H178037   5.781   1.226  17.228 -1.9315 -0.1179  0.6765
18874TIP3    H278038   5.754   1.333  17.124 -0.1623 -0.3342 -0.0240
18875TIP3   OH278039   1.882   3.993  15.505  0.1743 -0.4417  0.7492
18875TIP3    H178040   1.856   4.021  15.417  1.6654  2.2286  1.1043
18875TIP3    H278041   1.806   4.012  15.560  0.2894  0.6942  0.5344
18876TIP3   OH278042   4.947   4.720   3.536 -0.8185  0.2991 -0.3888
18876TIP3    H178043   4.933   4.636   3.578 -0.1254  0.4347  0.1147
18876TIP3    H278044   4.885   4.779   3.578  0.1776  0.5399  0.7672
18877TIP3   OH278045   5.724   6.587   2.734 -0.3032  0.0122 -0.1959
18877TIP3    H178046   5.748   6.496   2.717 -1.6502 -0.1417 -1.3604
18877TIP3    H278047   5.639   6.582   2.778  0.5518  0.6473  1.5781
18878TIP3   OH278048   2.356   4.769  13.667 -0.3816 -0.9132  0.2771
18878TIP3    H178049   2.357   4.721  13.584 -0.7612  0.1601 -0.3596
18878TIP3    H278050   2.265   4.765  13.697 -0.6184  0.1920 -0.2559
18879TIP3   OH278051   1.794   6.472  11.861  0.4391 -0.8244 -0.3734
18879TIP3    H178052   1.741   6.530  11.807  0.7820  0.7568  0.9445
18879TIP3    H278053   1.730   6.417  11.906  0.0142 -0.3015 -0.3310
18880TIP3   OH278054   4.883   2.130   3.903  0.0531 -0.4415  0.4811
18880TIP3    H178055   4.923   2.060   3.954  0.4054  0.1811  1.0738
18880TIP3    H278056   4.924   2.210   3.936 -0.5146  0.0626 -0.0191
18881TIP3   OH278057   3.663   3.946  10.588  0.7267  0.0243  0.6083
18881TIP3    H178058   3.609   3.973  10.662 -0.7243  2.1784 -1.1500
18881TIP3    H278059   3.632   3.857  10.567  0.3852 -0.1668  1.8806
18882TIP3   OH278060   5.895   4.677  16.259 -0.2080 -0.3498 -0.2533
18882TIP3    H178061   5.858   4.590  16.269  0.0300 -0.5126 -0.7651
18882TIP3    H278062   5.938   4.695  16.342  1.4196 -1.5246 -0.8133
18883TIP3   OH278063   2.330   4.275  11.018  0.1211 -0.3892 -0.3349
18883TIP3    H178064   2.383   4.196  11.005  0.9570  0.1999 -0.5567
18883TIP3    H278065   2.256   4.264  10.958  0.7416 -0.5587 -1.0778
18884TIP3   OH278066   4.648   4.304   4.038  0.4008  0.3053  0.3224
18884TIP3    H178067   4.647   4.215   4.074  0.8385  0.8746  1.7377
18884TIP3    H278068   4.643   4.362   4.114 -0.0391  1.4997 -0.6029
18885TIP3   OH278069   5.010   5.100   0.988  0.5416  0.9506 -0.4137
18885TIP3    H178070   4.947   5.168   0.964 -0.0516  0.4715 -0.1936
18885TIP3    H278071   5.024   5.111   1.082 -1.2280 -0.6428  0.0528
18886TIP3   OH278072   5.368   5.487  11.043  0.7462  0.1830 -0.2368
18886TIP3    H178073   5.344   5.555  10.980  0.8035 -1.0000 -1.5760
18886TIP3    H278074   5.326   5.408  11.009 -0.0386 -0.2721  1.7754
18887TIP3   OH278075   0.250   3.702  16.085 -0.1747 -0.2434 -0.4912
18887TIP3    H178076   0.345   3.704  16.071 -0.3760 -2.5626 -2.5733
18887TIP3    H278077   0.214   3.689  15.997 -2.4253  0.3656  0.3186
18888TIP3   OH278078   3.745   3.994   5.475 -0.5035 -0.4814 -0.8604
18888TIP3    H178079   3.770   3.931   5.543 -0.4642 -0.5724 -0.9588
18888TIP3    H278080   3.758   3.946   5.393  0.2325 -0.1085 -0.9707
18889TIP3   OH278081   2.832   0.766   2.833 -1.0950  0.0213  0.1097
18889TIP3    H178082   2.854   0.854   2.802 -0.9047 -0.3523 -0.8287
18889TIP3    H278083   2.762   0.737   2.774  1.2243 -1.8240 -1.7959
18890TIP3   OH278084   6.115   5.845   0.195 -0.5749  0.4828 -0.1158
18890TIP3    H178085   6.188   5.811   0.246 -0.5891  0.6149 -0.0087
18890TIP3    H278086   6.047   5.779   0.204 -1.6856  1.9242  2.5390
18891TIP3   OH278087   3.724   5.484  15.961  0.5026 -0.6174 -0.2441
18891TIP3    H178088   3.646   5.514  15.914 -0.7887 -0.9770  1.6124
18891TIP3    H278089   3.751   5.560  16.013  0.8491 -0.7780 -0.1884
18892TIP3   OH278090   5.377   6.049   4.797 -0.0252  0.2947 -0.1574
18892TIP3    H178091   5.383   6.010   4.711 -1.5489 -1.2009  0.3941
18892TIP3    H278092   5.405   5.980   4.858  1.2762  1.4057  0.5386
18893TIP3   OH278093   6.346   6.313   3.240  0.1814  0.7967 -0.1728
18893TIP3    H178094   6.433   6.309   3.200 -0.4305 -0.1731 -1.4284
18893TIP3    H278095   6.338   6.231   3.289  0.2205  1.1756  0.4770
18894TIP3   OH278096   0.691   5.594   6.217  0.2342 -0.1910 -0.1602
18894TIP3    H178097   0.643   5.636   6.146  1.3112 -1.3393 -1.5937
18894TIP3    H278098   0.626   5.538   6.260 -0.4596  0.6259 -0.1469
18895TIP3   OH278099   2.516   5.133  15.325 -0.9289  0.0163 -0.5256
18895TIP3    H178100   2.442   5.073  15.329 -0.1435 -0.8708  0.9109
18895TIP3    H278101   2.593   5.076  15.325 -0.1111  1.0612  2.6694
18896TIP3   OH278102   2.705   4.479  13.287  0.3467  0.2332 -0.0947
18896TIP3    H178103   2.754   4.545  13.239 -0.5979  1.1050  0.1282
18896TIP3    H278104   2.655   4.432  13.220  2.1535 -1.2477 -0.4283
18897TIP3   OH278105   0.076   5.969   5.308  0.1907 -0.3804 -0.0069
18897TIP3    H178106   0.109   5.960   5.397  0.0282 -0.7042  0.0231
18897TIP3    H278107   0.144   5.931   5.253 -0.6060 -2.0890  0.1383
18898TIP3   OH278108   3.279   2.909   3.672 -0.3970 -0.5469 -0.0409
18898TIP3    H178109   3.253   2.823   3.705 -0.6334 -0.2230  0.6096
18898TIP3    H278110   3.196   2.952   3.649 -0.3596 -0.0039  0.8367
18899TIP3   OH278111   2.037   4.113  15.067  0.1132  0.5432  0.3793
18899TIP3    H178112   1.962   4.106  15.008 -0.4463  0.9325  1.0243
18899TIP3    H278113   2.057   4.022  15.091 -1.1155  0.5022  1.3632
18900TIP3   OH278114   1.646   4.746   5.871 -0.2568 -0.2684 -0.3099
18900TIP3    H178115   1.654   4.757   5.966 -0.6062 -1.1567 -0.1750
18900TIP3    H278116   1.562   4.786   5.849  0.2330  0.7465 -0.3849
18901TIP3   OH278117   2.134   4.534  15.505  0.1340  0.3169 -0.2566
18901TIP3    H178118   2.200   4.557  15.440  0.5346  0.2688  0.1353
18901TIP3    H278119   2.074   4.475  15.459  0.3157  0.4279 -0.6335
18902TIP3   OH278120   5.621   0.938   2.466 -0.5449  0.1016 -0.4827
18902TIP3    H178121   5.687   1.003   2.488 -1.6102  1.7193 -1.9019
18902TIP3    H278122   5.655   0.895   2.388 -1.2005  0.9911 -1.2612
18903TIP3   OH278123   4.024   0.396  13.868 -0.0381 -0.4266  0.0764
18903TIP3    H178124   3.981   0.481  13.859  0.3998 -0.3141 -0.9370
18903TIP3    H278125   4.116   0.417  13.880  0.1050 -0.7658 -0.4338
18904TIP3   OH278126   2.951   0.661  14.152  0.6635 -0.6084 -0.4146
18904TIP3    H178127   2.882   0.692  14.094  0.5717  1.9516  1.0102
18904TIP3    H278128   2.906   0.603  14.214 -0.2035  0.9505  0.4305
18905TIP3   OH278129   4.079   4.840   1.137 -0.2696 -0.5285 -0.2970
18905TIP3    H178130   4.061   4.890   1.058 -1.3296 -0.6097 -0.1174
18905TIP3    H278131   3.994   4.805   1.163  0.0608 -0.4569  0.9050
18906TIP3   OH278132   2.198   1.432   5.311 -0.3174 -0.3649  0.0601
18906TIP3    H178133   2.238   1.421   5.397  0.0440 -1.7227 -0.2717
18906TIP3    H278134   2.264   1.401   5.249 -1.4283 -1.5147 -0.5595
18907TIP3   OH278135   4.983   5.425   0.197  0.6901  0.8632  0.0810
18907TIP3    H178136   5.059   5.441   0.253  1.1656  0.4018 -0.4197
18907TIP3    H278137   5.020   5.414   0.110  0.1035  0.0160 -0.0673
18908TIP3   OH278138   5.200   3.808   5.239 -0.0998 -0.0832  0.7238
18908TIP3    H178139   5.115   3.816   5.283 -0.4338  0.8723 -0.0720
18908TIP3    H278140   5.222   3.898   5.213  0.2390 -0.5786 -0.7635
18909TIP3   OH278141   5.652   0.009   0.405 -0.3009  0.3990 -0.1714
18909TIP3    H178142   5.678  -0.010   0.315 -0.0942  1.0886 -0.2567
18909TIP3    H278143   5.707  -0.048   0.459  0.5445  0.9884 -0.4098
18910TIP3   OH278144   5.208   6.487   4.986  0.0150  0.3759  0.2602
18910TIP3    H178145   5.270   6.525   5.047 -0.4730  0.2866  0.8192
18910TIP3    H278146   5.167   6.415   5.034  0.2212 -0.2311 -0.4523
18911TIP3   OH278147   2.320   2.592  11.033 -0.3251  0.4013  0.1120
18911TIP3    H178148   2.366   2.574  11.115 -0.6857 -0.1897  0.1831
18911TIP3    H278149   2.356   2.676  11.004  1.4478 -0.4841 -0.3011
18912TIP3   OH278150   1.621   6.093  14.675 -0.2717  0.1490  0.0762
18912TIP3    H178151   1.664   6.034  14.614  1.1927  1.2409  0.0182
18912TIP3    H278152   1.650   6.064  14.762  2.0836  1.9717 -0.0421
18913TIP3   OH278153   0.882   0.816  16.612  0.2657  0.9109  0.6950
18913TIP3    H178154   0.787   0.807  16.608  0.2765  1.8402 -2.6214
18913TIP3    H278155   0.896   0.910  16.627  0.6882  0.7228  1.5343
18914TIP3   OH278156   1.854   3.956   1.980 -0.1330 -0.3960 -0.8535
18914TIP3    H178157   1.810   3.913   2.053 -1.3559 -0.5379 -1.6693
18914TIP3    H278158   1.855   4.049   2.002 -0.6111 -0.4260 -0.7168
18915TIP3   OH278159   2.316   6.552  13.825 -0.2443  0.1022 -0.0090
18915TIP3    H178160   2.289   6.501  13.748 -0.5904  0.8365 -0.3893
18915TIP3    H278161   2.266   6.515  13.897 -0.6087 -0.0025 -0.3105
18916TIP3   OH278162   4.502   4.157   1.159 -0.4348 -0.2503 -0.2088
18916TIP3    H178163   4.520   4.064   1.173 -0.9603 -0.2475  0.5359
18916TIP3    H278164   4.413   4.169   1.191 -0.1424  0.6400  0.3087
18917TIP3   OH278165   0.353   4.035  13.056 -0.1905 -0.7636 -0.1695
18917TIP3    H178166   0.298   4.011  12.981 -1.1735 -0.0793  0.3056
18917TIP3    H278167   0.310   4.113  13.092  0.8667 -0.4741  0.4747
18918TIP3   OH278168   3.607   5.643   1.288  0.4654  0.1441  0.1158
18918TIP3    H178169   3.621   5.663   1.380  0.5640 -0.0039  0.1343
18918TIP3    H278170   3.536   5.701   1.261  0.4295  0.1804  0.2872
18919TIP3   OH278171   0.112   4.910  17.168 -0.1980 -0.3881  0.0909
18919TIP3    H178172   0.116   4.954  17.083  0.1392 -0.0152  0.2983
18919TIP3    H278173   0.124   4.817  17.147  1.6355 -0.1272 -0.1109
18920TIP3   OH278174   4.109   3.644   5.321 -0.2236  0.6032  0.7730
18920TIP3    H178175   4.096   3.644   5.416 -0.8246 -1.2654  0.7321
18920TIP3    H278176   4.182   3.583   5.306 -0.6556  0.2529  0.0023
18921TIP3   OH278177   3.073   3.352  15.942 -0.3324 -0.2947 -0.3604
18921TIP3    H178178   3.094   3.365  16.034  0.3199  1.2587 -0.6991
18921TIP3    H278179   3.076   3.258  15.929 -1.3937 -0.5974  1.4259
18922TIP3   OH278180   2.660   0.824  12.602  0.0218 -0.1010  1.0654
18922TIP3    H178181   2.705   0.908  12.592  0.6609 -0.5218  0.3172
18922TIP3    H278182   2.709   0.778  12.670 -1.0347  0.5842  2.3214
18923TIP3   OH278183   0.328   6.724  11.438  0.2185  0.0520  0.5624
18923TIP3    H178184   0.340   6.812  11.475 -0.2946  0.5290 -0.3990
18923TIP3    H278185   0.240   6.725  11.401 -0.0297 -1.0741  1.0949
18924TIP3   OH278186   2.557   6.145   1.696 -0.3616  0.3357  0.0148
18924TIP3    H178187   2.631   6.206   1.688 -0.0302 -0.2459 -1.6351
18924TIP3    H278188   2.589   6.076   1.754  0.6177 -0.2200 -1.1696
18925TIP3   OH278189   2.338   2.317   3.372 -0.0756  0.3021  0.8084
18925TIP3    H178190   2.380   2.371   3.305 -0.0635 -0.4489  0.1971
18925TIP3    H278191   2.410   2.286   3.427 -0.0999  1.0306  1.2554
18926TIP3   OH278192   6.234   0.271  11.599 -0.6642  0.2862  0.4621
18926TIP3    H178193   6.201   0.257  11.688 -3.0245  1.4348 -0.2192
18926TIP3    H278194   6.227   0.185  11.557  0.2368 -0.2053  1.2891
18927TIP3   OH278195   3.652   3.791   1.977  0.4561  0.3817 -0.1666
18927TIP3    H178196   3.639   3.864   1.917  0.0164  0.7328  0.3526
18927TIP3    H278197   3.589   3.806   2.048 -0.1590 -0.8793 -0.4092
18928TIP3   OH278198   4.020   6.404   4.548 -0.6681  0.0757  0.0950
18928TIP3    H178199   4.022   6.418   4.642 -1.6647 -0.6323  0.2173
18928TIP3    H278200   3.968   6.477   4.514 -1.1477 -0.2188  0.1921
18929TIP3   OH278201   5.082   2.267  15.773 -0.1767 -0.2358 -0.1567
18929TIP3    H178202   5.008   2.234  15.824  0.9206 -0.9821  1.0042
18929TIP3    H278203   5.049   2.345  15.729 -1.5012 -0.2827  0.7332
18930TIP3   OH278204   1.593   2.280  16.402 -0.1295  0.1269 -0.0908
18930TIP3    H178205   1.659   2.244  16.343  0.2787 -0.3345  0.6448
18930TIP3    H278206   1.637   2.289  16.486 -0.9523 -0.0434  0.3668
18931TIP3   OH278207   5.739   3.197   2.173 -0.0292  0.3555 -0.2838
18931TIP3    H178208   5.793   3.248   2.113  0.3472 -0.5791 -0.7676
18931TIP3    H278209   5.753   3.106   2.145  0.2670 -0.1070  1.3305
18932TIP3   OH278210   4.527   1.438  16.808  0.1555 -0.3891  0.1564
18932TIP3    H178211   4.439   1.459  16.840 -0.3603 -0.3584 -1.2556
18932TIP3    H278212   4.541   1.347  16.835 -0.0196 -0.1597  1.0182
18933TIP3   OH278213   1.741   5.750  17.140 -0.5192  0.5472 -0.3269
18933TIP3    H178214   1.721   5.832  17.184 -3.4661 -0.4218  0.2553
18933TIP3    H278215   1.731   5.769  17.047 -0.6816  0.9612 -0.2256
18934TIP3   OH278216   2.327   0.128   2.006  0.4342  0.9970 -0.5030
18934TIP3    H178217   2.234   0.108   1.995  0.3689  0.7102  0.5193
18934TIP3    H278218   2.330   0.224   2.014  0.1572  0.9626  0.0510
18935TIP3   OH278219   1.436   2.938   4.862 -0.8295 -0.1749 -0.0429
18935TIP3    H178220   1.371   2.873   4.838  0.4669 -0.8752 -1.7103
18935TIP3    H278221   1.390   3.022   4.855 -2.2502 -0.8061  1.2686
18936TIP3   OH278222   3.301   5.941  17.147  0.3169  0.0184 -0.1972
18936TIP3    H178223   3.361   5.878  17.107  0.0585  0.3301 -1.0879
18936TIP3    H278224   3.357   6.010  17.182  0.4787  0.2606 -0.9402
18937TIP3   OH278225   3.135   4.335  15.180 -0.2149 -0.5493 -0.6466
18937TIP3    H178226   3.227   4.341  15.208  0.2183 -0.8356 -1.9826
18937TIP3    H278227   3.086   4.370  15.255  0.9621 -0.5592  0.1626
18938TIP3   OH278228   4.935   2.638   1.647  0.5587  0.5727 -0.4171
18938TIP3    H178229   4.947   2.640   1.742 -0.2055  1.4105 -0.3337
18938TIP3    H278230   4.851   2.680   1.633  0.1313 -0.5958 -1.3912
18939TIP3   OH278231   0.455   6.549   4.938 -0.0258  0.1204  0.2155
18939TIP3    H178232   0.398   6.626   4.940 -2.0800 -1.2463 -2.2483
18939TIP3    H278233   0.423   6.493   5.009 -1.2614 -0.2643 -0.6220
18940TIP3   OH278234   6.450   4.512   3.700 -0.6188  0.0271 -0.8105
18940TIP3    H178235   6.368   4.561   3.687 -1.1779 -0.5900  0.3138
18940TIP3    H278236   6.422   4.420   3.701  0.2077 -0.2317 -1.2620
18941TIP3   OH278237   2.648   6.650  13.197  0.1157  0.2136  0.1209
18941TIP3    H178238   2.663   6.693  13.113  0.3721 -0.9200 -0.4112
18941TIP3    H278239   2.717   6.684  13.254  0.8127 -0.1081 -0.5257
18942TIP3   OH278240   2.042   6.453   3.189  0.1574 -0.0600 -0.4746
18942TIP3    H178241   2.067   6.453   3.096  0.9243 -0.1132 -0.2703
18942TIP3    H278242   1.978   6.524   3.197  1.7103  1.3792 -0.6079
18943TIP3   OH278243   2.973   6.144   1.140 -0.4186  0.0873 -1.0738
18943TIP3    H178244   3.026   6.089   1.081  0.0476  2.2843 -2.7486
18943TIP3    H278245   2.908   6.184   1.083 -2.0126 -0.2408  0.4857
18944TIP3   OH278246   1.200   2.406   1.531  0.2053  0.3020  0.1507
18944TIP3    H178247   1.211   2.461   1.608 -1.4250 -1.0688  1.4120
18944TIP3    H278248   1.250   2.327   1.551  2.1899  1.1052 -1.4681
18945TIP3   OH278249   1.297   5.801  13.096 -0.3390  0.0992  0.3345
18945TIP3    H178250   1.314   5.779  13.187 -0.4418  0.1254  0.3591
18945TIP3    H278251   1.287   5.717  13.052 -1.9046  0.1048  0.6501
18946TIP3   OH278252   1.844   4.435   5.463 -0.3458  0.7886 -0.2496
18946TIP3    H178253   1.874   4.352   5.499  1.3487  0.5414 -2.1011
18946TIP3    H278254   1.748   4.426   5.457 -0.1322 -1.2522 -0.9271
18947TIP3   OH278255   3.627   0.736  13.880 -0.6104 -0.0098 -0.1768
18947TIP3    H178256   3.602   0.732  13.788 -1.7122 -1.0496  0.1604
18947TIP3    H278257   3.630   0.644  13.908  0.4754  0.2657  0.6174
18948TIP3   OH278258   4.393   3.308  14.863 -0.3118 -0.2048 -0.5804
18948TIP3    H178259   4.448   3.386  14.869 -1.7264  0.7252  0.3877
18948TIP3    H278260   4.342   3.320  14.783 -1.3006  0.3784  0.1311
18949TIP3   OH278261   5.588   4.400  13.914 -0.0061 -0.0165 -0.4648
18949TIP3    H178262   5.595   4.335  13.845 -1.1646  1.0658 -1.6182
18949TIP3    H278263   5.576   4.348  13.994  1.5059 -1.2747 -1.0312
18950TIP3   OH278264   5.310   1.347  12.032 -0.2460  0.3056  0.2457
18950TIP3    H178265   5.352   1.334  12.117 -0.3699  1.9860  0.5664
18950TIP3    H278266   5.383   1.360  11.971 -0.1708 -0.5691  0.1427
18951TIP3   OH278267   5.013   6.691   1.574  0.1013 -0.0559 -0.0681
18951TIP3    H178268   4.969   6.624   1.521  0.3680 -2.0257  2.1026
18951TIP3    H278269   5.106   6.671   1.564  0.1814 -0.0213  0.6193
18952TIP3   OH278270   4.220   4.217  16.038 -0.0693  0.3219 -0.3210
18952TIP3    H178271   4.229   4.138  15.985  1.0612  0.1528  0.0945
18952TIP3    H278272   4.310   4.240  16.062 -0.2169  2.8290 -2.0105
18953TIP3   OH278273   2.796   4.435  14.916 -0.0673  0.1957 -0.3873
18953TIP3    H178274   2.779   4.362  14.856 -0.7257  0.6586 -0.7673
18953TIP3    H278275   2.779   4.513  14.865  0.3591  0.6208  0.1093
18954TIP3   OH278276   2.147   6.498   5.866  0.7132 -0.1029  0.3700
18954TIP3    H178277   2.159   6.592   5.872  1.3506 -0.2139  0.8256
18954TIP3    H278278   2.154   6.467   5.957 -0.6533 -0.4493  0.3756
18955TIP3   OH278279   2.682   6.541  17.214 -0.2857 -0.2812  0.3209
18955TIP3    H178280   2.662   6.615  17.272 -2.0462  0.3919 -1.0726
18955TIP3    H278281   2.601   6.490  17.211  0.7508 -2.0018  0.8520
18956TIP3   OH278282   2.734   3.577  15.401 -0.3842  0.1717 -0.1867
18956TIP3    H178283   2.708   3.527  15.324 -1.2288 -0.3644  0.4377
18956TIP3    H278284   2.809   3.629  15.371 -1.5302  0.9949 -1.7467
18957TIP3   OH278285   4.604   2.514  15.970  0.0040 -0.1804  0.2918
18957TIP3    H178286   4.642   2.579  16.030  0.2074 -1.0085  1.0733
18957TIP3    H278287   4.560   2.452  16.028 -2.7476  0.8693 -0.6117
18958TIP3   OH278288   6.478   0.807   4.101  0.3330 -0.5115 -0.1009
18958TIP3    H178289   6.460   0.873   4.035  0.4664 -0.4217 -0.0470
18958TIP3    H278290   6.416   0.736   4.081 -1.1921  0.4590  1.0606
18959TIP3   OH278291   2.362   4.411   0.406  0.3735 -0.0458  0.3035
18959TIP3    H178292   2.271   4.432   0.429  0.4056 -0.1943  0.5727
18959TIP3    H278293   2.387   4.343   0.469  1.0875  0.9045  1.0512
18960TIP3   OH278294   6.274   2.977   1.594  0.2762 -0.4339 -0.1107
18960TIP3    H178295   6.346   3.030   1.627  0.0805 -0.7476  0.8466
18960TIP3    H278296   6.307   2.939   1.513  0.4231  1.1097 -0.7908
18961TIP3   OH278297   3.130   6.172   4.163 -0.1831 -0.0351  0.0390
18961TIP3    H178298   3.155   6.096   4.110 -1.6388 -0.5939  0.1447
18961TIP3    H278299   3.071   6.222   4.106  0.3829  0.7638  0.1515
18962TIP3   OH278300   3.331   1.758  15.944  0.0317  0.0191 -0.1747
18962TIP3    H178301   3.308   1.785  15.855 -0.1055 -2.1663 -0.8334
18962TIP3    H278302   3.409   1.809  15.965  1.3724 -1.0352 -2.4096
18963TIP3   OH278303   4.273   1.533  13.032 -0.2675  0.0669 -0.2584
18963TIP3    H178304   4.227   1.610  12.998 -0.1799  1.3350  2.3691
18963TIP3    H278305   4.366   1.558  13.029 -0.2395  0.0681  0.5887
18964TIP3   OH278306   5.032   1.375  12.822 -0.3067 -0.1403 -0.1627
18964TIP3    H178307   5.044   1.317  12.896 -1.7860  1.9513  1.7972
18964TIP3    H278308   5.110   1.431  12.822 -0.7295  0.4603  0.4075
18965TIP3   OH278309   4.525   6.750   5.198 -0.1981 -0.4380  0.1877
18965TIP3    H178310   4.532   6.656   5.182  0.9720 -0.1599 -0.9743
18965TIP3    H278311   4.430   6.766   5.200 -0.4071 -1.5530 -0.1721
18966TIP3   OH278312   1.748   1.836   2.471  0.6881  0.0819 -0.4211
18966TIP3    H178313   1.785   1.792   2.394 -1.2384  0.1006 -1.3840
18966TIP3    H278314   1.807   1.813   2.542  2.2760 -0.2894 -1.8137
18967TIP3   OH278315   1.814   4.056   2.985 -0.0609 -0.2701 -0.7270
18967TIP3    H178316   1.768   4.101   2.913  1.8537  0.7822 -1.3560
18967TIP3    H278317   1.889   4.113   3.003  1.4166 -2.3150 -0.2772
18968TIP3   OH278318   5.420   2.195   5.466  0.8625  0.1228 -0.3738
18968TIP3    H178319   5.415   2.248   5.545 -2.2613 -0.3728 -0.1746
18968TIP3    H278320   5.497   2.228   5.420  0.3701  3.1983  0.8706
18969TIP3   OH278321   3.109   5.135   0.959  0.0503 -0.5117 -0.2103
18969TIP3    H178322   3.057   5.164   1.034  1.1591 -1.5907  0.9923
18969TIP3    H278323   3.136   5.216   0.916  0.8124  0.1666  1.5222
18970TIP3   OH278324   4.600   4.586  15.887 -0.3534 -0.5653 -0.4169
18970TIP3    H178325   4.670   4.527  15.914 -0.6527 -1.1964 -1.0014
18970TIP3    H278326   4.539   4.587  15.962 -0.7680 -1.6580 -0.7374
18971TIP3   OH278327   3.280   0.285   2.718  0.1587  0.3644 -0.2251
18971TIP3    H178328   3.274   0.298   2.812  0.2479  0.8191 -0.2799
18971TIP3    H278329   3.318   0.197   2.708  0.8340  0.6013  0.1694
18972TIP3   OH278330   3.828   0.436   2.599 -0.1830 -0.4072  0.2762
18972TIP3    H178331   3.861   0.505   2.542 -0.5703  0.3692  0.9912
18972TIP3    H278332   3.904   0.379   2.614  0.9914  1.6331  2.2998
18973TIP3   OH278333   1.633   0.302   0.049  0.2101 -0.1402 -0.1216
18973TIP3    H178334   1.590   0.218   0.065  2.1305 -1.1065  0.1245
18973TIP3    H278335   1.599   0.331  -0.036 -0.7332 -1.0080 -0.0396
18974TIP3   OH278336   3.209   4.982  16.915 -0.0715 -0.0139  0.1045
18974TIP3    H178337   3.268   4.923  16.963  0.9520  0.9226  0.0233
18974TIP3    H278338   3.187   4.935  16.835 -1.1359 -1.2537  1.1057
18975TIP3   OH278339   3.483   1.090   5.099 -0.3335 -0.3053  0.1114
18975TIP3    H178340   3.484   1.084   5.195  2.1269  0.8834  0.1951
18975TIP3    H278341   3.398   1.129   5.079 -1.8996 -2.7643  1.6239
18976TIP3   OH278342   2.514   4.592  13.485 -0.4745 -0.2981  0.1138
18976TIP3    H178343   2.483   4.550  13.565  0.0456 -0.9270 -0.0155
18976TIP3    H278344   2.575   4.530  13.446  0.9573  0.9166  0.3621
18977TIP3   OH278345   0.614   6.771  12.230  0.1239  0.0195  0.3030
18977TIP3    H178346   0.683   6.744  12.290  0.7732  0.3401 -0.2904
18977TIP3    H278347   0.582   6.689  12.192 -0.6777 -0.2273  1.5001
18978TIP3   OH278348   6.414   5.614   3.526  0.1097  0.3063 -0.0507
18978TIP3    H178349   6.341   5.675   3.532  0.6097  0.9404 -0.4412
18978TIP3    H278350   6.492   5.669   3.518  0.5497 -0.3798 -0.5634
18979TIP3   OH278351   2.815   4.921  17.076 -0.0142  0.8837 -0.2911
18979TIP3    H178352   2.755   4.867  17.024  0.5081  0.4382 -0.4303
18979TIP3    H278353   2.858   4.977  17.012  0.7443  0.2248 -0.3583
18980TIP3   OH278354   5.219   2.020   3.842  0.1200  1.3645 -0.4851
18980TIP3    H178355   5.202   2.114   3.827  0.8409  1.4523 -0.7698
18980TIP3    H278356   5.296   2.019   3.899 -0.3859  0.9560  0.1895
18981TIP3   OH278357   4.819   2.599  16.576  0.8553  0.2779  0.7362
18981TIP3    H178358   4.907   2.635  16.592  0.4626  1.0456  1.1886
18981TIP3    H278359   4.760   2.671  16.596  0.1247 -0.1745  0.2192
18982TIP3   OH278360   2.359   5.738  11.383 -0.1958 -0.6098 -0.5524
18982TIP3    H178361   2.294   5.693  11.438 -1.4126  0.7913 -0.8206
18982TIP3    H278362   2.318   5.822  11.361  1.6756  0.2559 -0.8100
18983TIP3   OH278363   6.646   6.064  11.010 -0.2633 -0.2339  0.0718
18983TIP3    H178364   6.660   6.072  10.916  0.8863 -1.7207  0.0821
18983TIP3    H278365   6.573   6.003  11.018  1.7080 -2.6954  0.1284
18984TIP3   OH278366   5.977   6.549  17.055  0.0745 -0.7185  0.0353
18984TIP3    H178367   5.986   6.516  17.144 -0.7388  0.1078  0.4268
18984TIP3    H278368   5.884   6.570  17.045  0.4211  0.7074 -0.4558
18985TIP3   OH278369   3.737   0.899   2.155  0.4444 -0.0641 -0.1857
18985TIP3    H178370   3.745   0.804   2.149  3.6578  0.2626 -2.7780
18985TIP3    H278371   3.702   0.926   2.070 -3.4153  0.9189  1.6022
18986TIP3   OH278372   5.547   6.074   5.289 -0.4998 -0.0949 -0.6328
18986TIP3    H178373   5.591   6.051   5.207 -1.1329 -0.9603 -0.7333
18986TIP3    H278374   5.601   6.144   5.326  0.5788 -0.6593 -1.1044
18987TIP3   OH278375   5.287   0.183   4.240  0.0122 -0.3838  0.5171
18987TIP3    H178376   5.235   0.104   4.230 -1.5348  0.6426  0.2695
18987TIP3    H278377   5.241   0.233   4.308  1.1210  0.1803  0.8599
18988TIP3   OH278378   6.132   5.230  11.811  0.1156  0.1712 -0.2918
18988TIP3    H178379   6.056   5.232  11.754 -0.1427 -0.3577  0.0385
18988TIP3    H278380   6.099   5.203  11.896  0.6785 -0.1217 -0.1600
18989TIP3   OH278381   4.921   0.803   3.071 -0.1557 -0.1440  0.2399
18989TIP3    H178382   4.946   0.806   3.163 -0.2652 -1.6259  0.3294
18989TIP3    H278383   4.836   0.759   3.070  0.4881 -1.4014 -0.6757
18990TIP3   OH278384   2.999   1.679  14.947 -0.2755  0.0148 -0.2306
18990TIP3    H178385   3.022   1.768  14.919  0.3636 -0.2587 -0.5929
18990TIP3    H278386   3.056   1.662  15.022  0.5330 -0.5780 -0.9788
18991TIP3   OH278387   4.777   1.340  14.748 -0.5443  0.7320 -0.2099
18991TIP3    H178388   4.726   1.268  14.711 -2.1888  0.8383  1.7310
18991TIP3    H278389   4.726   1.419  14.730  0.9174  1.3441 -1.7360
18992TIP3   OH278390   4.155   3.946   2.601 -0.4998 -0.2163 -0.4283
18992TIP3    H178391   4.128   3.927   2.510  2.2330 -1.5349 -1.0195
18992TIP3    H278392   4.133   4.038   2.614 -2.9325 -0.5777 -1.6825
18993TIP3   OH278393   2.900   4.181  11.601  0.1069  0.0019 -0.2411
18993TIP3    H178394   2.898   4.144  11.513 -1.6884 -0.9018  0.1582
18993TIP3    H278395   2.980   4.146  11.640  1.5784  1.3824 -1.8829
18994TIP3   OH278396   5.056   4.778   2.430 -0.0579  0.2391  0.2999
18994TIP3    H178397   5.040   4.845   2.496  0.2430 -0.1043  0.7210
18994TIP3    H278398   5.044   4.695   2.476  1.1200 -0.0109  0.1756
18995TIP3   OH278399   4.727   2.701   5.058 -0.1403  0.7625 -0.0976
18995TIP3    H178400   4.638   2.672   5.039  0.5266  0.8761 -3.6395
18995TIP3    H278401   4.775   2.621   5.078 -0.2913  0.3296 -1.4337
18996TIP3   OH278402   0.116   5.159   2.529  0.6868 -0.3717  0.2816
18996TIP3    H178403   0.035   5.125   2.490 -0.1688  2.4366 -0.5234
18996TIP3    H278404   0.146   5.089   2.587 -1.3601 -2.1639 -0.7298
18997TIP3   OH278405   2.320   1.617  12.288 -0.0726 -0.4201  0.0439
18997TIP3    H178406   2.337   1.703  12.327  0.3849  0.5875 -2.3189
18997TIP3    H278407   2.235   1.627  12.246  0.6634 -0.6483 -1.5255
18998TIP3   OH278408   1.965   2.522  17.096  0.4021 -0.0931 -0.0204
18998TIP3    H178409   2.006   2.560  17.018  1.8047 -1.8590 -0.1716
18998TIP3    H278410   1.877   2.561  17.098  1.1726  1.7782 -1.1484
18999TIP3   OH278411   2.228   0.702   5.046 -0.2504  0.4760 -0.1381
18999TIP3    H178412   2.211   0.609   5.056  2.0300 -0.2496 -2.5444
18999TIP3    H278413   2.258   0.730   5.133  2.0340 -1.7420 -0.1416
19000TIP3   OH278414   3.959   5.293   4.682 -0.9826 -0.2958  0.2770
19000TIP3    H178415   3.991   5.242   4.608  1.2712  1.3693  0.0532
19000TIP3    H278416   3.910   5.365   4.643 -0.3865  0.1872  0.4016
19001TIP3   OH278417   5.357   3.746  15.394 -0.3491 -0.0071 -0.3148
19001TIP3    H178418   5.297   3.817  15.418 -0.1902  0.8112 -2.2731
19001TIP3    H278419   5.440   3.771  15.435 -0.3116  0.9212 -0.9309
19002TIP3   OH278420   2.173   4.561   1.545  0.3036  0.1460 -0.5181
19002TIP3    H178421   2.229   4.600   1.478 -0.1121  2.1882  0.2858
19002TIP3    H278422   2.233   4.524   1.609  0.9050  4.1907  1.4469
19003TIP3   OH278423   4.952   6.711  16.511 -0.2861  0.4653 -0.3699
19003TIP3    H178424   4.984   6.663  16.434  1.0597 -0.0809  0.5131
19003TIP3    H278425   4.905   6.645  16.562 -0.7298  0.7105 -0.4636
19004TIP3   OH278426   5.395   2.860   6.546 -0.2818 -0.2056 -0.0797
19004TIP3    H178427   5.404   2.943   6.593 -0.6904 -0.6854  0.8506
19004TIP3    H278428   5.301   2.842   6.547 -0.0763 -1.2722  0.7537
19005TIP3   OH278429   5.163   6.582  11.702 -0.0418  0.2723  0.4205
19005TIP3    H178430   5.198   6.667  11.677  1.5223 -0.2594  0.7797
19005TIP3    H278431   5.155   6.534  11.620 -0.7800  0.6861  0.2355
19006TIP3   OH278432   1.043   0.803   0.500 -0.0139  0.3477  0.5166
19006TIP3    H178433   0.963   0.763   0.465  0.7101 -1.8546  1.2883
19006TIP3    H278434   1.023   0.896   0.505 -1.8903  0.0591 -1.0030
19007TIP3   OH278435   2.119   4.393   6.121  0.0900  0.1562 -0.4001
19007TIP3    H178436   2.106   4.488   6.131  0.3116  0.0541  0.9221
19007TIP3    H278437   2.214   4.382   6.120  0.1137  0.1822 -3.0946
19008TIP3   OH278438   5.647   0.774   5.693 -0.3695  0.1530  0.5762
19008TIP3    H178439   5.683   0.785   5.605 -0.1901  0.6664  0.7095
19008TIP3    H278440   5.714   0.727   5.742 -0.7949 -0.8305  0.2275
19009TIP3   OH278441   2.370   3.977   3.335  0.1403  0.1882  0.1580
19009TIP3    H178442   2.382   4.044   3.403  0.2704  0.2592  0.0647
19009TIP3    H278443   2.283   3.994   3.299 -0.2232 -0.2951  0.7984
19010TIP3   OH278444   3.914   3.798  11.869 -0.1982 -0.4977 -0.4278
19010TIP3    H178445   3.962   3.880  11.875 -0.3425 -0.5855  2.8033
19010TIP3    H278446   3.979   3.733  11.844  0.1011  0.4090 -2.0679
19011TIP3   OH278447   4.809   4.844  17.026 -0.0689 -0.6508  0.2857
19011TIP3    H178448   4.853   4.765  17.058 -0.8215 -1.1922  0.0024
19011TIP3    H278449   4.793   4.896  17.104 -0.4961 -1.2537  0.6063
19012TIP3   OH278450   4.449   6.642  16.150 -0.1548 -0.0104  0.4776
19012TIP3    H178451   4.407   6.670  16.069  0.5037  0.6190  0.3594
19012TIP3    H278452   4.394   6.569  16.181 -0.3837 -0.2794 -0.5435
19013TIP3   OH278453   5.644   5.372   5.919  0.0859 -0.2561 -0.1513
19013TIP3    H178454   5.622   5.465   5.918  0.9832 -0.0200  0.9528
19013TIP3    H278455   5.578   5.332   5.975  0.5091 -0.0558  0.5029
19014TIP3   OH278456   4.936   4.528  13.527 -0.3741 -0.0283 -0.7234
19014TIP3    H178457   4.889   4.574  13.457 -0.0793  1.5379  0.0868
19014TIP3    H278458   4.872   4.466  13.562 -0.0329 -2.0439 -3.4616
19015TIP3   OH278459   3.312   3.909  15.544 -1.0471 -0.2926 -0.1251
19015TIP3    H178460   3.331   3.964  15.468 -2.7011 -1.0725 -1.1476
19015TIP3    H278461   3.326   3.966  15.619  0.8769  0.4100 -1.0029
19016TIP3   OH278462   4.176   0.927  16.003 -0.4928  0.4033 -0.2350
19016TIP3    H178463   4.181   1.021  16.023 -0.6048 -0.0237  1.9489
19016TIP3    H278464   4.235   0.915  15.928 -0.8042  2.2769 -0.8042
19017TIP3   OH278465   1.036   2.538  11.872  0.1147  0.7772  0.3918
19017TIP3    H178466   1.027   2.616  11.817  0.2369  0.9360  0.5948
19017TIP3    H278467   1.121   2.501  11.848  1.9675  2.9639  3.1350
19018TIP3   OH278468   2.576   4.625  11.282  0.1304  0.1750  0.2172
19018TIP3    H178469   2.569   4.540  11.324  0.7410  0.5836  1.1544
19018TIP3    H278470   2.509   4.624  11.214 -1.3178 -0.2424  1.6271
19019TIP3   OH278471   1.536   0.564   5.559  0.5687 -0.2665  0.1308
19019TIP3    H178472   1.476   0.584   5.486 -1.0176  1.6909  1.9170
19019TIP3    H278473   1.506   0.479   5.591  0.7868 -0.7817 -0.9819
19020TIP3   OH278474   2.024   1.597  13.411  0.0605  0.6148  0.0390
19020TIP3    H178475   1.992   1.574  13.499  0.3217  0.4545  0.0917
19020TIP3    H278476   2.087   1.667  13.426 -0.3619  1.0192 -0.0771
19021TIP3   OH278477   3.750   4.046  14.843 -0.3266 -0.4715 -0.1967
19021TIP3    H178478   3.701   4.016  14.767 -1.8706 -0.5520  0.7901
19021TIP3    H278479   3.715   4.134  14.860 -0.5605 -0.7592  0.8618
19022TIP3   OH278480   5.530   4.660  13.617  0.1412  0.4331 -0.1017
19022TIP3    H178481   5.622   4.684  13.629  0.3846 -0.1775 -0.7531
19022TIP3    H278482   5.496   4.650  13.706  0.4687  1.5315  0.1608
19023TIP3   OH278483   3.790   0.411  16.343 -0.4415  0.4768 -0.4940
19023TIP3    H178484   3.813   0.397  16.251 -0.0904  2.0237 -0.6505
19023TIP3    H278485   3.772   0.505  16.349 -0.7900  0.3225  0.9500
19024TIP3   OH278486   5.306   0.205  11.297  0.2900  0.3973 -0.2566
19024TIP3    H178487   5.322   0.148  11.221  1.5367  1.1007 -0.5309
19024TIP3    H278488   5.297   0.292  11.260 -5.0622 -0.0185 -0.2010
19025TIP3   OH278489   1.063   0.102  15.012  0.0056 -0.4733  0.0675
19025TIP3    H178490   1.144   0.063  15.044  0.0768 -0.1268  0.3225
19025TIP3    H278491   1.077   0.116  14.919  0.6923  0.6818  0.3364
19026TIP3   OH278492   5.972   6.067  12.907 -0.2797  0.0654 -0.1177
19026TIP3    H178493   6.058   6.039  12.938 -1.0802 -0.3430  1.7969
19026TIP3    H278494   5.910   6.026  12.967 -1.6751  2.5369  0.2148
19027TIP3   OH278495   0.919   3.408  15.163  0.6361  0.0471 -0.0073
19027TIP3    H178496   0.864   3.329  15.168  1.1201 -0.2549  0.5714
19027TIP3    H278497   0.857   3.478  15.142  0.3761 -0.6703 -1.6866
19028TIP3   OH278498   2.633   1.619  15.035  0.2119  0.0344  0.0730
19028TIP3    H178499   2.673   1.566  15.104  0.4082  0.9533  0.6764
19028TIP3    H278500   2.639   1.709  15.067  0.3250  0.4783 -1.1535
19029TIP3   OH278501   0.100   6.092  15.743 -0.5280 -0.4645 -0.3530
19029TIP3    H178502   0.079   6.164  15.802 -1.4608  0.0660 -1.3304
19029TIP3    H278503   0.017   6.045  15.733  0.1595 -1.9275  0.6065
19030TIP3   OH278504   2.527   3.940  15.273 -0.0616 -0.2613  0.1186
19030TIP3    H178505   2.620   3.937  15.249  0.2166  2.1619  0.7984
19030TIP3    H278506   2.517   3.869  15.337  1.2086 -0.8341 -0.2925
19031TIP3   OH278507   1.748   1.189   4.757 -0.5899 -0.7830  0.1653
19031TIP3    H178508   1.666   1.190   4.806 -1.3920 -0.6453 -1.1841
19031TIP3    H278509   1.776   1.281   4.757  0.1791 -0.9946  1.6191
19032TIP3   OH278510   4.461   1.621   2.173 -0.3299  1.4412 -0.4788
19032TIP3    H178511   4.495   1.650   2.088  1.0848 -1.2547 -0.8574
19032TIP3    H278512   4.498   1.683   2.236  1.0959  1.6254 -1.4831
19033TIP3   OH278513   6.306   0.475  17.176 -0.1022  0.2484  0.8217
19033TIP3    H178514   6.213   0.463  17.155  0.2245  0.6203 -0.9296
19033TIP3    H278515   6.324   0.567  17.154  0.8108  0.0262  0.6097
19034TIP3   OH278516   5.793   0.930   3.677 -0.4200  0.1658  0.0511
19034TIP3    H178517   5.750   1.014   3.691  0.0195  0.4220 -0.1196
19034TIP3    H278518   5.752   0.895   3.597 -0.3087  0.4093 -0.1128
19035TIP3   OH278519   4.031   2.896   4.301  0.0249 -0.1189  0.0174
19035TIP3    H178520   3.961   2.834   4.281  1.1028 -2.2671  2.5490
19035TIP3    H278521   4.016   2.919   4.393  0.5311  2.2442 -0.4683
19036TIP3   OH278522   0.184   5.076  11.568 -0.1455  0.2286 -0.1218
19036TIP3    H178523   0.260   5.056  11.624  1.1627  0.5747 -1.7355
19036TIP3    H278524   0.134   5.140  11.619  0.8222  0.2397  0.8450
19037TIP3   OH278525   3.904   6.746   5.159  0.4468  0.0919  0.0135
19037TIP3    H178526   3.849   6.808   5.205 -0.3360 -0.5870  0.0027
19037TIP3    H278527   3.973   6.799   5.120  0.1156  0.8761  0.4924
19038TIP3   OH278528   1.526   3.693  16.826 -0.2613  1.2953  0.1456
19038TIP3    H178529   1.445   3.723  16.866 -1.3725  0.0120 -1.0720
19038TIP3    H278530   1.501   3.672  16.736  1.3032  0.3657 -0.0822
19039TIP3   OH278531   5.262   0.361  11.610 -0.1009 -0.0726  0.2980
19039TIP3    H178532   5.328   0.431  11.611  0.8046 -0.8898 -0.6000
19039TIP3    H278533   5.213   0.376  11.529 -0.0633 -0.3225  0.2278
19040TIP3   OH278534   3.596   2.095  10.897 -0.7867  0.6605 -0.5876
19040TIP3    H178535   3.519   2.149  10.912 -0.3425  1.3679 -0.7868
19040TIP3    H278536   3.562   2.010  10.869 -1.4897  0.8971 -0.4515
19041TIP3   OH278537   4.644   0.135   3.792  0.5318  0.2288  0.0719
19041TIP3    H178538   4.627   0.158   3.701 -0.0393  2.6089  0.7528
19041TIP3    H278539   4.701   0.205   3.824 -0.0500 -0.0637  1.7971
19042TIP3   OH278540   2.999   4.384   0.294  0.1066 -0.1369  0.7254
19042TIP3    H178541   2.956   4.321   0.236 -1.1603 -0.8635  2.4288
19042TIP3    H278542   3.031   4.452   0.235 -1.0419 -0.9270 -0.8474
19043TIP3   OH278543   1.661   5.630  10.987 -0.1246 -0.1713 -0.6291
19043TIP3    H178544   1.665   5.583  11.071 -0.4960  0.4653 -0.2563
19043TIP3    H278545   1.615   5.569  10.929 -1.5503  0.1495  0.1419
19044TIP3   OH278546   4.938   3.227   1.610  0.1251  0.1274 -0.4076
19044TIP3    H178547   4.957   3.316   1.581  1.4218  0.0845  0.2731
19044TIP3    H278548   4.995   3.213   1.685  1.1854 -1.8467 -1.5283
19045TIP3   OH278549   2.301   2.077  17.160  0.1605 -0.5437 -0.3005
19045TIP3    H178550   2.365   2.062  17.230 -0.5245  0.7999  0.6167
19045TIP3    H278551   2.217   2.084  17.205 -0.3012  0.2138 -1.2660
19046TIP3   OH278552   5.501   0.707  12.116  0.1117 -0.2146  0.3945
19046TIP3    H178553   5.507   0.616  12.146 -0.5842  0.5227  2.8620
19046TIP3    H278554   5.411   0.733  12.135  0.6221  1.3370  0.8075
19047TIP3   OH278555   3.994   4.961  10.882  0.1855  0.4759 -0.0248
19047TIP3    H178556   3.983   4.947  10.977  0.8965  0.3666  0.0444
19047TIP3    H278557   3.989   5.055  10.871  2.9555  0.7296  0.5106
19048TIP3   OH278558   3.630   1.658  14.459 -1.0241 -0.0883  0.3179
19048TIP3    H178559   3.707   1.693  14.503 -0.7439  0.7077 -0.7883
19048TIP3    H278560   3.559   1.718  14.483 -1.0150 -0.0558  0.2644
19049TIP3   OH278561   2.681   1.788  15.484  0.3406  0.3506 -0.2029
19049TIP3    H178562   2.662   1.802  15.577  0.3633 -1.2889  0.0726
19049TIP3    H278563   2.613   1.727  15.456  1.5232 -0.7181 -0.7676
19050TIP3   OH278564   1.621   0.331  16.341 -0.1238 -0.1294 -0.4485
19050TIP3    H178565   1.554   0.325  16.272 -0.2951 -1.1028 -0.2038
19050TIP3    H278566   1.658   0.243  16.346 -0.5639 -0.2453  1.1478
19051TIP3   OH278567   6.460   2.244   0.360 -0.0433  0.5129 -0.8310
19051TIP3    H178568   6.377   2.211   0.394 -0.5022  0.4786 -1.9685
19051TIP3    H278569   6.513   2.166   0.348 -0.5269  0.3487 -1.9136
19052TIP3   OH278570   3.690   6.147   0.589 -0.0154 -0.2887  0.6276
19052TIP3    H178571   3.662   6.226   0.635 -0.7199 -1.5116  2.3521
19052TIP3    H278572   3.608   6.105   0.562  0.3357 -0.7993  0.3511
19053TIP3   OH278573   0.021   4.956   0.689 -0.1492 -0.6770 -0.2109
19053TIP3    H178574   0.094   4.901   0.717 -0.3950  0.7349  3.5684
19053TIP3    H278575   0.054   5.046   0.699 -1.4649 -0.0570 -1.2416
19054TIP3   OH278576   2.949   0.575   3.260 -0.1276  0.1114 -0.6029
19054TIP3    H178577   3.000   0.648   3.225  0.7372  0.3920  1.2122
19054TIP3    H278578   2.909   0.535   3.182 -0.4608  2.3788 -1.6414
19055TIP3   OH278579   4.099   3.052   0.895 -0.4664  0.0478 -0.1572
19055TIP3    H178580   4.127   3.048   0.986  0.5132  0.9041 -0.4074
19055TIP3    H278581   4.022   3.109   0.896  0.4283  1.2760 -0.0555
19056TIP3   OH278582   5.331   1.230  14.736  0.5101 -0.6171  0.3324
19056TIP3    H178583   5.260   1.166  14.741 -0.2623 -0.0539 -2.3882
19056TIP3    H278584   5.400   1.186  14.685  0.5597  0.1699 -0.3011
19057TIP3   OH278585   6.499   2.089   2.713  0.0826  0.0482 -0.2648
19057TIP3    H178586   6.531   2.014   2.664 -1.1361 -0.3651 -0.4305
19057TIP3    H278587   6.472   2.053   2.798  1.0308  0.5630  0.2640
19058TIP3   OH278588   4.739   3.326  13.983  0.4312  0.5432  0.1925
19058TIP3    H178589   4.810   3.376  14.022  0.4992  1.0205 -0.5500
19058TIP3    H278590   4.695   3.387  13.924  0.3916 -0.2058 -0.5615
19059TIP3   OH278591   3.836   5.059   1.320  0.3093 -0.1412 -0.2314
19059TIP3    H178592   3.825   4.966   1.341 -1.1097 -0.2326 -1.2519
19059TIP3    H278593   3.915   5.062   1.266 -0.5123 -1.0038 -1.5351
19060TIP3   OH278594   3.611   4.392   3.002 -0.0313 -0.4068  0.6642
19060TIP3    H178595   3.523   4.374   3.034 -0.0708 -2.0052 -0.3123
19060TIP3    H278596   3.626   4.327   2.934  1.5745  0.4106  0.2082
19061TIP3   OH278597   1.209   1.029  16.913  0.2699 -0.1098  0.2350
19061TIP3    H178598   1.187   0.948  16.867  2.5620 -0.6155 -0.0005
19061TIP3    H278599   1.177   1.015  17.002 -0.0776 -0.9460 -0.0158
19062TIP3   OH278600   5.981   5.639   5.247 -0.3738  0.4051  0.0937
19062TIP3    H178601   5.961   5.694   5.172  0.0227 -2.0844 -1.8766
19062TIP3    H278602   5.981   5.550   5.213  1.2168 -0.6716  2.7494
19063TIP3   OH278603   6.577   6.057   6.514 -0.5997 -0.1756  0.1266
19063TIP3    H178604   6.671   6.077   6.515 -0.6668  0.1161  0.7938
19063TIP3    H278605   6.545   6.101   6.435 -0.1101 -0.5967 -0.3138
19064TIP3   OH278606   1.236   3.881   2.398 -0.6034  0.1647  1.1241
19064TIP3    H178607   1.178   3.862   2.324 -0.2402 -0.6664  1.0520
19064TIP3    H278608   1.185   3.940   2.454 -1.2344  0.0419  0.6839
19065TIP3   OH278609   4.060   6.048  14.471  0.3904  0.3830 -0.0382
19065TIP3    H178610   4.029   6.128  14.429  1.9615  0.5640 -0.8813
19065TIP3    H278611   4.099   5.996  14.401  0.8934 -0.3741  0.7788
19066TIP3   OH278612   2.274   1.213  16.150  0.3998  0.0112  0.6952
19066TIP3    H178613   2.351   1.156  16.155  0.2216 -0.4537 -1.4494
19066TIP3    H278614   2.200   1.153  16.144  0.0082  0.4616  1.0180
19067TIP3   OH278615   4.706   0.884   4.454  0.2309 -0.0481 -0.5710
19067TIP3    H178616   4.730   0.838   4.535  0.9133  0.1131 -0.6787
19067TIP3    H278617   4.725   0.976   4.472  0.2708  0.0034 -0.8707
19068TIP3   OH278618   1.136   3.481  13.902 -0.1163 -0.0289  0.0829
19068TIP3    H178619   1.167   3.462  13.991 -1.0965  2.0723  0.9334
19068TIP3    H278620   1.215   3.497  13.852  0.3813  1.2261  1.2208
19069TIP3   OH278621   1.975   0.936   1.839 -0.2668 -0.6935 -0.2841
19069TIP3    H178622   2.066   0.928   1.810  0.6685  2.4641  1.4483
19069TIP3    H278623   1.939   1.006   1.784 -0.6138  0.3455  1.2192
19070TIP3   OH278624   4.965   1.064  10.829  0.2360  0.5947  0.0451
19070TIP3    H178625   4.960   1.094  10.738 -1.0185  0.1125 -0.0460
19070TIP3    H278626   4.967   1.145  10.880 -0.9734  0.8486 -0.3127
19071TIP3   OH278627   3.888   4.825   1.523 -0.0671  0.0305 -0.1022
19071TIP3    H178628   3.904   4.906   1.572 -0.3220  0.3630 -0.5703
19071TIP3    H278629   3.974   4.797   1.494 -0.0363  0.4114 -0.3784
19072TIP3   OH278630   6.512   4.100  15.270  0.0142 -0.2043 -0.3713
19072TIP3    H178631   6.454   4.142  15.207  0.2654  0.4760 -0.1528
19072TIP3    H278632   6.584   4.162  15.282  1.5452 -1.6510 -1.7349
19073TIP3   OH278633   5.052   5.953  17.101  0.0397  0.1606  0.1165
19073TIP3    H178634   4.993   5.910  17.163  0.4591 -0.0033  0.3973
19073TIP3    H278635   4.998   6.022  17.061 -0.9701 -1.2770 -1.1038
19074TIP3   OH278636   1.845   1.303  13.876  0.3700  0.0616 -0.1312
19074TIP3    H178637   1.822   1.280  13.786  1.8190  0.4143 -0.5988
19074TIP3    H278638   1.846   1.220  13.924 -0.5655 -0.1051 -0.3939
19075TIP3   OH278639   6.623   4.384   2.731  0.4055  0.0365  0.3408
19075TIP3    H178640   6.606   4.413   2.821 -1.1735 -0.6676  0.2837
19075TIP3    H278641   6.599   4.291   2.731 -1.1166  0.4233 -1.2011
19076TIP3   OH278642   0.065   1.572  11.252 -0.0997  0.5792  0.6981
19076TIP3    H178643   0.123   1.648  11.245  0.2544  0.4120  1.7961
19076TIP3    H278644  -0.011   1.605  11.300 -0.7442  0.6922 -0.3813
19077TIP3   OH278645   4.543   3.748   4.578  0.1563 -0.3556  0.1083
19077TIP3    H178646   4.449   3.742   4.593 -0.1859 -0.2094 -1.8004
19077TIP3    H278647   4.553   3.816   4.511  1.7276  0.4736  1.1395
19078TIP3   OH278648   3.856   6.115   5.029 -0.4434 -0.1982  0.1777
19078TIP3    H178649   3.844   6.197   4.980  1.2570 -0.0852 -0.0887
19078TIP3    H278650   3.878   6.050   4.962  0.6522 -0.3222  0.6493
19079TIP3   OH278651   5.189   4.577  11.050 -0.3272 -0.3133 -0.0842
19079TIP3    H178652   5.278   4.609  11.067  0.1702 -0.9389 -1.4669
19079TIP3    H278653   5.187   4.491  11.091  0.4064 -1.2058 -1.8777
19080TIP3   OH278654   6.144   0.378  12.593  0.1612 -0.1097  0.0434
19080TIP3    H178655   6.120   0.403  12.504  1.4505 -2.5806 -1.0179
19080TIP3    H278656   6.098   0.442  12.648 -0.2378  1.7791 -2.3735
19081TIP3   OH278657   5.398   1.988   5.199  0.0192 -0.4470 -0.1739
19081TIP3    H178658   5.400   1.923   5.129 -0.7882 -1.7172  0.9578
19081TIP3    H278659   5.445   1.946   5.272 -0.1743  0.3855  0.4406
19082TIP3   OH278660   4.855   1.719  17.153 -0.0679  0.6566  0.1549
19082TIP3    H178661   4.767   1.686  17.171 -0.2478  0.3564 -1.2064
19082TIP3    H278662   4.902   1.709  17.236 -1.4348  1.2203  1.0175
19083TIP3   OH278663   3.741   3.082   2.156 -0.6021  0.1463 -0.7749
19083TIP3    H178664   3.720   3.038   2.239 -0.3027  1.3421 -0.0399
19083TIP3    H278665   3.665   3.137   2.138 -0.6339 -0.0560 -1.2584
19084TIP3   OH278666   1.668   3.127   5.590 -0.3550  0.0619 -0.5252
19084TIP3    H178667   1.685   3.184   5.515  2.0538 -0.8240 -0.6999
19084TIP3    H278668   1.608   3.060   5.556  1.1811 -0.6883 -1.8905
19085TIP3   OH278669   4.095   2.883  14.183 -0.6079 -0.0448  0.7287
19085TIP3    H178670   4.000   2.870  14.179 -0.3341 -1.6087 -1.3075
19085TIP3    H278671   4.106   2.978  14.177 -2.0482  0.1790  1.3101
19086TIP3   OH278672   5.347   6.431   3.714  0.8229  0.5996  0.2446
19086TIP3    H178673   5.426   6.479   3.736  1.4009 -0.1506 -0.1745
19086TIP3    H278674   5.281   6.464   3.774  1.6101  0.7848  1.0130
19087TIP3   OH278675   2.086   1.578   2.482  0.0383  0.3532 -0.6213
19087TIP3    H178676   2.054   1.663   2.513  0.8913  0.5797 -0.3552
19087TIP3    H278677   2.025   1.515   2.519  0.9430  0.6317  1.4082
19088TIP3   OH278678   1.324   5.585  15.820 -0.1362  0.0807  0.1606
19088TIP3    H178679   1.232   5.560  15.823 -0.2571  0.0789 -2.3419
19088TIP3    H278680   1.325   5.668  15.771  1.1786  0.1047  0.2062
19089TIP3   OH278681   2.927   3.408   5.159 -0.2899  0.4128  0.0606
19089TIP3    H178682   3.003   3.387   5.105  0.7115  1.2038  1.1483
19089TIP3    H278683   2.903   3.497   5.134  0.3838  0.9104  1.1314
19090TIP3   OH278684   6.246   0.858  11.646  0.2540  0.1009 -0.4576
19090TIP3    H178685   6.265   0.848  11.553  0.5961 -0.1118 -0.3666
19090TIP3    H278686   6.324   0.901  11.682  1.0171 -1.6899  0.0986
19091TIP3   OH278687   1.415   5.404   6.250 -1.0671  0.2062  0.3147
19091TIP3    H178688   1.371   5.372   6.329 -1.7174  1.4968  0.4839
19091TIP3    H278689   1.422   5.499   6.262  0.0523  0.2561 -0.5757
19092TIP3   OH278690   5.142   4.139   6.448  0.6979 -0.2286  0.3526
19092TIP3    H178691   5.118   4.197   6.520  0.5587  0.2717 -0.0887
19092TIP3    H278692   5.067   4.142   6.389  1.4327  0.5593 -0.5495
19093TIP3   OH278693   3.878   5.785  17.119  0.2557 -0.7593  0.3279
19093TIP3    H178694   3.812   5.835  17.168  2.3132  0.8308  1.5933
19093TIP3    H278695   3.837   5.768  17.034 -2.2668 -0.9680  1.5370
19094TIP3   OH278696   4.171   2.926  14.642  0.6658  0.9847  0.6337
19094TIP3    H178697   4.264   2.911  14.625  0.1633 -1.4389 -0.0836
19094TIP3    H278698   4.152   2.874  14.720  0.0588  2.0938  1.2464
19095TIP3   OH278699   3.191   0.650  12.753  0.3861  0.7546  0.0349
19095TIP3    H178700   3.271   0.653  12.700  0.3015  0.4056 -0.1117
19095TIP3    H278701   3.181   0.558  12.777 -0.9416  0.4890 -1.4484
19096TIP3   OH278702   3.648   2.989   2.404 -0.3674 -0.1577 -0.1260
19096TIP3    H178703   3.635   3.081   2.428 -0.0646 -0.4815  1.3291
19096TIP3    H278704   3.560   2.951   2.407 -0.4287 -0.0271 -0.2596
19097TIP3   OH278705   1.887   5.124   2.156  0.2617 -0.3234 -0.0579
19097TIP3    H178706   1.811   5.181   2.163  0.8384  0.4672 -0.1194
19097TIP3    H278707   1.896   5.084   2.242  0.4240  0.4231  0.2713
19098TIP3   OH278708   0.818   3.946  15.270  0.1924 -0.1458  0.4606
19098TIP3    H178709   0.840   3.868  15.319  1.0979  1.7005  3.1102
19098TIP3    H278710   0.897   3.965  15.218  0.4320 -0.2736  0.7801
19099TIP3   OH278711   0.419   3.197   2.531  0.1511 -0.5553 -0.3393
19099TIP3    H178712   0.470   3.132   2.483  1.5912  1.1293 -1.1370
19099TIP3    H278713   0.482   3.266   2.553 -1.5796  1.1280 -0.5306
19100TIP3   OH278714   1.021   3.334  12.357  0.4964 -0.2073  0.0470
19100TIP3    H178715   1.072   3.406  12.393  1.0980  0.3582 -1.8438
19100TIP3    H278716   1.017   3.352  12.263 -2.4811 -0.7074  0.0354
19101TIP3   OH278717   4.933   0.410  17.077 -0.4916 -0.4666  0.0497
19101TIP3    H178718   4.838   0.418  17.084 -0.6517  0.4314 -2.4090
19101TIP3    H278719   4.950   0.419  16.983  2.0553 -0.2364  0.5085
19102TIP3   OH278720   6.026   1.661  12.051  0.4931 -0.5229  0.1393
19102TIP3    H178721   6.059   1.736  12.002 -0.5793 -0.8694 -1.1374
19102TIP3    H278722   6.075   1.586  12.017 -0.0560 -0.7239 -0.2123
19103TIP3   OH278723   3.160   3.787  16.846  0.4753 -0.0443 -0.0854
19103TIP3    H178724   3.160   3.842  16.924 -1.1290 -1.4170  0.9186
19103TIP3    H278725   3.116   3.840  16.780  3.5958  1.9241 -0.7154
19104TIP3   OH278726   2.174   5.822   5.675  0.1839 -0.4588 -0.4455
19104TIP3    H178727   2.121   5.867   5.608  1.7674  0.6899 -0.9597
19104TIP3    H278728   2.154   5.729   5.663 -0.9641 -0.1172 -1.2864
19105TIP3   OH278729   4.380   0.578  11.740 -0.3305  0.5609 -0.5641
19105TIP3    H178730   4.376   0.578  11.835  0.4174  1.5932 -0.5181
19105TIP3    H278731   4.310   0.637  11.712  0.3804  1.4128 -0.5847
19106TIP3   OH278732   4.824   2.975   1.506 -0.3235  0.3294 -0.0681
19106TIP3    H178733   4.833   2.956   1.599 -1.9943 -1.7338 -0.2986
19106TIP3    H278734   4.893   3.038   1.488  0.6474  0.0116  2.3478
19107TIP3   OH278735   1.669   3.313  12.126 -0.4799 -0.8571  0.0397
19107TIP3    H178736   1.716   3.294  12.045  0.9111 -0.1334  0.6529
19107TIP3    H278737   1.692   3.404  12.145  0.4911 -1.4909  2.0623
19108TIP3   OH278738   4.358   1.855   2.596  0.3160  0.4859  0.1612
19108TIP3    H178739   4.427   1.789   2.599 -1.7719 -1.7283  1.8102
19108TIP3    H278740   4.288   1.814   2.545 -0.2620  2.2090 -0.4696
19109TIP3   OH278741   4.253   2.101   3.455 -0.1423 -1.0685  0.4080
19109TIP3    H178742   4.293   2.159   3.520  1.1209 -1.0781 -0.3379
19109TIP3    H278743   4.159   2.115   3.465  0.1481  1.2928  0.0688
19110TIP3   OH278744   6.393   4.293  12.120 -0.2399 -0.5146  0.3321
19110TIP3    H178745   6.429   4.291  12.031 -0.0094  2.5778  0.2953
19110TIP3    H278746   6.298   4.284  12.108 -0.2057 -0.1304 -0.2558
19111TIP3   OH278747   5.829   1.365  14.760  0.0897  0.4328  0.0779
19111TIP3    H178748   5.909   1.377  14.709  0.1625 -0.5316 -0.0567
19111TIP3    H278749   5.763   1.341  14.694 -0.0291  0.0600  0.3347
19112TIP3   OH278750   2.764   1.070  14.806 -0.0731 -0.5344  0.4552
19112TIP3    H178751   2.740   1.053  14.714 -1.3021  2.8687  0.0830
19112TIP3    H278752   2.732   0.993  14.853 -0.7098 -1.6937 -1.7759
19113TIP3   OH278753   4.126   2.271  12.332  0.0301 -0.3219  0.1170
19113TIP3    H178754   4.066   2.213  12.378  0.5357 -0.6372  0.3828
19113TIP3    H278755   4.096   2.359  12.355  1.1405 -0.4676  2.2135
19114TIP3   OH278756   4.231   2.489  11.303 -0.2160  0.3626  0.1550
19114TIP3    H178757   4.285   2.423  11.346  0.2731 -0.8056 -2.1253
19114TIP3    H278758   4.151   2.494  11.355  0.6352 -0.4855  1.5516
19115TIP3   OH278759   5.553   6.438   0.910  0.0950  0.4132  0.5071
19115TIP3    H178760   5.589   6.517   0.952  0.2197  0.6885 -0.1160
19115TIP3    H278761   5.465   6.430   0.948  0.3331  0.4564  1.0852
19116TIP3   OH278762   0.913   1.667   2.537  0.5597 -0.1412 -0.3534
19116TIP3    H178763   0.994   1.616   2.540 -1.0665 -2.9099 -1.2050
19116TIP3    H278764   0.850   1.608   2.495 -2.0833  1.6722  0.9368
19117TIP3   OH278765   3.234   0.895   4.171  0.2958  0.5917 -0.4344
19117TIP3    H178766   3.204   0.808   4.144  1.9674 -0.4221  0.9350
19117TIP3    H278767   3.305   0.915   4.111 -0.3958  1.2308 -1.0491
19118TIP3   OH278768   6.021   2.211  15.108 -0.0144 -0.1138  0.0074
19118TIP3    H178769   6.008   2.170  15.194 -0.6185  0.0026 -0.0278
19118TIP3    H278770   6.115   2.227  15.104 -0.1639  1.2750  1.2979
19119TIP3   OH278771   2.610   4.109  12.984 -0.4566  0.0972  0.0644
19119TIP3    H178772   2.573   4.021  12.996 -2.8904  0.5632 -3.1251
19119TIP3    H278773   2.687   4.095  12.929  0.9172 -0.2798  2.0125
19120TIP3   OH278774   3.550   5.038   3.611 -0.1743 -0.3729  0.7354
19120TIP3    H178775   3.571   5.096   3.538  0.4549 -1.6769 -0.1329
19120TIP3    H278776   3.617   5.056   3.676  0.8575 -1.1214 -0.1044
19121TIP3   OH278777   0.484   6.157  10.656  0.1209 -0.0713  0.3037
19121TIP3    H178778   0.445   6.074  10.683  0.1958  1.2684  4.9960
19121TIP3    H278779   0.424   6.223  10.690  0.6947  1.8457 -2.3047
19122TIP3   OH278780   1.566   0.674   2.591  0.1474 -0.0174 -0.6810
19122TIP3    H178781   1.524   0.728   2.658 -0.3989  0.5940 -1.5246
19122TIP3    H278782   1.563   0.726   2.511  3.0592  0.3125 -0.6342
19123TIP3   OH278783   4.344   2.512   1.284 -0.3595  0.5321  0.2101
19123TIP3    H178784   4.396   2.590   1.265 -0.2674  0.0695 -1.4419
19123TIP3    H278785   4.299   2.534   1.366  0.5207  1.8891  0.3516
19124TIP3   OH278786   6.415   4.622  13.068 -0.3681  0.3060 -0.0867
19124TIP3    H178787   6.361   4.699  13.087 -2.0620 -0.7175 -0.6074
19124TIP3    H278788   6.359   4.548  13.092  1.7922 -0.7617  1.8122
19125TIP3   OH278789   0.419   0.547   1.900  0.2010  0.5117  0.2935
19125TIP3    H178790   0.500   0.597   1.915  0.7652  0.9315 -3.6797
19125TIP3    H278791   0.411   0.542   1.805 -2.4314 -2.8738  0.6038
19126TIP3   OH278792   4.448   6.329   4.389 -0.2874 -0.1926 -0.5553
19126TIP3    H178793   4.382   6.397   4.374 -0.6821 -0.3012  0.6063
19126TIP3    H278794   4.400   6.260   4.434  0.5533 -0.4160 -0.0045
19127TIP3   OH278795   1.266   0.296  16.433 -0.4942 -0.5442 -0.0534
19127TIP3    H178796   1.174   0.317  16.446 -0.2096  0.6084  0.1090
19127TIP3    H278797   1.295   0.354  16.363  0.8445  1.1976  1.8647
19128TIP3   OH278798   4.198   1.353   4.946 -0.0810 -0.0208  0.2971
19128TIP3    H178799   4.284   1.389   4.924 -0.3988 -0.7506 -2.3431
19128TIP3    H278800   4.141   1.429   4.952  0.2161  0.2849 -0.6088
19129TIP3   OH278801   0.858   6.284  15.660 -0.2447  0.4948 -0.2167
19129TIP3    H178802   0.821   6.231  15.731  2.1465 -0.3859  0.4287
19129TIP3    H278803   0.845   6.232  15.581 -0.1020  0.0556  0.0472
19130TIP3   OH278804   4.544   6.478   5.176 -0.0230 -0.3016 -0.0599
19130TIP3    H178805   4.633   6.451   5.154 -0.6970 -2.8763  0.1909
19130TIP3    H278806   4.488   6.411   5.136 -1.8416  1.0632  0.1119
19131TIP3   OH278807   5.490   1.362  15.544 -0.0081 -0.0080  0.0391
19131TIP3    H178808   5.455   1.347  15.632 -0.6388  1.5591  0.0832
19131TIP3    H278809   5.528   1.450  15.548  0.6497 -0.2410 -1.0321
19132TIP3   OH278810   1.931   4.083   1.062 -0.9746  0.3102  0.2067
19132TIP3    H178811   2.011   4.091   1.114 -0.7499 -1.3454  0.1186
19132TIP3    H278812   1.918   4.171   1.026  0.5447  0.7104  0.5868
19133TIP3   OH278813   0.873   6.042   2.984  0.0290  0.2384 -0.1117
19133TIP3    H178814   0.935   6.062   2.914  0.5852 -1.9725 -0.2948
19133TIP3    H278815   0.915   5.973   3.035 -0.9180  0.9200  1.6697
19134TIP3   OH278816   1.155   4.901   4.046  0.1034  0.0740 -0.6002
19134TIP3    H178817   1.233   4.857   4.078  1.1911  1.4600 -1.2835
19134TIP3    H278818   1.186   4.988   4.019 -1.4600  0.2497 -1.9039
19135TIP3   OH278819   4.944   6.387  13.716  0.8467  0.6425  1.0178
19135TIP3    H178820   5.022   6.339  13.688  0.4520  0.4643  0.2202
19135TIP3    H278821   4.933   6.456  13.651 -1.4795 -1.2672 -0.7176
19136TIP3   OH278822   5.526   6.208   5.612  0.3546  0.0200 -0.0937
19136TIP3    H178823   5.460   6.141   5.594  2.2589 -1.7206 -0.7951
19136TIP3    H278824   5.571   6.220   5.528  1.4306  0.6208  0.5547
19137TIP3   OH278825   5.333   3.942   1.778  0.2119  0.4844 -0.2513
19137TIP3    H178826   5.426   3.940   1.754  0.2581  1.4366 -0.1662
19137TIP3    H278827   5.328   4.005   1.849 -0.5446  0.6016 -0.4094
19138TIP3   OH278828   6.563   2.961   3.119 -0.0668 -0.0254 -0.6639
19138TIP3    H178829   6.545   2.870   3.142 -1.9610 -0.0734 -2.1639
19138TIP3    H278830   6.535   2.969   3.028  0.8014  1.8718 -0.7966
19139TIP3   OH278831   6.336   5.334   3.812  0.2656  0.4642  0.3502
19139TIP3    H178832   6.418   5.362   3.771  1.0404  0.1386  1.6336
19139TIP3    H278833   6.343   5.239   3.816  0.9556  0.5767  2.7084
19140TIP3   OH278834   6.762   0.832   3.864 -0.0700  0.1304  0.4509
19140TIP3    H178835   6.720   0.884   3.796 -0.7080  0.8606  1.3875
19140TIP3    H278836   6.775   0.893   3.936  0.1133 -0.7544  1.1802
19141TIP3   OH278837   3.488   3.084  11.565 -0.1412  0.0536  0.0504
19141TIP3    H178838   3.426   3.033  11.513 -0.3861 -0.1379  0.5284
19141TIP3    H278839   3.508   3.028  11.639  1.2179 -0.2089 -0.5047
19142TIP3   OH278840   1.876   6.395   4.929 -0.1333 -0.3908 -0.2146
19142TIP3    H178841   1.885   6.434   5.016  0.4634 -1.2909  0.1327
19142TIP3    H278842   1.863   6.469   4.870  1.6187  0.3639  0.3429
19143TIP3   OH278843   4.948   5.651  15.348  0.4063  0.5271 -0.4374
19143TIP3    H178844   4.879   5.585  15.356 -0.0276  0.8537 -1.3947
19143TIP3    H278845   4.900   5.733  15.337  0.9488  0.8003 -0.7528
19144TIP3   OH278846   1.520   1.845  15.861  0.4300 -0.1744 -0.0814
19144TIP3    H178847   1.541   1.753  15.843 -1.2034 -0.3719 -1.0749
19144TIP3    H278848   1.455   1.868  15.795 -0.7530  1.0759  1.4906
19145TIP3   OH278849   0.995   3.740  16.098  0.2065 -0.2325  0.5104
19145TIP3    H178850   1.075   3.700  16.133 -0.0378 -0.2827  1.0052
19145TIP3    H278851   1.013   3.748  16.004  1.4591  1.3057  0.8618
19146TIP3   OH278852   6.420   5.273   0.478 -0.2467  0.0902 -0.3123
19146TIP3    H178853   6.442   5.297   0.388  4.1082 -3.1929 -0.2799
19146TIP3    H278854   6.356   5.202   0.469 -1.2464  1.0276 -0.7287
19147TIP3   OH278855   2.137   2.612  11.997 -0.5981 -0.2901  0.9705
19147TIP3    H178856   2.183   2.619  12.081 -0.3688  0.5172  0.7843
19147TIP3    H278857   2.201   2.574  11.937  0.0445  1.4256  0.5540
19148TIP3   OH278858   5.274   5.005  15.537 -0.3851 -0.0379  0.3218
19148TIP3    H178859   5.259   4.968  15.624 -1.7713  0.0805  0.1442
19148TIP3    H278860   5.209   5.073  15.528  0.7771  1.0196 -0.2116
19149TIP3   OH278861   5.919   2.633  16.668  0.6033 -0.3192  0.0260
19149TIP3    H178862   6.002   2.584  16.669  1.0537  0.4289  0.2916
19149TIP3    H278863   5.917   2.675  16.582  0.8091  0.1540  0.2440
19150TIP3   OH278864   6.729   4.555   0.210  0.3968  0.7732  0.2075
19150TIP3    H178865   6.675   4.507   0.273  0.9036  0.3132  0.2953
19150TIP3    H278866   6.683   4.544   0.126  0.6902 -0.1582  0.1659
19151TIP3   OH278867   6.676   5.740   3.573  0.7319  0.0838  0.5294
19151TIP3    H178868   6.669   5.792   3.654  2.3287  0.1223  0.6652
19151TIP3    H278869   6.746   5.782   3.524  0.1907 -0.3218 -0.6060
19152TIP3   OH278870   1.225   3.880  12.099  0.0724 -0.1372 -0.0977
19152TIP3    H178871   1.244   3.973  12.090  0.2189 -0.2783 -1.4213
19152TIP3    H278872   1.307   3.841  12.130 -0.2427  0.2838  1.3017
19153TIP3   OH278873   5.868   0.435   3.637 -0.5618 -0.4882  0.4700
19153TIP3    H178874   5.788   0.438   3.584 -0.3500  0.4275  0.1984
19153TIP3    H278875   5.871   0.520   3.680  1.4129  0.3115 -1.2058
19154TIP3   OH278876   0.604   5.667  11.964 -0.4652 -0.2547 -0.2495
19154TIP3    H178877   0.607   5.749  11.915  0.4784 -0.7224 -0.9795
19154TIP3    H278878   0.520   5.628  11.940 -0.3936 -0.0627 -0.8167
19155TIP3   OH278879   6.061   4.298   1.564 -0.1366 -0.4640 -0.4081
19155TIP3    H178880   5.988   4.239   1.543  0.2173 -0.7751 -0.7850
19155TIP3    H278881   6.105   4.311   1.480 -0.6561  0.9441 -0.4707
19156TIP3   OH278882   4.277   6.487   4.763 -0.1560 -0.3145 -0.1273
19156TIP3    H178883   4.303   6.579   4.766 -0.0595 -0.3430 -0.0977
19156TIP3    H278884   4.194   6.484   4.811  0.7715 -0.5656  1.4767
19157TIP3   OH278885   2.689   4.312  15.816  0.3269  0.7602 -0.2734
19157TIP3    H178886   2.672   4.392  15.866 -1.1647  0.0130  0.4349
19157TIP3    H278887   2.622   4.311  15.747 -0.9242 -0.8471  0.9161
19158TIP3   OH278888   4.262   1.053   3.710 -0.7273  0.1775  0.3008
19158TIP3    H178889   4.180   1.049   3.660  0.1007  1.2088 -1.2079
19158TIP3    H278890   4.251   1.128   3.768 -0.5242  0.9050 -0.5726
19159TIP3   OH278891   4.062   3.671   1.954 -0.5271  0.3341 -0.0271
19159TIP3    H178892   4.136   3.620   1.921 -0.7920  0.1136 -0.2799
19159TIP3    H278893   4.051   3.639   2.044  0.4045  1.1750  0.4033
19160TIP3   OH278894   4.393   1.195  13.669  0.0225 -0.0799  0.0173
19160TIP3    H178895   4.413   1.107  13.635  0.4951  1.2956 -3.4412
19160TIP3    H278896   4.297   1.199  13.669 -0.0284 -0.8451  1.0080
19161TIP3   OH278897   1.976   5.500  16.459  0.6591 -0.0984 -0.4529
19161TIP3    H178898   1.943   5.576  16.412 -2.1847  0.3172  2.0884
19161TIP3    H278899   1.933   5.425  16.418 -0.1863  0.0875  0.0818
19162TIP3   OH278900   0.958   1.750  13.286 -0.4933 -0.6748  0.5242
19162TIP3    H178901   1.052   1.745  13.270 -0.7651  1.4933 -2.0227
19162TIP3    H278902   0.950   1.809  13.361  0.0452  1.3025 -0.9619
19163TIP3   OH278903   0.617   3.880   1.312  0.4448  0.4709 -0.1962
19163TIP3    H178904   0.691   3.823   1.291  0.5640  0.8294 -0.7755
19163TIP3    H278905   0.614   3.942   1.239 -1.0999 -0.2225 -0.7431
19164TIP3   OH278906   6.163   1.987   6.349 -0.0303  0.0943 -0.2738
19164TIP3    H178907   6.252   2.022   6.355  0.5516 -1.2038 -1.0924
19164TIP3    H278908   6.174   1.899   6.313 -1.2701 -1.6978  3.4256
19165TIP3   OH278909   3.154   5.906   4.980 -0.0042  0.6954 -0.2294
19165TIP3    H178910   3.085   5.862   4.929  0.5776 -0.6181  0.0903
19165TIP3    H278911   3.114   5.921   5.066  0.2955 -0.6638  0.1686
19166TIP3   OH278912   5.773   1.809  12.319 -0.1632  0.1664 -0.0906
19166TIP3    H178913   5.715   1.879  12.349 -1.5580 -0.4788 -1.1588
19166TIP3    H278914   5.842   1.804  12.384 -1.2365  1.0793  1.1384
19167TIP3   OH278915   6.593   0.816  17.003 -0.2441 -0.0077  0.2400
19167TIP3    H178916   6.632   0.754  17.064  0.6799 -0.6169 -0.9784
19167TIP3    H278917   6.506   0.781  16.986 -1.5559  1.5439  3.2417
19168TIP3   OH278918   1.677   4.441  15.383  0.2330 -0.1077 -0.0828
19168TIP3    H178919   1.636   4.357  15.402  1.5722 -0.9348 -0.7791
19168TIP3    H278920   1.631   4.472  15.304 -1.4086  0.6277  1.1386
19169TIP3   OH278921   1.823   1.633   0.870 -0.1695 -0.4141 -0.6197
19169TIP3    H178922   1.748   1.660   0.923  1.1175 -2.2297  2.2672
19169TIP3    H278923   1.808   1.540   0.851  0.4906 -0.3508 -1.5079
19170TIP3   OH278924   2.789   0.060   0.503  0.3832 -0.6273  0.5847
19170TIP3    H178925   2.694   0.073   0.495  0.6464  1.9823  1.2458
19170TIP3    H278926   2.799   0.009   0.584 -0.3968 -0.0985  1.0235
19171TIP3   OH278927   6.592   4.347  13.503 -0.3561 -0.0902  0.3036
19171TIP3    H178928   6.572   4.282  13.571  1.8912 -2.3605 -1.1004
19171TIP3    H278929   6.515   4.345  13.446 -0.1090 -1.9346 -0.0010
19172TIP3   OH278930   1.569   4.454   6.190 -0.0067  0.4048 -0.0328
19172TIP3    H178931   1.612   4.405   6.260 -0.0391 -0.1348 -0.3907
19172TIP3    H278932   1.631   4.523   6.167  0.6205 -0.2931 -0.4582
19173TIP3   OH278933   5.234   2.420   0.867 -0.7003 -0.2534  0.1236
19173TIP3    H178934   5.283   2.431   0.785 -0.5010  1.2760  0.4292
19173TIP3    H278935   5.184   2.501   0.875 -2.0310 -1.1215  0.6518
19174TIP3   OH278936   5.260   0.307  15.907 -0.4927 -0.3136 -0.1290
19174TIP3    H178937   5.235   0.299  15.815  0.7120 -1.3155 -0.3788
19174TIP3    H278938   5.342   0.258  15.915 -0.6293 -0.3353  1.4947
19175TIP3   OH278939   1.771   2.709  17.029 -0.0052  0.1234  1.0312
19175TIP3    H178940   1.697   2.709  16.968  0.0235 -1.6882  0.9699
19175TIP3    H278941   1.810   2.796  17.020  0.3112 -0.2881 -1.9372
19176TIP3   OH278942   4.861   2.871  13.848 -0.1686 -0.4593  0.1513
19176TIP3    H178943   4.881   2.878  13.941 -0.0403  0.7184  0.0361
19176TIP3    H278944   4.894   2.785  13.823 -0.6499 -0.9931  1.3007
19177TIP3   OH278945   0.657   3.219   1.220 -0.9777  0.1984 -0.5601
19177TIP3    H178946   0.738   3.169   1.213 -1.9252 -1.4801  0.1120
19177TIP3    H278947   0.679   3.295   1.273 -0.4215 -1.5348  1.7575
19178TIP3   OH278948   2.843   0.723  12.352  0.3078  0.0871 -0.2584
19178TIP3    H178949   2.768   0.714  12.411 -0.0304  0.9496 -0.5510
19178TIP3    H278950   2.919   0.723  12.410 -0.0022  0.5348  0.1519
19179TIP3   OH278951   6.715   0.174   1.339  0.6414  0.3131  0.8679
19179TIP3    H178952   6.799   0.213   1.364  1.6302 -0.0321 -1.7573
19179TIP3    H278953   6.731   0.080   1.344  0.8557  0.2375 -0.9514
19180TIP3   OH278954   6.692   1.125  16.174 -0.1073  0.0132 -0.0823
19180TIP3    H178955   6.699   1.029  16.180  0.4728  0.0452 -0.2944
19180TIP3    H278956   6.719   1.156  16.261  1.2314  0.0698 -0.5156
19181TIP3   OH278957   0.190   3.972  16.519  0.1620 -0.1252  0.3007
19181TIP3    H178958   0.271   3.926  16.541 -0.0436 -0.3283  0.6397
19181TIP3    H278959   0.213   4.065  16.522  0.6986 -0.2032 -0.8180
19182TIP3   OH278960   2.839   0.377  13.689  0.8794 -0.3508 -0.7425
19182TIP3    H178961   2.769   0.333  13.738 -1.0754  1.2435 -2.0274
19182TIP3    H278962   2.920   0.345  13.729 -0.6135 -0.8737  1.9754
19183TIP3   OH278963   5.364   5.852   3.972  0.1637  0.5225 -0.1914
19183TIP3    H178964   5.338   5.890   4.056 -0.3974 -0.7902  0.2478
19183TIP3    H278965   5.394   5.926   3.920 -2.0753  1.7283  0.1959
19184TIP3   OH278966   1.745   1.903   3.555  0.2107  0.5759 -0.0319
19184TIP3    H178967   1.705   1.826   3.516 -1.0815  0.5692  1.2685
19184TIP3    H278968   1.834   1.875   3.578 -0.3652 -0.6286  0.7624
19185TIP3   OH278969   6.509   2.785  13.184  0.3249  0.9430  0.3027
19185TIP3    H178970   6.512   2.877  13.160  2.1352  0.2496 -2.3238
19185TIP3    H278971   6.419   2.771  13.215 -0.1358  3.4210  0.1705
19186TIP3   OH278972   1.899   2.879   5.058 -0.4666 -0.2370 -0.0189
19186TIP3    H178973   1.813   2.898   5.096 -0.1667 -0.2248  0.6654
19186TIP3    H278974   1.888   2.893   4.964 -1.0285  0.4388  0.1458
19187TIP3   OH278975   6.418   0.468  12.760 -0.1742 -0.0668 -0.3378
19187TIP3    H178976   6.340   0.478  12.706 -1.6356  0.0355  1.7037
19187TIP3    H278977   6.415   0.544  12.819  0.7142 -0.8135  0.6713
19188TIP3   OH278978   1.329   5.120  16.347  0.0103  0.4217  0.0250
19188TIP3    H178979   1.266   5.081  16.408  1.0063 -0.0725  0.7643
19188TIP3    H278980   1.395   5.159  16.404  0.6288  0.4866 -0.7422
19189TIP3   OH278981   4.378   2.147   0.607 -0.2987  0.0075  0.5926
19189TIP3    H178982   4.360   2.181   0.520  1.1464  0.2849  0.3820
19189TIP3    H278983   4.298   2.162   0.657 -0.3339  1.9815 -0.0451
19190TIP3   OH278984   1.087   2.818   1.108 -0.5084 -0.5745  0.0522
19190TIP3    H178985   1.019   2.813   1.175 -1.7050 -0.3231 -1.1054
19190TIP3    H278986   1.060   2.892   1.053  2.7706  2.0485  1.7687
19191TIP3   OH278987   6.408   3.275   2.878  0.2469  1.0696 -0.2147
19191TIP3    H178988   6.323   3.317   2.884 -0.4733 -0.2588 -0.8852
19191TIP3    H278989   6.389   3.181   2.885  1.6654  0.7696 -0.1763
19192TIP3   OH278990   3.178   4.494   2.763  0.2455 -0.7551 -0.4532
19192TIP3    H178991   3.239   4.543   2.818  0.5412  0.2051 -1.6186
19192TIP3    H278992   3.138   4.431   2.822 -0.6320  1.3209  1.2568
19193TIP3   OH278993   0.921   3.048  14.677 -0.2993  0.5626  0.0485
19193TIP3    H178994   0.882   2.986  14.738 -0.3318  0.2191 -0.3227
19193TIP3    H278995   0.970   3.109  14.732  0.7399 -0.5105  0.3146
19194TIP3   OH278996   0.823   5.363   3.571  0.4838 -0.0772 -0.2981
19194TIP3    H178997   0.799   5.456   3.578  0.2414 -0.2318  1.0400
19194TIP3    H278998   0.915   5.364   3.545  0.4190  0.5400 -0.5127
19195TIP3   OH278999   6.021   3.679  15.731  0.3673 -0.1567  0.0855
19195TIP3    H179000   5.969   3.611  15.688  1.3177 -1.5462  1.1073
19195TIP3    H279001   6.105   3.638  15.748  0.7096  1.0435  1.4038
19196TIP3   OH279002   4.379   0.275  16.738  0.5291 -0.3175  0.4774
19196TIP3    H179003   4.448   0.302  16.798  2.1267 -1.3338 -0.8919
19196TIP3    H279004   4.412   0.196  16.696 -1.4004 -0.7442 -0.3068
19197TIP3   OH279005   5.836   5.630  12.778  0.2545 -0.2143 -0.3396
19197TIP3    H179006   5.876   5.692  12.718 -1.3396  0.3671 -0.8285
19197TIP3    H279007   5.867   5.544  12.747  1.9811  0.2660 -0.0232
19198TIP3   OH279008   1.654   6.265   3.647  0.6222  0.4628 -0.2282
19198TIP3    H179009   1.646   6.342   3.703  0.2262 -0.0588  0.4318
19198TIP3    H279010   1.573   6.265   3.595  0.0974 -0.1601  0.5918
19199TIP3   OH279011   1.917   3.587   0.433  0.3707  1.1299 -0.3615
19199TIP3    H179012   1.860   3.662   0.414  0.0709  0.9937 -0.0217
19199TIP3    H279013   1.949   3.558   0.348  0.7111  1.8202 -0.4690
19200TIP3   OH279014   0.476   6.247   6.786 -0.3585 -0.3652 -0.2968
19200TIP3    H179015   0.451   6.330   6.747 -0.3507 -0.0315  0.3916
19200TIP3    H279016   0.556   6.221   6.740 -1.4245 -0.9534 -1.8348
19201TIP3   OH279017   2.891   3.886  17.007  0.2744  0.5283 -0.2081
19201TIP3    H179018   2.905   3.883  17.102  1.9257  0.7508 -0.4334
19201TIP3    H279019   2.926   3.803  16.975 -0.3893  0.4015 -0.6246
19202TIP3   OH279020   1.386   6.611   3.690  0.4761 -0.2263 -0.0708
19202TIP3    H179021   1.344   6.694   3.664 -0.7709 -0.6489  0.5362
19202TIP3    H279022   1.427   6.580   3.610  1.6177  1.3593 -0.1281
19203TIP3   OH279023   6.181   0.564  11.264 -0.0629  0.2690  0.3959
19203TIP3    H179024   6.217   0.631  11.207 -1.2219 -2.3548 -3.6303
19203TIP3    H279025   6.252   0.501  11.276 -0.9095 -1.0586 -1.2983
19204TIP3   OH279026   5.175   2.205   0.410 -0.0226 -0.0716  0.8848
19204TIP3    H179027   5.244   2.202   0.344 -0.1419  1.2109  0.6816
19204TIP3    H279028   5.093   2.206   0.361 -0.1410 -0.1009  1.0788
19205TIP3   OH279029   6.550   6.532  12.244 -0.2458 -0.2534 -0.4787
19205TIP3    H179030   6.476   6.578  12.206 -0.3987 -0.0991 -0.0039
19205TIP3    H279031   6.562   6.574  12.330  1.0555  0.4393 -0.9834
19206TIP3   OH279032   6.491   5.505   3.096 -0.0208  0.3114 -0.8573
19206TIP3    H179033   6.536   5.421   3.092  1.2051  1.0046 -1.7130
19206TIP3    H279034   6.542   5.556   3.159 -1.2833  0.1188  0.3435
19207TIP3   OH279035   6.548   1.058  16.442 -0.2482  0.1128  0.2071
19207TIP3    H179036   6.484   1.090  16.378 -0.2894  0.2826  0.3321
19207TIP3    H279037   6.500   0.992  16.492 -0.9961  1.7781  1.7341
19208TIP3   OH279038   5.668   4.720   3.999 -0.1505 -0.4406 -0.1544
19208TIP3    H179039   5.684   4.641   4.050  1.4346 -1.5974 -2.3664
19208TIP3    H279040   5.620   4.690   3.922  0.1574  0.7901 -0.8411
19209TIP3   OH279041   3.838   2.590   2.083  0.4888  0.0251  0.1255
19209TIP3    H179042   3.827   2.614   1.992  0.6469  0.5978  0.2579
19209TIP3    H279043   3.773   2.521   2.098 -1.7170  2.1203  0.4280
19210TIP3   OH279044   2.121   3.134   1.986  0.7929  0.0174  0.1463
19210TIP3    H179045   2.127   3.138   2.081 -0.9777 -0.5295  0.3083
19210TIP3    H279046   2.150   3.220   1.956  0.3636  0.5469  1.2338
19211TIP3   OH279047   1.576   5.736  14.582  0.2113 -0.2859  0.0866
19211TIP3    H179048   1.516   5.795  14.536  0.7615  0.0058 -0.2667
19211TIP3    H279049   1.610   5.679  14.513 -1.8888 -2.4063  0.7397
19212TIP3   OH279050   3.231   0.934   4.764  0.4354  0.6932  0.2434
19212TIP3    H179051   3.197   0.993   4.832 -1.8472 -0.0146 -0.2609
19212TIP3    H279052   3.153   0.897   4.723  1.8331 -1.1262 -0.8218
19213TIP3   OH279053   0.577   2.589   3.521  0.2296  0.7825 -0.0542
19213TIP3    H179054   0.497   2.545   3.551  1.2295 -1.1172 -0.1039
19213TIP3    H279055   0.547   2.676   3.493 -1.8120  0.1262 -0.0278
19214TIP3   OH279056   5.651   6.344  16.872 -0.1887  0.5004 -0.5160
19214TIP3    H179057   5.684   6.303  16.792  1.6261  1.8742 -0.4885
19214TIP3    H279058   5.701   6.304  16.943 -2.7205 -1.6914  0.1065
19215TIP3   OH279059   4.128   1.119   2.550 -0.3801 -0.0531 -0.0344
19215TIP3    H179060   4.128   1.184   2.620  0.5115 -0.7057  0.5692
19215TIP3    H279061   4.208   1.136   2.501 -0.2658 -0.5279 -0.0197
19216TIP3   OH279062   0.646   4.462   3.394 -0.7616 -0.2216 -0.2338
19216TIP3    H179063   0.616   4.372   3.392 -1.1278 -0.1391  1.0021
19216TIP3    H279064   0.576   4.510   3.438  0.3843  0.2781  1.0886
19217TIP3   OH279065   1.655   0.391   3.737 -0.8988  0.2467 -0.7480
19217TIP3    H179066   1.568   0.366   3.706 -0.6264  0.7319 -1.9595
19217TIP3    H279067   1.701   0.308   3.749 -1.1222  0.0319 -1.3423
19218TIP3   OH279068   2.740   5.994   5.238  0.3498 -0.1510  0.0834
19218TIP3    H179069   2.710   5.966   5.325  0.4504 -0.5962 -0.0259
19218TIP3    H279070   2.673   5.960   5.178 -0.3452  1.1695  0.0980
19219TIP3   OH279071   2.882   4.115   1.046  0.4636 -0.2689  0.3578
19219TIP3    H179072   2.864   4.047   1.110  2.8121 -0.8461  0.4778
19219TIP3    H279073   2.863   4.075   0.961 -0.4747 -0.2595  0.5619
19220TIP3   OH279074   6.002   6.010   1.142  0.0468 -0.1974 -0.2170
19220TIP3    H179075   6.014   6.077   1.074  1.2366  0.7388  0.8803
19220TIP3    H279076   5.924   6.037   1.189  0.6123  0.5185  0.3215
19221TIP3   OH279077   5.866   5.548  15.526  0.1505  0.3334 -0.4820
19221TIP3    H179078   5.777   5.516  15.537  0.0667  0.3011 -1.1984
19221TIP3    H279079   5.921   5.470  15.534  0.1749  0.4634  0.6908
19222TIP3   OH279080   3.994   3.671  16.734 -0.4562  0.4069 -0.4979
19222TIP3    H179081   3.911   3.675  16.781 -0.5616 -2.0823 -0.4213
19222TIP3    H279082   3.969   3.666  16.642 -0.3886 -0.4333 -0.4675
19223TIP3   OH279083   2.035   2.967   4.819 -0.1787 -0.5942 -0.1266
19223TIP3    H179084   2.108   2.961   4.758 -0.4207  0.5531 -0.5389
19223TIP3    H279085   1.979   3.037   4.784  0.1130  0.6875  1.8600
19224TIP3   OH279086   3.264   3.272  11.084 -0.2034  0.4325 -0.6161
19224TIP3    H179087   3.245   3.320  11.004 -1.8231  0.3158 -0.3223
19224TIP3    H279088   3.199   3.303  11.147  0.3688 -0.2582  0.3368
19225TIP3   OH279089   5.974   6.620  10.356  0.5915 -0.3219 -0.1620
19225TIP3    H179090   6.042   6.553  10.346 -0.1531 -1.0938 -0.0952
19225TIP3    H279091   5.892   6.571  10.362  0.3277  0.4165  3.1567
19226TIP3   OH279092   6.420   2.745   2.391 -0.1958  0.4862  0.9572
19226TIP3    H179093   6.446   2.837   2.393  2.2716 -0.1328 -0.2018
19226TIP3    H279094   6.502   2.697   2.378 -1.6739 -1.7445 -0.5631
19227TIP3   OH279095   0.482   1.062  13.718  0.5856 -0.2319  0.0896
19227TIP3    H179096   0.393   1.095  13.727  0.3115 -0.9917  0.1806
19227TIP3    H279097   0.490   1.037  13.626  0.0835 -1.9035  0.4717
19228TIP3   OH279098   1.634   0.562  15.748 -0.2114 -0.2618 -0.0475
19228TIP3    H179099   1.542   0.535  15.744  0.4306 -2.6079  0.4548
19228TIP3    H279100   1.660   0.542  15.838  0.8780  0.0925 -0.2875
19229TIP3   OH279101   4.691   3.430   5.703 -0.4082 -0.0730  0.0499
19229TIP3    H179102   4.780   3.399   5.720 -0.7913 -1.8700 -1.0278
19229TIP3    H279103   4.635   3.362   5.741 -1.3257  1.1873  0.9776
19230TIP3   OH279104   1.059   1.286  11.199  0.0066 -0.0718  0.4018
19230TIP3    H179105   1.058   1.209  11.143 -0.0894 -1.0366  1.6873
19230TIP3    H279106   0.996   1.346  11.160  0.3826 -0.4849 -0.8350
19231TIP3   OH279107   1.608   1.982   4.083  0.1570  0.5927 -0.0576
19231TIP3    H179108   1.574   1.910   4.031 -1.5883  2.4897 -1.6499
19231TIP3    H279109   1.532   2.016   4.130  0.9865  1.2390  0.8291
19232TIP3   OH279110   3.972   4.368  13.685  0.1143  0.6534  0.1563
19232TIP3    H179111   3.939   4.423  13.756 -1.1534 -1.5074  1.2965
19232TIP3    H279112   3.940   4.280  13.706 -0.0661 -0.0849 -2.9421
19233TIP3   OH279113   1.074   0.019   0.171  0.1446  0.2702  0.2473
19233TIP3    H179114   1.108   0.010   0.259  2.0474 -0.5597 -0.5460
19233TIP3    H279115   1.047   0.111   0.165 -1.3870 -0.0400  2.1463
19234TIP3   OH279116   5.667   1.863   1.199 -0.0176  0.4616 -0.1330
19234TIP3    H179117   5.644   1.947   1.238 -0.4861  0.8329 -1.1906
19234TIP3    H279118   5.605   1.852   1.127  0.4023 -0.5240 -0.3519
19235TIP3   OH279119   6.160   3.123   1.039  0.2737 -0.8464 -0.2733
19235TIP3    H179120   6.191   3.197   0.987  0.7501 -0.4180  0.6071
19235TIP3    H279121   6.214   3.126   1.118 -2.5055  0.3506  1.6409
19236TIP3   OH279122   2.182   2.321  11.621 -1.0156  0.3075  0.3754
19236TIP3    H179123   2.106   2.263  11.629 -1.2763  0.4266 -1.2513
19236TIP3    H279124   2.247   2.268  11.574 -0.3279  0.4495  1.1540
19237TIP3   OH279125   0.723   1.626  10.948 -0.3072 -0.0740 -0.2395
19237TIP3    H179126   0.714   1.685  11.023  0.4000  0.3802 -0.4971
19237TIP3    H279127   0.748   1.542  10.986 -2.7883 -0.6270  0.2475
19238TIP3   OH279128   2.333   6.108  17.171  0.7885 -0.1142 -0.8837
19238TIP3    H179129   2.286   6.074  17.248 -0.1466  1.4038 -0.7741
19238TIP3    H279130   2.288   6.067  17.097  0.8916 -0.6129 -0.6753
19239TIP3   OH279131   2.249   3.051   2.502  0.1563 -0.2444 -0.4881
19239TIP3    H179132   2.258   3.030   2.595 -0.3607  0.3782 -0.2861
19239TIP3    H279133   2.322   3.007   2.459  1.3391  0.7746  0.4368
19240TIP3   OH279134   4.979   2.318   2.091  0.2412  0.7448  0.3335
19240TIP3    H179135   4.934   2.309   2.176 -0.3514  0.0102 -0.0552
19240TIP3    H279136   4.972   2.231   2.051  0.5171  1.0923 -0.4726
19241TIP3   OH279137   5.634   0.515   4.812 -0.0600  0.1971 -0.6313
19241TIP3    H179138   5.567   0.571   4.850 -0.2096  0.2448 -0.9619
19241TIP3    H279139   5.651   0.553   4.726 -1.1018 -1.0113 -1.4065
19242TIP3   OH279140   2.848   6.529  16.979  0.5425 -0.2813  0.1706
19242TIP3    H179141   2.852   6.440  16.945 -2.1744 -0.1973 -0.4994
19242TIP3    H279142   2.771   6.529  17.037 -0.2634  1.9362 -0.8441
19243TIP3   OH279143   6.002   1.139  12.805  0.1335 -0.4045 -0.1268
19243TIP3    H179144   6.041   1.101  12.884  0.6168  0.5898  0.1282
19243TIP3    H279145   6.021   1.076  12.736  1.4872 -0.3372  0.1637
19244TIP3   OH279146   1.462   4.381   4.664 -0.0009  0.1847 -0.1090
19244TIP3    H179147   1.448   4.455   4.605 -0.2469 -1.3355 -1.9986
19244TIP3    H279148   1.410   4.402   4.741 -0.8664  1.5051 -1.0286
19245TIP3   OH279149   5.857   3.086  16.746  0.3015  0.2792 -0.0092
19245TIP3    H179150   5.840   3.140  16.823  1.5251 -1.5035  1.5481
19245TIP3    H279151   5.948   3.104  16.723  0.2793 -0.0402 -0.3663
19246TIP3   OH279152   0.577   0.591   4.570  0.2698  0.3532  0.1388
19246TIP3    H179153   0.661   0.559   4.602 -0.6583 -1.9095  0.4382
19246TIP3    H279154   0.578   0.569   4.476 -0.2934 -0.3873  0.3035
19247TIP3   OH279155   3.373   4.088   4.680  0.2404 -0.4645 -0.4287
19247TIP3    H179156   3.408   4.035   4.609  0.3321  0.0118 -0.7453
19247TIP3    H279157   3.313   4.149   4.637  1.3512  0.7543 -0.2965
19248TIP3   OH279158   6.449   0.487   2.196 -0.3152  0.4176 -0.0051
19248TIP3    H179159   6.386   0.533   2.252 -0.1954  2.2978 -1.3559
19248TIP3    H279160   6.474   0.552   2.130  2.1788 -0.6525 -0.1757
19249TIP3   OH279161   2.784   1.517  11.673  0.2562 -0.7329 -0.2633
19249TIP3    H179162   2.841   1.500  11.597 -0.4660  0.6245 -1.1297
19249TIP3    H279163   2.695   1.506  11.640 -0.0775  0.2612  0.2827
19250TIP3   OH279164   6.189   2.748  15.226 -0.6385  0.4905  0.3857
19250TIP3    H179165   6.255   2.802  15.269  1.3519 -1.5819  0.0428
19250TIP3    H279166   6.176   2.675  15.286 -1.2581 -0.0471 -0.4007
19251TIP3   OH279167   0.894   0.819  11.757 -0.2192 -0.1672  0.5347
19251TIP3    H179168   0.902   0.891  11.694  0.5613  0.5733  1.4742
19251TIP3    H279169   0.923   0.742  11.708 -1.6444  0.0279 -0.6692
19252TIP3   OH279170   3.327   4.575  14.067  0.4522 -0.4822  0.5961
19252TIP3    H179171   3.238   4.571  14.102  0.7005 -0.9349  1.1763
19252TIP3    H279172   3.318   4.554  13.974 -0.0106 -0.8108  0.7179
19253TIP3   OH279173   4.693   1.170  14.984 -0.3028 -0.1977 -0.0777
19253TIP3    H179174   4.612   1.190  14.937 -0.0152  0.0308 -0.4774
19253TIP3    H279175   4.762   1.211  14.933 -0.1561  1.5995  1.5159
19254TIP3   OH279176   5.571   1.679   1.402  0.0503  0.1688 -0.4537
19254TIP3    H179177   5.655   1.633   1.404  1.4403  2.6078  2.0862
19254TIP3    H279178   5.590   1.762   1.358 -0.3560  1.7345  2.1532
19255TIP3   OH279179   0.507   6.630   1.215  0.8594  0.1139  0.4752
19255TIP3    H179180   0.465   6.715   1.228  2.4446  1.0258 -0.1607
19255TIP3    H279181   0.484   6.579   1.293 -1.5543  0.5020  0.0460
19256TIP3   OH279182   2.891   2.799   6.471  0.5049  0.6309  0.1659
19256TIP3    H179183   2.827   2.772   6.405 -0.3539  3.8416 -0.4172
19256TIP3    H279184   2.924   2.717   6.508 -3.0795 -1.1450 -0.3566
19257TIP3   OH279185   5.813   0.802  12.498  0.0186 -0.0154 -0.3203
19257TIP3    H179186   5.815   0.724  12.553  1.3735 -0.3693 -0.8411
19257TIP3    H279187   5.732   0.795  12.448  0.1311 -1.0833 -0.3562
19258TIP3   OH279188   3.202   5.968   3.973  0.0588 -0.1096 -0.0952
19258TIP3    H179189   3.296   5.965   3.955 -0.1204 -0.9873 -0.9501
19258TIP3    H279190   3.168   6.036   3.914 -0.1345 -1.1921 -1.2618
19259TIP3   OH279191   5.732   4.154  16.111  0.0024 -0.4484  0.7470
19259TIP3    H179192   5.706   4.193  16.195  0.3764  1.3618  0.0493
19259TIP3    H279193   5.649   4.144  16.063  0.0825  1.3696  0.1736
19260TIP3   OH279194   5.841   6.701  11.806 -0.0385  0.2358  0.5779
19260TIP3    H179195   5.839   6.740  11.719  1.4366 -2.0199 -0.5161
19260TIP3    H279196   5.749   6.691  11.830 -0.4623  0.7977 -0.7638
19261TIP3   OH279197   1.106   0.206   1.263 -0.5107  0.2420  0.3249
19261TIP3    H179198   1.119   0.123   1.308  0.0208 -0.1627 -0.5653
19261TIP3    H279199   1.192   0.228   1.227 -0.6035  1.2712  0.7058
19262TIP3   OH279200   3.188   3.011   5.490 -0.4011  0.2010 -0.3572
19262TIP3    H179201   3.154   3.040   5.406  0.3796  1.0671 -0.3753
19262TIP3    H279202   3.231   3.088   5.527 -3.0071  0.6148  2.0371
19263TIP3   OH279203   1.516   6.664  12.811  0.4851 -0.3788  0.2089
19263TIP3    H179204   1.496   6.745  12.764  0.8264  0.2588  1.1510
19263TIP3    H279205   1.612   6.664  12.817  0.4793 -0.8161  0.2584
19264TIP3   OH279206   1.788   2.107  16.241 -0.3327  0.1318 -0.0122
19264TIP3    H179207   1.815   2.199  16.245  0.9527 -0.2548  0.3589
19264TIP3    H279208   1.807   2.073  16.328  1.9234 -1.2196 -0.9941
19265TIP3   OH279209   6.163   5.901   5.152  0.0405  0.6475  0.5992
19265TIP3    H179210   6.243   5.849   5.153 -1.3660 -1.7394 -1.9379
19265TIP3    H279211   6.140   5.912   5.244  2.1297 -0.4915  1.2660
19266TIP3   OH279212   2.023   1.518   3.517  0.4185 -0.0064 -1.0354
19266TIP3    H179213   2.049   1.557   3.433  0.6667  0.7771 -0.5928
19266TIP3    H279214   2.087   1.447   3.530 -0.0044 -0.5399 -1.8125
19267TIP3   OH279215   4.337   4.478  11.767 -0.1199  0.2473 -0.5128
19267TIP3    H179216   4.425   4.443  11.751 -0.5604 -1.5402  0.7269
19267TIP3    H279217   4.279   4.420  11.718 -0.9979 -1.8690  2.8089
19268TIP3   OH279218   6.211   5.796   3.522  0.1446 -0.0658 -0.4099
19268TIP3    H179219   6.204   5.884   3.485 -0.2275  0.8502  1.7411
19268TIP3    H279220   6.121   5.770   3.539  0.3785  0.1998  1.3209
19269TIP3   OH279221   3.541   6.637   6.480  0.2089 -0.5836  0.1553
19269TIP3    H179222   3.543   6.599   6.567  0.4810 -1.2215 -0.1205
19269TIP3    H279223   3.608   6.705   6.482  0.4417 -0.8174  0.3479
19270TIP3   OH279224   3.950   1.974   5.202  0.2274 -0.1046 -0.5037
19270TIP3    H179225   3.914   1.991   5.289  2.2313  0.7835  0.1787
19270TIP3    H279226   3.883   2.005   5.141 -0.3512  1.0899  0.7296
19271TIP3   OH279227   6.096   1.049  15.023  0.4163  0.0712  0.1673
19271TIP3    H179228   6.008   1.017  15.004  0.6205 -1.2281  1.3434
19271TIP3    H279229   6.155   0.983  14.987  0.9400  1.1583 -1.0260
19272TIP3   OH279230   5.248   1.440   4.216  0.1216  0.5122  0.1724
19272TIP3    H179231   5.172   1.383   4.204  0.5334  0.2539 -1.1971
19272TIP3    H279232   5.223   1.497   4.289 -0.7007 -0.7129  0.8602
19273TIP3   OH279233   6.459   5.174   0.146  0.2560 -0.3717  0.2196
19273TIP3    H179234   6.364   5.173   0.154  0.3761 -1.6601  1.7233
19273TIP3    H279235   6.479   5.098   0.092  0.4454 -0.1782  0.0161
19274TIP3   OH279236   5.430   1.206  16.568  0.1247 -0.5218  0.1574
19274TIP3    H179237   5.524   1.209  16.587  0.2288  0.9096 -0.5136
19274TIP3    H279238   5.394   1.280  16.617 -0.2636  0.4997 -1.6326
19275TIP3   OH279239   3.571   3.215  13.927 -0.2102  0.1559 -0.0067
19275TIP3    H179240   3.525   3.299  13.928 -1.7495 -0.6682  1.2091
19275TIP3    H279241   3.584   3.194  14.019  0.6842 -0.6840 -0.3116
19276TIP3   OH279242   1.047   6.429   5.349 -0.3553 -0.6250 -0.2435
19276TIP3    H179243   0.954   6.452   5.351 -0.4598 -1.0686  1.5200
19276TIP3    H279244   1.090   6.496   5.402  0.2617 -0.6941 -0.6502
19277TIP3   OH279245   1.722   6.780  16.632  0.0095  0.2974  0.0128
19277TIP3    H179246   1.663   6.838  16.583  2.7860  1.5119 -1.9857
19277TIP3    H279247   1.743   6.710  16.570 -0.1345 -0.7030  1.0854
19278TIP3   OH279248   4.355   6.211  10.760  0.7227  0.4731  0.1083
19278TIP3    H179249   4.387   6.234  10.847  0.8031 -1.6764  0.6724
19278TIP3    H279250   4.265   6.181  10.775  0.8499 -0.2252 -0.4825
19279TIP3   OH279251   5.336   2.652   1.913 -0.1652  0.3296 -0.1250
19279TIP3    H179252   5.427   2.677   1.900 -0.4646  1.0132 -0.9936
19279TIP3    H279253   5.333   2.616   2.001  0.9587  0.2306 -0.1200
19280TIP3   OH279254   6.674   4.015  12.416  0.5448  0.3977  0.0496
19280TIP3    H179255   6.750   4.067  12.445 -1.6003  2.7063  1.8736
19280TIP3    H279256   6.644   3.972  12.496 -0.3271 -0.1155 -0.5565
19281TIP3   OH279257   6.043   2.391  15.794  0.3304 -0.1159 -0.5541
19281TIP3    H179258   6.008   2.306  15.764 -1.1152  0.2792 -0.0361
19281TIP3    H279259   6.138   2.381  15.787  0.1496 -1.4056 -1.5327
19282TIP3   OH279260   5.846   3.287  10.529  0.6937  0.5076 -0.2044
19282TIP3    H179261   5.910   3.218  10.548 -0.6413 -0.3839  1.1605
19282TIP3    H279262   5.899   3.366  10.520  2.2776 -0.6869 -1.9701
19283TIP3   OH279263   6.731   2.831  16.186  0.2660 -0.0047  0.0581
19283TIP3    H179264   6.768   2.894  16.248  0.6277  0.1121 -0.2730
19283TIP3    H279265   6.803   2.811  16.126  0.1759 -0.8141  0.2240
19284TIP3   OH279266   6.370   0.533   0.905  0.4709 -0.0393  0.2146
19284TIP3    H179267   6.403   0.452   0.865  0.1166 -0.5751  1.0019
19284TIP3    H279268   6.384   0.600   0.838  1.4601 -0.6057 -0.1559
19285TIP3   OH279269   2.296   6.700  16.704  0.3519  0.4333 -0.2333
19285TIP3    H179270   2.385   6.733  16.719 -0.3591  1.6496  1.5493
19285TIP3    H279271   2.267   6.743  16.624  1.2343  0.3098 -0.6196
19286TIP3   OH279272   0.049   5.160   1.130 -0.5379  0.2121 -0.1859
19286TIP3    H179273   0.087   5.206   1.055 -0.7402  0.4581 -0.1374
19286TIP3    H279274   0.017   5.077   1.093  0.9488 -0.4376 -0.0340
19287TIP3   OH279275   6.762   0.780  15.102 -0.0891 -0.0297  0.1578
19287TIP3    H179276   6.729   0.704  15.054 -0.3087 -0.6705  1.2922
19287TIP3    H279277   6.854   0.787  15.075  0.2001 -1.2901  0.7382
19288TIP3   OH279278   2.287   4.001  11.706  0.3212 -0.2074  0.0647
19288TIP3    H179279   2.270   3.916  11.667 -2.1856  0.1377  0.2928
19288TIP3    H279280   2.252   3.993  11.796  1.5623  0.5293  0.6179
19289TIP3   OH279281   3.087   1.215  16.489 -0.3481 -0.1570 -0.3677
19289TIP3    H179282   3.113   1.263  16.568 -0.9332  1.5548 -1.2005
19289TIP3    H279283   3.030   1.145  16.521 -0.0788  0.1449  0.7917
19290TIP3   OH279284   5.436   6.049   1.595  0.6002  0.6852  0.2351
19290TIP3    H179285   5.384   6.094   1.662  0.0038  0.3058  0.0379
19290TIP3    H279286   5.373   5.993   1.551  0.8774  1.3184 -0.9850
19291TIP3   OH279287   0.017   5.450  11.036 -0.0609  0.1256  0.2091
19291TIP3    H179288  -0.064   5.401  11.049 -0.2206 -0.5692 -3.0330
19291TIP3    H279289   0.066   5.398  10.972  0.0651  3.8235 -2.8561
19292TIP3   OH279290   1.271   6.600   5.436  0.1486 -0.2231 -0.3483
19292TIP3    H179291   1.297   6.685   5.471 -0.0045  0.5297 -2.0438
19292TIP3    H279292   1.344   6.574   5.380  0.1032 -1.1137 -0.0021
19293TIP3   OH279293   4.028   1.016   2.886  0.2486  0.9333 -0.5454
19293TIP3    H179294   3.995   0.973   2.807  1.2799 -0.9360  0.0259
19293TIP3    H279295   4.066   1.098   2.854  0.7272  0.1704 -2.0051
19294TIP3   OH279296   2.954   2.420   6.216  0.2784 -0.1687  0.2010
19294TIP3    H179297   2.996   2.342   6.181 -0.8375 -0.6896  0.0180
19294TIP3    H279298   3.026   2.470   6.254  1.1219 -0.8598 -0.4632
19295TIP3   OH279299   5.375   5.762   4.295  0.0870 -0.2682 -0.4801
19295TIP3    H179300   5.293   5.741   4.341  0.5011 -0.6082  0.1190
19295TIP3    H279301   5.384   5.856   4.304 -1.2228  0.0474 -2.2208
19296TIP3   OH279302   6.134   4.543   3.753  0.0189 -0.2254  0.2377
19296TIP3    H179303   6.115   4.621   3.804 -0.1455  0.4449 -0.8250
19296TIP3    H279304   6.068   4.479   3.782 -0.3792  0.3029  0.5051
19297TIP3   OH279305   1.102   3.024   1.811  0.1711 -0.1438 -0.7337
19297TIP3    H179306   1.025   2.976   1.782 -0.6859  0.1290  0.9941
19297TIP3    H279307   1.120   2.989   1.899  2.6155 -0.9173 -1.5102
19298TIP3   OH279308   3.139   3.364  11.285  0.7203  0.2736 -0.0172
19298TIP3    H179309   3.189   3.342  11.364 -0.0672 -1.2269  0.0634
19298TIP3    H279310   3.064   3.413  11.318  0.8770  0.4525  0.0775
19299TIP3   OH279311   4.575   4.353  11.681  0.1620 -0.4961  0.3441
19299TIP3    H179312   4.610   4.419  11.622 -4.0898  1.3734 -0.2847
19299TIP3    H279313   4.575   4.272  11.629 -1.4707  0.6563 -1.5437
19300TIP3   OH279314   5.088   4.687   0.288 -0.3022 -0.3402 -0.4288
19300TIP3    H179315   5.019   4.648   0.341 -1.4346  1.0050 -0.8679
19300TIP3    H279316   5.042   4.752   0.234  1.7133  2.7223  1.4095
19301TIP3   OH279317   1.293   2.609  15.318  0.2749 -0.2048  0.5542
19301TIP3    H179318   1.236   2.559  15.260 -0.3850 -0.1189  1.1225
19301TIP3    H279319   1.371   2.554  15.328 -0.0626 -0.7053  0.4412
19302TIP3   OH279320   5.038   6.622   3.687 -0.3270 -0.3520 -0.0053
19302TIP3    H179321   4.952   6.639   3.725  0.2433  1.4818  0.5481
19302TIP3    H279322   5.096   6.608   3.762 -0.0236 -0.9221 -0.3445
19303TIP3   OH279323   3.148   5.226  11.834  0.2049 -0.0689  0.7216
19303TIP3    H179324   3.095   5.306  11.844  0.2736  0.2047 -0.8992
19303TIP3    H279325   3.235   5.251  11.864  0.2088  0.4579  0.2792
19304TIP3   OH279326   2.711   4.299  12.474  0.2257  0.3043  0.4603
19304TIP3    H179327   2.658   4.240  12.420  1.2463 -0.8795  0.7229
19304TIP3    H279328   2.791   4.313  12.423  0.6724  0.1640  1.1141
19305TIP3   OH279329   0.709   1.130   3.692 -0.2273  0.3745 -0.1229
19305TIP3    H179330   0.667   1.201   3.740  1.1001  1.8663 -1.1156
19305TIP3    H279331   0.639   1.092   3.639 -1.3861 -0.3735  1.9139
19306TIP3   OH279332   1.636   2.512   1.483  0.0451  1.0980 -0.3607
19306TIP3    H179333   1.669   2.592   1.444 -1.9237  1.8637 -0.5426
19306TIP3    H279334   1.574   2.542   1.550  0.1927 -0.2498  0.3942
19307TIP3   OH279335   2.094   4.792  12.689  0.5094 -0.4590  0.0111
19307TIP3    H179336   2.091   4.765  12.781  0.0115  0.8536  0.3899
19307TIP3    H279337   2.017   4.750  12.649  0.5132 -0.7191  0.2712
19308TIP3   OH279338   2.746   4.099   3.322  0.1478  0.2534 -0.2549
19308TIP3    H179339   2.733   4.086   3.228  1.1271 -1.3571 -0.1881
19308TIP3    H279340   2.780   4.188   3.329 -0.9646  0.7723 -1.3255
19309TIP3   OH279341   2.999   2.311   2.192 -0.1954  0.4160 -0.2054
19309TIP3    H179342   2.976   2.298   2.100  0.2035  0.5717 -0.3284
19309TIP3    H279343   2.970   2.232   2.236 -0.1480  0.2288 -0.5105
19310TIP3   OH279344   6.683   2.515  16.983  0.0982 -0.8409 -0.5859
19310TIP3    H179345   6.620   2.522  16.912  0.9618  0.8876 -1.2220
19310TIP3    H279346   6.759   2.565  16.952  0.3953  0.1352  1.6280
19311TIP3   OH279347   1.355   1.950  11.980  0.1205  0.3726  0.0248
19311TIP3    H179348   1.297   1.874  11.991 -1.0815  1.3928  0.8678
19311TIP3    H279349   1.410   1.949  12.058  1.5299 -0.8166 -0.9559
19312TIP3   OH279350   4.863   5.457   5.299  0.3799 -0.6791  0.1208
19312TIP3    H179351   4.836   5.386   5.358 -0.4050  0.1804  0.8170
19312TIP3    H279352   4.816   5.533   5.331  0.3243 -0.0908 -1.3429
19313TIP3   OH279353   4.436   5.920   5.250 -0.4948  0.1033 -0.0074
19313TIP3    H179354   4.423   5.934   5.156  0.2743  1.2024  0.0386
19313TIP3    H279355   4.526   5.949   5.266  1.0280 -4.3894  0.2398
19314TIP3   OH279356   3.728   2.637   1.827 -0.2875 -0.3288 -0.0601
19314TIP3    H179357   3.661   2.638   1.759 -1.1415  0.6298  0.7993
19314TIP3    H279358   3.801   2.588   1.787 -1.0501 -0.3992 -1.3974
19315TIP3   OH279359   2.238   2.807  15.500  0.2923 -0.5357 -0.8079
19315TIP3    H179360   2.157   2.784  15.454 -0.8216 -0.4987  1.0816
19315TIP3    H279361   2.257   2.731  15.555  0.7864  0.0136 -0.2152
19316TIP3   OH279362   3.632   0.188   1.965  0.0296 -0.5975 -0.2268
19316TIP3    H179363   3.611   0.214   1.875  0.9949  0.9649 -0.0139
19316TIP3    H279364   3.570   0.118   1.984 -0.4518 -0.6756 -1.9728
19317TIP3   OH279365   2.731   3.566   1.549 -0.5591  0.0027 -0.3432
19317TIP3    H179366   2.804   3.521   1.506  0.1057 -0.4537  1.2200
19317TIP3    H279367   2.674   3.496   1.579 -0.8050  0.3029 -0.1024
19318TIP3   OH279368   3.062   4.037  12.316 -0.1510 -0.0321 -0.2823
19318TIP3    H179369   3.146   4.067  12.352 -1.6322  2.5979  1.1413
19318TIP3    H279370   3.014   4.005  12.393  0.3687 -3.7831 -1.4106
19319TIP3   OH279371   2.302   4.048   2.517  0.3843 -0.1792  0.0068
19319TIP3    H179372   2.377   3.990   2.504 -0.3833 -1.3681  0.8097
19319TIP3    H279373   2.228   4.001   2.478 -0.2445  0.2817  0.6331
19320TIP3   OH279374   3.067   6.673  16.012  0.9218 -0.0785  0.1166
19320TIP3    H179375   3.014   6.751  16.027  2.5261  0.9644  0.4529
19320TIP3    H279376   3.005   6.608  15.978 -0.5801  1.0757  0.5911
19321TIP3   OH279377   5.619   6.154  14.427  0.4012  0.1690  0.6329
19321TIP3    H179378   5.551   6.104  14.473 -1.0705  0.1619 -1.4709
19321TIP3    H279379   5.696   6.099  14.430 -0.8035 -1.6071 -0.4291
19322TIP3   OH279380   4.624   2.054  10.776 -0.2736 -0.2481  0.1734
19322TIP3    H179381   4.674   2.111  10.834  1.7666 -1.1602 -0.6273
19322TIP3    H279382   4.533   2.067  10.802  0.4881  0.2923  2.7318
19323TIP3   OH279383   5.301   2.198  13.867 -0.8092 -0.5868 -0.2072
19323TIP3    H179384   5.214   2.207  13.906 -0.6626  0.3908 -0.0927
19323TIP3    H279385   5.360   2.189  13.942 -0.7533 -0.7126 -0.2671
19324TIP3   OH279386   4.690   5.351   2.696  0.0408 -0.1133  0.4664
19324TIP3    H179387   4.684   5.334   2.790  0.3152  0.6015  0.6147
19324TIP3    H279388   4.635   5.428   2.682  1.1167  0.6293  0.2771
19325TIP3   OH279389   4.758   4.370  16.043 -0.0792  0.0054 -0.0558
19325TIP3    H179390   4.839   4.331  16.077  1.2022  1.1453 -1.6600
19325TIP3    H279391   4.756   4.458  16.081 -0.7092 -0.1250  0.2069
19326TIP3   OH279392   0.575   2.664   5.671  0.4227 -0.2493  0.4886
19326TIP3    H179393   0.520   2.699   5.601  1.7549  1.1742  0.1273
19326TIP3    H279394   0.538   2.702   5.751  1.7026  1.8473  0.1226
19327TIP3   OH279395   2.571   0.685  16.129 -0.2816 -0.0966 -0.3901
19327TIP3    H179396   2.583   0.590  16.119 -0.9734 -0.4991  2.2102
19327TIP3    H279397   2.479   0.694  16.153  0.1839  1.0893  0.9759
19328TIP3   OH279398   1.469   1.356   6.102 -0.5692 -0.1600  0.0064
19328TIP3    H179399   1.549   1.321   6.062  0.1410  0.3281  0.9815
19328TIP3    H279400   1.497   1.439   6.141 -1.6465  0.2025 -0.0007
19329TIP3   OH279401   5.705   2.749   0.316 -0.2873  0.3471 -0.4652
19329TIP3    H179402   5.670   2.792   0.395 -0.6551 -0.9635  0.0907
19329TIP3    H279403   5.684   2.657   0.328 -0.0628  0.1015 -1.9692
19330TIP3   OH279404   3.388   5.450   4.788 -0.4444  0.2283 -0.5811
19330TIP3    H179405   3.397   5.367   4.836 -2.0608 -0.8241 -2.0052
19330TIP3    H279406   3.453   5.508   4.826  2.6685 -2.5823 -1.4198
19331TIP3   OH279407   4.018   1.698  17.039 -0.0338  0.3387 -0.2277
19331TIP3    H179408   3.973   1.638  16.980 -0.0393 -1.1972  1.2865
19331TIP3    H279409   3.947   1.735  17.092  0.0075  1.4451 -0.9375
19332TIP3   OH279410   4.571   1.109   0.244 -0.1584 -0.0682  0.8470
19332TIP3    H179411   4.543   1.199   0.226  1.3195  0.3250  0.4436
19332TIP3    H279412   4.584   1.106   0.339 -0.8068 -0.0407  0.9394
19333TIP3   OH279413   2.144   5.595   3.675  0.6793 -0.1716  0.3349
19333TIP3    H179414   2.146   5.501   3.691  2.1210 -0.2406 -0.1881
19333TIP3    H279415   2.160   5.635   3.761  0.3361 -0.4081  0.5074
19334TIP3   OH279416   4.589   5.288  13.489  0.4820 -0.1209  0.2173
19334TIP3    H179417   4.656   5.234  13.447  0.0596  1.1769 -2.1819
19334TIP3    H279418   4.512   5.231  13.494  0.1605  0.0930 -1.9448
19335TIP3   OH279419   0.585   1.601   1.577  0.7202  0.1047  0.2100
19335TIP3    H179420   0.602   1.508   1.561 -0.1517 -0.0835  0.3384
19335TIP3    H279421   0.508   1.620   1.524  1.1203  0.8558 -0.1141
19336TIP3   OH279422   4.530   5.216  16.157  0.1725 -0.3866  0.3295
19336TIP3    H179423   4.523   5.260  16.072 -0.0995 -2.3051 -0.6627
19336TIP3    H279424   4.552   5.286  16.218  0.8351  0.9490 -1.3979
19337TIP3   OH279425   1.818   0.080  13.786 -0.1508 -0.1122 -0.6585
19337TIP3    H179426   1.751   0.069  13.853 -1.4885  0.6070 -1.8358
19337TIP3    H279427   1.864   0.160  13.811 -0.6179  0.1302 -0.5731
19338TIP3   OH279428   3.280   3.638  16.410  0.8421  0.4186 -0.0185
19338TIP3    H179429   3.314   3.574  16.472 -1.8198 -0.3625  0.7043
19338TIP3    H279430   3.247   3.585  16.337  0.2693  1.0887 -0.2482
19339TIP3   OH279431   0.474   3.869  11.307  0.3510 -0.1448  0.2462
19339TIP3    H179432   0.557   3.829  11.278 -0.1319 -1.0784  0.1194
19339TIP3    H279433   0.494   3.962  11.314  0.7134  0.0231 -2.3387
19340TIP3   OH279434   0.489   4.078   2.848 -0.1228 -0.8657 -0.1255
19340TIP3    H179435   0.543   4.012   2.892 -1.2301 -1.0173  1.0399
19340TIP3    H279436   0.520   4.161   2.885 -0.7003 -0.9544  0.5655
19341TIP3   OH279437   1.732   5.967  15.435 -0.2501  0.1061  0.7384
19341TIP3    H179438   1.777   5.885  15.413 -1.9012 -1.4259  2.8131
19341TIP3    H279439   1.639   5.945  15.428 -0.7441  2.7972 -2.0170
19342TIP3   OH279440   0.586   0.024  12.808 -0.1214 -0.3014  0.9302
19342TIP3    H179441   0.574  -0.071  12.800  0.6732 -0.4618  1.5036
19342TIP3    H279442   0.544   0.047  12.891  1.4734 -0.4979  1.8145
19343TIP3   OH279443   4.131   4.619   3.064  0.0968  0.7812 -0.0092
19343TIP3    H179444   4.087   4.594   2.983  0.0866  0.0817  0.2112
19343TIP3    H279445   4.108   4.550   3.126 -0.5698  1.7546  0.8250
19344TIP3   OH279446   1.959   5.362  16.740  0.2906  0.1047 -0.3883
19344TIP3    H179447   1.955   5.412  16.658 -1.4755 -0.6742 -0.8025
19344TIP3    H279448   2.032   5.301  16.727  0.1076  0.0738 -1.3362
19345TIP3   OH279449   5.366   3.859   1.416  0.3747  0.0611 -0.3151
19345TIP3    H179450   5.294   3.914   1.384 -0.8239 -0.7515  0.8817
19345TIP3    H279451   5.360   3.779   1.363  0.1276 -0.1647  0.0457
19346TIP3   OH279452   4.400   2.722   2.462  0.2422 -0.1390 -0.5560
19346TIP3    H179453   4.337   2.792   2.478 -1.2015 -1.4664 -0.2902
19346TIP3    H279454   4.362   2.671   2.391  1.4424 -0.4507 -0.9781
19347TIP3   OH279455   6.123   1.251  11.413 -0.2322 -0.0809 -0.2513
19347TIP3    H179456   6.096   1.336  11.377 -0.9283  0.0135  0.4929
19347TIP3    H279457   6.205   1.232  11.368  0.3194  1.3458  0.0981
19348TIP3   OH279458   1.473   4.311   3.270  0.0279  0.1223 -0.5971
19348TIP3    H179459   1.549   4.337   3.322  0.8150 -2.0439 -0.5798
19348TIP3    H279460   1.449   4.225   3.306 -0.6232 -0.5165 -2.5144
19349TIP3   OH279461   1.225   0.818   1.700  0.1824 -0.2743 -0.3543
19349TIP3    H179462   1.158   0.886   1.699  0.2413 -0.2163 -0.3289
19349TIP3    H279463   1.211   0.770   1.618 -1.3841 -1.7225  0.7107
19350TIP3   OH279464   3.470   0.119  15.512  0.1336 -0.2482  0.0103
19350TIP3    H179465   3.415   0.065  15.569 -0.0600  0.5006  0.5306
19350TIP3    H279466   3.559   0.102  15.542  0.1639 -1.1509 -0.5703
19351TIP3   OH279467   1.570   0.541  11.645  0.1012  0.2344  0.0955
19351TIP3    H179468   1.539   0.461  11.604  1.4166  0.1660 -0.7790
19351TIP3    H279469   1.492   0.596  11.651 -0.5297 -0.5721 -0.5593
19352TIP3   OH279470   1.560   4.245   1.565  0.4581  0.4314  0.1249
19352TIP3    H179471   1.646   4.231   1.526  0.1367  0.8300 -0.7294
19352TIP3    H279472   1.556   4.339   1.581 -1.1497  0.9378 -2.9984
19353TIP3   OH279473   0.258   5.165   3.848  0.3604  0.4817 -0.1817
19353TIP3    H179474   0.290   5.084   3.810  1.6471  1.1210 -0.4777
19353TIP3    H279475   0.179   5.186   3.798  0.4635 -0.1620 -0.6162
19354TIP3   OH279476   3.764   1.234  13.033  0.0156  0.1775  0.0750
19354TIP3    H179477   3.793   1.216  12.944  1.3920  1.9144  0.1473
19354TIP3    H279478   3.841   1.217  13.088 -0.2170  1.1206  0.7053
19355TIP3   OH279479   4.564   4.060  15.146  0.1663  0.0542 -0.0727
19355TIP3    H179480   4.566   4.069  15.051 -0.3259 -0.6744 -0.1564
19355TIP3    H279481   4.517   4.138  15.176 -1.9263 -0.9538 -0.6132
19356TIP3   OH279482   3.259   6.293  10.992  0.2599 -0.5702 -0.8568
19356TIP3    H179483   3.272   6.379  10.953 -2.1250 -0.4718 -1.5104
19356TIP3    H279484   3.198   6.249  10.932 -0.1451 -1.9429  0.5419
19357TIP3   OH279485   3.128   1.654  11.884  0.3314 -0.0755 -0.3193
19357TIP3    H179486   3.083   1.595  11.946 -0.6986  0.8963 -0.1099
19357TIP3    H279487   3.221   1.637  11.898  0.0504 -1.6780 -0.2893
19358TIP3   OH279488   1.464   3.310  11.252  0.0035 -0.2735  0.3505
19358TIP3    H179489   1.394   3.299  11.188  0.2694  0.3326 -0.0462
19358TIP3    H279490   1.542   3.274  11.210  0.4247  1.1879 -0.1271
19359TIP3   OH279491   5.647   2.018  11.490 -0.3251  0.4240  0.1155
19359TIP3    H179492   5.594   2.055  11.419  0.6529 -2.6032 -2.3572
19359TIP3    H279493   5.729   1.992  11.447  0.0013 -2.1873  2.1629
19360TIP3   OH279494   0.970   2.746  14.937  0.0746  0.6817 -0.7294
19360TIP3    H179495   0.927   2.661  14.928  1.0993  0.1407 -0.6548
19360TIP3    H279496   0.900   2.810  14.927 -1.2503 -0.2326  2.3334
19361TIP3   OH279497   3.779   1.835  15.438 -0.4514  0.0329 -0.0281
19361TIP3    H179498   3.726   1.779  15.494  0.5396 -0.5679  0.3180
19361TIP3    H279499   3.754   1.924  15.462 -1.9663 -0.2607 -0.5245
19362TIP3   OH279500   5.662   0.337   6.584  0.4509 -0.0738  0.0469
19362TIP3    H179501   5.682   0.262   6.640  1.6659  0.1326 -0.1016
19362TIP3    H279502   5.575   0.365   6.613 -0.2205 -1.8090 -0.2111
19363TIP3   OH279503   1.412   4.197  13.631 -0.3949 -0.3011 -0.0771
19363TIP3    H179504   1.347   4.166  13.568 -0.1927 -1.4021  0.2490
19363TIP3    H279505   1.390   4.152  13.712 -0.4893  0.9074  0.5667
19364TIP3   OH279506   0.659   5.892  16.178  0.5556  0.0904  0.3466
19364TIP3    H179507   0.741   5.911  16.132  0.0248 -0.2571 -0.7618
19364TIP3    H279508   0.667   5.939  16.261  2.2865 -0.7362  0.6644
19365TIP3   OH279509   2.864   1.637  13.470 -0.5611 -0.2268 -0.7316
19365TIP3    H179510   2.821   1.564  13.515 -0.4383  0.7237  0.9881
19365TIP3    H279511   2.848   1.621  13.377 -1.7791 -1.6606 -0.2987
19366TIP3   OH279512   2.276   4.924   4.845  0.6639  0.2606  0.0200
19366TIP3    H179513   2.297   5.009   4.805 -0.3063  1.4308  1.9356
19366TIP3    H279514   2.200   4.893   4.797  0.9912  0.4963 -0.6581
19367TIP3   OH279515   5.406   1.381   5.881 -0.5242 -0.1271 -0.1206
19367TIP3    H179516   5.462   1.368   5.804 -0.5281 -1.4062  0.0857
19367TIP3    H279517   5.419   1.473   5.904  0.8394 -0.1766 -0.5960
19368TIP3   OH279518   0.347   6.355   0.948 -0.2833 -0.3913 -0.3387
19368TIP3    H179519   0.357   6.370   0.854 -0.1136  1.4449 -0.0562
19368TIP3    H279520   0.253   6.345   0.961 -0.4422  0.7153 -0.5399
19369TIP3   OH279521   4.004   3.839  10.552 -0.5867  0.1893 -0.3158
19369TIP3    H179522   3.949   3.813  10.479 -0.9130 -0.5508  0.1867
19369TIP3    H279523   4.076   3.888  10.512 -0.1293 -1.2055 -1.2422
19370TIP3   OH279524   3.564   2.779  16.873  0.4280  0.4180  0.2153
19370TIP3    H179525   3.634   2.720  16.843  0.2499  0.6442 -0.6757
19370TIP3    H279526   3.561   2.767  16.967 -0.5364 -2.0577 -0.0931
19371TIP3   OH279527   0.546   5.930   5.573  0.4688  0.3778  0.5990
19371TIP3    H179528   0.505   5.990   5.636  0.1671  0.8524 -0.0476
19371TIP3    H279529   0.617   5.981   5.534 -2.2154  1.6632 -2.7834
19372TIP3   OH279530   6.444   6.622   5.795 -0.3886  0.5073 -0.2928
19372TIP3    H179531   6.466   6.545   5.742 -0.5040  2.0004 -2.5826
19372TIP3    H279532   6.524   6.673   5.797 -1.3111  2.0866 -1.9214
19373TIP3   OH279533   0.741   4.633  14.134 -0.3145 -0.7434  0.0419
19373TIP3    H179534   0.648   4.644  14.155 -0.3087 -1.3046  0.4091
19373TIP3    H279535   0.787   4.679  14.204 -0.3201  0.3314 -0.6543
19374TIP3   OH279536   6.259   3.349  12.723  0.0711  0.0082 -0.4269
19374TIP3    H179537   6.194   3.391  12.780 -0.8679  0.5944 -1.8973
19374TIP3    H279538   6.216   3.269  12.694  0.2596  0.0695 -0.8782
19375TIP3   OH279539   4.615   5.115   6.335  0.1787  0.0185 -0.1250
19375TIP3    H179540   4.702   5.092   6.368  1.1337  1.8113 -1.3727
19375TIP3    H279541   4.563   5.129   6.414  1.2084 -0.2850  0.6241
19376TIP3   OH279542   4.679   3.948  16.528  0.2862 -0.0922  0.2505
19376TIP3    H179543   4.649   4.035  16.555  0.7743  0.3072 -0.4718
19376TIP3    H279544   4.734   3.917  16.599  1.2040  0.7590 -0.0905
19377TIP3   OH279545   3.566   5.707   3.124  0.1014 -0.1311  0.0427
19377TIP3    H179546   3.513   5.785   3.111  1.3982  0.7960  0.1697
19377TIP3    H279547   3.628   5.708   3.051 -0.0559 -1.2072 -0.1168
19378TIP3   OH279548   2.315   2.655   2.298 -0.1423  0.3072 -0.6000
19378TIP3    H179549   2.248   2.713   2.262 -0.0528  0.3059 -0.7684
19378TIP3    H279550   2.375   2.714   2.343  0.2649  0.4044 -1.2641
19379TIP3   OH279551   1.017   6.464   6.154  0.7264  0.2052  0.0539
19379TIP3    H179552   1.063   6.492   6.233 -0.7463 -0.6351  1.2506
19379TIP3    H279553   0.932   6.433   6.186  0.8539 -2.0350 -1.6340
19380TIP3   OH279554   2.080   1.334  13.261 -0.3067 -0.2552 -0.1257
19380TIP3    H179555   2.151   1.379  13.215 -0.2453 -1.2704 -1.0471
19380TIP3    H279556   2.060   1.390  13.336  0.9399  0.4256 -0.2976
19381TIP3   OH279557   0.406   6.766   3.053 -0.1499  0.3336  0.0291
19381TIP3    H179558   0.456   6.765   3.135  0.5699  0.1381 -0.4036
19381TIP3    H279559   0.322   6.726   3.075  0.9892 -2.1523  0.0691
19382TIP3   OH279560   0.465   5.845   3.033  0.3133  0.3328  0.2214
19382TIP3    H179561   0.402   5.916   3.018 -0.8766 -0.5958  0.7577
19382TIP3    H279562   0.524   5.879   3.101 -0.5975  0.5937  0.8867
19383TIP3   OH279563   0.342   4.211   1.213 -0.1230  0.3445 -0.3131
19383TIP3    H179564   0.436   4.223   1.221 -0.1006  0.0989 -0.2153
19383TIP3    H279565   0.331   4.119   1.189 -0.3674  0.2274  0.2324
19384TIP3   OH279566   2.021   0.447  11.274 -0.2881  0.0202  0.3817
19384TIP3    H179567   2.036   0.437  11.368  0.0927 -1.3309  0.1916
19384TIP3    H279568   1.961   0.375  11.252 -0.2806  0.2548 -0.4322
19385TIP3   OH279569   2.046   5.232  12.085  0.0076  0.3879  0.2245
19385TIP3    H179570   1.993   5.220  12.006 -0.0416  3.5706 -0.2940
19385TIP3    H279571   2.113   5.164  12.080 -1.9797 -1.5745 -0.8071
19386TIP3   OH279572   2.890   0.664   4.296 -0.1068  0.1054  1.0100
19386TIP3    H179573   2.911   0.671   4.202  0.2863 -1.9525  0.9212
19386TIP3    H279574   2.826   0.594   4.301  1.8565 -1.6369  2.5509
19387TIP3   OH279575   1.527   6.575   6.793  0.0975 -0.3134 -0.0935
19387TIP3    H179576   1.551   6.504   6.733  2.2573 -1.3716  1.9352
19387TIP3    H279577   1.597   6.640   6.783 -0.5322  0.3709 -0.1014
19388TIP3   OH279578   0.564   0.515  15.440 -0.1208 -0.4041 -0.0113
19388TIP3    H179579   0.562   0.599  15.394  0.1345 -0.8656 -0.8766
19388TIP3    H279580   0.627   0.462  15.390  0.5227 -0.7523  1.1492
19389TIP3   OH279581   2.310   1.099   0.199  0.0768 -0.0872 -0.0298
19389TIP3    H179582   2.347   1.070   0.115 -0.2623 -0.3756 -0.0774
19389TIP3    H279583   2.269   1.183   0.179 -0.1243 -0.2207 -0.1847
19390TIP3   OH279584   3.301   4.152  12.374  0.0881 -0.3110  0.0293
19390TIP3    H179585   3.317   4.241  12.344 -1.3437 -0.4297 -1.1317
19390TIP3    H279586   3.373   4.134  12.434  1.3369  1.0132 -1.0356
19391TIP3   OH279587   0.605   4.333   2.965 -0.6602 -0.2177 -0.0202
19391TIP3    H179588   0.537   4.378   3.015 -0.2927  0.6394 -0.2812
19391TIP3    H279589   0.677   4.322   3.027 -1.5049 -2.2824  0.6283
19392TIP3   OH279590   1.755   3.986   1.608 -0.0646 -0.0310  0.5531
19392TIP3    H179591   1.731   4.025   1.525  0.4092 -0.1741  0.3480
19392TIP3    H279592   1.810   3.911   1.585 -1.2091 -1.0137  0.9177
19393TIP3   OH279593   2.375   4.713  17.079  0.6565 -0.7486 -0.3874
19393TIP3    H179594   2.334   4.792  17.113  1.7137 -0.2104 -0.3299
19393TIP3    H279595   2.311   4.644  17.093  0.7149 -0.3756  1.8720
19394TIP3   OH279596   1.795   1.361  15.213 -0.5899  0.1556 -0.0993
19394TIP3    H179597   1.731   1.427  15.185  0.0778  1.7973  2.0948
19394TIP3    H279598   1.752   1.277  15.196 -1.2135  1.0826 -3.5684
19395TIP3   OH279599   5.677   0.885   5.368 -0.1487 -0.0770 -0.2950
19395TIP3    H179600   5.773   0.889   5.371 -0.0819 -1.3183 -0.2676
19395TIP3    H279601   5.649   0.975   5.354  0.8928  0.7973  2.8144
19396TIP3   OH279602   6.471   0.184   1.015  0.0958  0.3029  0.4531
19396TIP3    H179603   6.459   0.106   1.071  3.4537 -0.5681  0.0621
19396TIP3    H279604   6.453   0.258   1.073  0.2514 -0.6776  1.7807
19397TIP3   OH279605   2.401   1.377   0.123  0.0707 -0.4876 -0.0939
19397TIP3    H179606   2.456   1.455   0.117  1.9128 -1.6949  0.7194
19397TIP3    H279607   2.385   1.351   0.032  0.3158  0.2349 -0.3441
19398TIP3   OH279608   0.297   2.291   2.351 -0.1307 -0.0377  0.2414
19398TIP3    H179609   0.239   2.317   2.280 -0.1797  0.1751  0.3598
19398TIP3    H279610   0.366   2.356   2.352 -0.1937  0.0288  0.4657
19399TIP3   OH279611   5.211   3.423   6.102  0.5960  0.0616  0.3599
19399TIP3    H179612   5.246   3.473   6.176  0.1108 -0.4046  0.9125
19399TIP3    H279613   5.192   3.337   6.139 -1.4460  0.3951  0.1624
19400TIP3   OH279614   5.652   5.370  11.501  0.2161 -0.7606  0.0549
19400TIP3    H179615   5.622   5.367  11.410 -0.4592 -1.5396  0.2969
19400TIP3    H279616   5.680   5.280  11.519  2.6597 -0.0780 -0.1531
19401TIP3   OH279617   1.117   4.163   4.887 -0.1929 -0.2756  0.1570
19401TIP3    H179618   1.052   4.175   4.957  0.8496 -2.0174  1.4622
19401TIP3    H279619   1.088   4.085   4.841  0.0248 -0.0533 -0.3549
19402TIP3   OH279620   4.988   5.209  12.085  0.0061 -0.3954  0.1233
19402TIP3    H179621   4.918   5.254  12.039  0.1809 -1.1957 -0.9390
19402TIP3    H279622   5.067   5.229  12.035  0.2970 -0.7206  0.4447
19403TIP3   OH279623   6.236   6.701   2.516  0.4608  0.1430 -0.1532
19403TIP3    H179624   6.273   6.615   2.498 -1.0459  0.0245 -3.0147
19403TIP3    H279625   6.294   6.762   2.471  2.5684  0.8711  3.3713
19404TIP3   OH279626   3.352   6.519   3.507  0.1236  0.6402  0.0649
19404TIP3    H179627   3.323   6.496   3.595 -1.3684 -0.8740 -0.7936
19404TIP3    H279628   3.446   6.535   3.515  0.2486 -0.8212  1.6809
19405TIP3   OH279629   2.644   3.082  10.597 -0.2102 -0.2125  0.3551
19405TIP3    H179630   2.650   2.992  10.627 -1.2420  0.0358  1.3548
19405TIP3    H279631   2.735   3.109  10.584  0.0799 -1.5697 -0.5121
19406TIP3   OH279632   4.870   1.488   2.422 -0.3532  0.4820 -0.1903
19406TIP3    H179633   4.933   1.460   2.356 -0.9898  0.1582 -0.6702
19406TIP3    H279634   4.785   1.461   2.387 -0.4779 -2.2442  2.0941
19407TIP3   OH279635   3.231   0.500  10.265  0.0735  0.1492 -0.1301
19407TIP3    H179636   3.263   0.446  10.193 -1.8846 -0.4052 -0.6069
19407TIP3    H279637   3.229   0.589  10.229 -1.3117 -0.1874 -0.9198
19408TIP3   OH279638   6.709   5.724  15.022 -0.2470 -0.0758 -0.1456
19408TIP3    H179639   6.657   5.704  14.944 -0.6060  0.2232  0.0104
19408TIP3    H279640   6.717   5.820  15.021 -0.9064 -0.0052  0.5940
19409TIP3   OH279641   6.465   6.147  12.691  0.0362 -0.1136 -0.2306
19409TIP3    H179642   6.552   6.130  12.655  0.1593 -1.1585  0.5548
19409TIP3    H279643   6.448   6.239  12.668  1.1421 -0.0338 -0.7919
19410TIP3   OH279644   2.469   2.310   3.010 -0.3909 -0.5186 -0.9191
19410TIP3    H179645   2.416   2.374   3.059 -1.0286 -1.1628 -0.7596
19410TIP3    H279646   2.550   2.357   2.990 -0.1429 -0.2432  0.7113
19411TIP3   OH279647   1.368   0.123   1.629  0.5891 -0.2100 -0.2514
19411TIP3    H179648   1.316   0.071   1.567 -0.3918 -1.2169  1.3756
19411TIP3    H279649   1.407   0.058   1.687 -1.0471  0.8547  2.1290
19412TIP3   OH279650   5.202   2.744  11.238 -0.0075  0.3973 -0.0526
19412TIP3    H179651   5.251   2.705  11.166  0.7566  0.3924  0.4653
19412TIP3    H279652   5.113   2.752  11.205 -0.1946 -1.7980 -0.1845
19413TIP3   OH279653   6.077   2.547   5.864 -0.0663 -0.6374  0.8382
19413TIP3    H179654   6.068   2.641   5.853  2.5148 -0.2469  1.6068
19413TIP3    H279655   6.118   2.537   5.950 -0.2948 -2.4733  0.7598
19414TIP3   OH279656   1.149   5.646  13.715  0.3613 -0.3285  0.3398
19414TIP3    H179657   1.069   5.620  13.670 -0.6820 -0.0270  1.9790
19414TIP3    H279658   1.137   5.740  13.732  0.7840 -0.4206  1.1489
19415TIP3   OH279659   6.642   2.346  12.270 -0.2669 -0.0748  0.0612
19415TIP3    H179660   6.563   2.319  12.316  0.7954  0.1731  2.0915
19415TIP3    H279661   6.630   2.440  12.254 -1.1187 -0.3880 -1.1749
19416TIP3   OH279662   1.994   6.668  14.617 -0.2058 -0.4291  0.0326
19416TIP3    H179663   1.916   6.693  14.667 -0.1196 -0.8506  0.3851
19416TIP3    H279664   1.974   6.581  14.584 -0.4496  0.0479 -1.0791
19417TIP3   OH279665   1.451   5.632  14.871 -0.4128  0.1715 -0.6338
19417TIP3    H179666   1.442   5.712  14.820  1.0633  0.3087 -0.7046
19417TIP3    H279667   1.506   5.575  14.817  1.1392  0.3098  0.7688
19418TIP3   OH279668   5.257   1.650   1.491 -0.4851  0.6683  0.2159
19418TIP3    H179669   5.252   1.561   1.526  0.9086  0.1698 -0.8504
19418TIP3    H279670   5.308   1.642   1.411 -0.6949  2.3693 -0.1006
19419TIP3   OH279671   5.995   2.103  12.221  0.1636 -0.1963  0.4693
19419TIP3    H179672   5.939   2.048  12.167  0.7155 -1.1811  0.8698
19419TIP3    H279673   5.935   2.156  12.273 -0.3731  0.0034 -0.3530
19420TIP3   OH279674   5.318   0.950   0.352  0.5008  0.9031 -0.1393
19420TIP3    H179675   5.325   0.996   0.435  0.9839 -1.8497  1.4276
19420TIP3    H279676   5.386   0.882   0.356  0.5379  0.7149 -2.7838
19421TIP3   OH279677   3.430   3.283   4.409  0.1200 -0.4021  0.5488
19421TIP3    H179678   3.481   3.265   4.330 -1.5978 -0.4362 -0.5759
19421TIP3    H279679   3.344   3.310   4.377 -1.2825 -2.4322  2.4206
19422TIP3   OH279680   0.444   4.910  17.089  0.4430  0.0857  0.2212
19422TIP3    H179681   0.475   4.978  17.150  0.6560  0.4894 -0.3313
19422TIP3    H279682   0.374   4.953  17.041  0.9782  0.1095 -0.5473
19423TIP3   OH279683   2.102   0.287  12.880 -0.2003  0.5717 -0.7705
19423TIP3    H179684   2.015   0.293  12.920  0.6158 -1.1557  1.3629
19423TIP3    H279685   2.091   0.223  12.809 -0.6947  0.4182 -0.5634
19424TIP3   OH279686   2.755   5.378   0.850  0.1537 -0.1395 -0.4815
19424TIP3    H179687   2.729   5.397   0.940  0.2387  0.9057 -0.6651
19424TIP3    H279688   2.688   5.421   0.796  1.1867  0.9339 -0.9345
19425TIP3   OH279689   6.182   5.038  12.109 -0.4736  0.1401 -0.4854
19425TIP3    H179690   6.181   4.995  12.194 -2.3710 -0.8095 -0.9635
19425TIP3    H279691   6.100   5.086  12.105 -0.6073 -0.1756 -1.9466
19426TIP3   OH279692   3.861   2.598  10.473  0.3304 -0.4566  0.1628
19426TIP3    H179693   3.912   2.517  10.470  0.3569 -0.5939  3.2592
19426TIP3    H279694   3.908   2.653  10.535  0.9100  2.4092 -2.6743
19427TIP3   OH279695   0.320   2.956   5.876  0.1348 -0.0273 -0.7824
19427TIP3    H179696   0.251   3.010   5.914  0.8696  1.0163 -0.9098
19427TIP3    H279697   0.401   2.989   5.916  0.3827 -2.7403  1.1475
19428TIP3   OH279698   1.897   2.356   3.074  0.0780 -0.0367  0.4509
19428TIP3    H179699   1.970   2.357   3.136  0.3366  0.3708  0.1411
19428TIP3    H279700   1.836   2.292   3.110  1.3555 -1.6265 -0.1659
19429TIP3   OH279701   2.197   3.039   3.531 -0.2881 -0.5368 -0.2441
19429TIP3    H179702   2.158   2.952   3.530 -2.3937  0.3595 -0.0250
19429TIP3    H279703   2.147   3.088   3.466 -0.1749  0.9080  0.7221
19430TIP3   OH279704   4.723   4.331  14.988 -0.1821 -0.0686  0.3861
19430TIP3    H179705   4.722   4.302  14.897  1.7491 -1.1927  0.7022
19430TIP3    H279706   4.632   4.325  15.016 -0.7521  0.0181 -1.3838
19431TIP3   OH279707   3.020   6.685   4.974  0.3610  0.5435  0.6013
19431TIP3    H179708   2.930   6.654   4.962  0.1024  1.3013  0.5076
19431TIP3    H279709   3.024   6.712   5.065  0.3771  0.8669  0.5057
19432TIP3   OH279710   6.125   6.370  16.311 -0.4309 -0.4447 -0.0159
19432TIP3    H179711   6.149   6.463  16.313  1.9672 -1.0166 -0.4705
19432TIP3    H279712   6.106   6.352  16.219  0.2582 -0.6706 -0.1163
19433TIP3   OH279713   6.267   0.553   1.334  0.0402  0.0517  0.0347
19433TIP3    H179714   6.232   0.553   1.423  0.2274  0.6910  0.1097
19433TIP3    H279715   6.309   0.638   1.325  1.5127 -0.6707 -0.0883
19434TIP3   OH279716   6.443   1.422  14.984 -0.6344 -0.1131 -0.3204
19434TIP3    H179717   6.417   1.357  14.919 -2.4062  1.8694 -1.6817
19434TIP3    H279718   6.538   1.431  14.973 -0.9292  0.2863 -2.7737
19435TIP3   OH279719   3.344   3.646  14.495 -0.0923 -0.1323  0.0148
19435TIP3    H179720   3.358   3.566  14.445 -0.0553 -0.1204  0.0063
19435TIP3    H279721   3.359   3.620  14.586  2.6019  0.5071 -0.2237
19436TIP3   OH279722   1.150   5.680  14.287  0.3742  0.5091  0.5024
19436TIP3    H179723   1.108   5.753  14.333  1.0621  1.3152 -0.1242
19436TIP3    H279724   1.080   5.642  14.233  0.4228  1.8398 -0.5366
19437TIP3   OH279725   2.336   5.721  12.052 -0.0892 -0.2726 -0.1333
19437TIP3    H179726   2.285   5.790  12.008 -0.4648 -0.4252  0.0568
19437TIP3    H279727   2.269   5.662  12.087  0.2454 -2.4420 -3.0104
19438TIP3   OH279728   6.562   1.777  15.575 -0.2273 -0.4905 -0.2804
19438TIP3    H179729   6.633   1.727  15.535 -0.9761 -1.5488 -0.2923
19438TIP3    H279730   6.482   1.732  15.549 -0.8544  0.0778  0.6059
19439TIP3   OH279731   0.121   5.243   2.802 -0.2835  0.4805 -0.0033
19439TIP3    H179732   0.047   5.193   2.835  1.6232 -0.6761  2.6914
19439TIP3    H279733   0.151   5.194   2.726  0.8270 -1.9049  1.9115
19440TIP3   OH279734   5.437   0.637   3.777 -0.4636  0.0126  0.7639
19440TIP3    H179735   5.502   0.666   3.841 -0.4756  1.1107  0.3005
19440TIP3    H279736   5.488   0.613   3.700 -0.5729  0.5242  0.5281
19441TIP3   OH279737   0.956   6.275   2.392  0.4280 -0.2383  0.1047
19441TIP3    H179738   0.987   6.185   2.376 -0.4205 -0.5907  0.4114
19441TIP3    H279739   1.035   6.328   2.390  0.9507 -1.0100  0.0147
19442TIP3   OH279740   0.597   2.724  11.292  0.5599 -0.0694  0.3503
19442TIP3    H179741   0.662   2.693  11.355 -0.3051  0.1518  1.3709
19442TIP3    H279742   0.547   2.791  11.340 -1.0300 -0.9005 -0.0878
19443TIP3   OH279743   4.945   0.646   0.534  0.0645 -0.2100  0.3557
19443TIP3    H179744   4.960   0.695   0.615 -3.0485  2.5481 -0.6197
19443TIP3    H279745   5.017   0.671   0.477  0.2062  0.8297  0.9715
19444TIP3   OH279746   4.055   1.879   1.814 -0.3020  0.2857  0.0810
19444TIP3    H179747   4.044   1.784   1.820 -0.1758  0.2359 -0.5182
19444TIP3    H279748   4.042   1.900   1.722  0.5178  0.7430  0.0582
19445TIP3   OH279749   0.685   1.510   3.146  0.5906 -0.1785 -0.3589
19445TIP3    H179750   0.690   1.445   3.216  0.4008 -0.8647 -0.9867
19445TIP3    H279751   0.774   1.543   3.137  0.5622  0.1400  0.4138
19446TIP3   OH279752   3.031   3.470  12.191 -0.1794 -0.5899  0.6846
19446TIP3    H179753   2.969   3.525  12.240 -1.2790 -1.3659  0.1856
19446TIP3    H279754   3.117   3.508  12.211 -0.8837  1.1069  0.5979
19447TIP3   OH279755   5.583   0.833   4.366 -0.0331 -0.0689  0.1699
19447TIP3    H179756   5.561   0.765   4.301  1.0394 -0.3040  0.0448
19447TIP3    H279757   5.620   0.904   4.315 -1.9969  1.0120  0.2003
19448TIP3   OH279758   2.084   0.428  15.226 -0.0718  0.3487 -0.0997
19448TIP3    H179759   2.032   0.365  15.276 -1.5062 -0.7149 -2.8496
19448TIP3    H279760   2.151   0.375  15.183  0.1150  1.0220 -0.6358
19449TIP3   OH279761   0.561   3.889   3.439 -0.4513 -0.2047  0.5702
19449TIP3    H179762   0.533   3.937   3.361  1.0979  1.2629  0.8938
19449TIP3    H279763   0.506   3.924   3.509  0.5617  1.0059  0.7736
19450TIP3   OH279764   5.403   3.600   5.666 -0.3340  0.6970  0.0582
19450TIP3    H179765   5.369   3.650   5.592 -0.1777 -1.0164 -1.1961
19450TIP3    H279766   5.424   3.666   5.732 -0.2348  2.2667 -1.5181
19451TIP3   OH279767   2.441   3.769   4.460 -0.2109 -0.8608  0.3330
19451TIP3    H179768   2.358   3.737   4.425 -1.5589  0.9779  1.7620
19451TIP3    H279769   2.461   3.847   4.409  0.6668 -1.3106 -0.0238
19452TIP3   OH279770   3.521   6.540  16.856 -0.0107 -0.5754  0.5782
19452TIP3    H179771   3.548   6.497  16.938  2.1701 -0.7218 -0.1906
19452TIP3    H279772   3.544   6.632  16.869 -1.7628 -0.1878  0.9975
19453TIP3   OH279773   3.337   5.792  11.522  0.1674 -0.0780  0.1241
19453TIP3    H179774   3.316   5.731  11.593  3.6047 -0.4956  0.8739
19453TIP3    H279775   3.390   5.860  11.564 -2.8103  3.0494 -0.8796
19454TIP3   OH279776   5.487   5.503  13.703 -0.1676 -0.0748 -0.4856
19454TIP3    H179777   5.428   5.429  13.691 -1.2670  0.4349  1.5593
19454TIP3    H279778   5.560   5.468  13.754  1.0780 -0.5555 -2.5009
19455TIP3   OH279779   4.745   6.725   4.980  0.4527 -0.0815  0.3970
19455TIP3    H179780   4.671   6.714   5.039 -0.1647 -0.8231 -0.5047
19455TIP3    H279781   4.820   6.692   5.030 -0.0758 -0.7880  0.7324
19456TIP3   OH279782   6.644   6.037   5.734  0.1020  0.4986  0.1279
19456TIP3    H179783   6.735   6.060   5.712  0.2626  0.3174  0.5974
19456TIP3    H279784   6.605   6.120   5.762  0.3825  0.4081  0.7995
19457TIP3   OH279785   2.790   5.006  11.604  0.4199 -0.3237 -0.1408
19457TIP3    H179786   2.883   5.024  11.589  0.6199 -0.3835  0.9327
19457TIP3    H279787   2.766   5.066  11.675 -0.4006 -0.2058 -0.5143
19458TIP3   OH279788   1.196   4.254   1.981 -0.0070 -0.4967 -0.1765
19458TIP3    H179789   1.281   4.212   1.973  0.1939  0.0352 -0.8455
19458TIP3    H279790   1.136   4.182   2.000  0.5997 -0.8606  0.3699
19459TIP3   OH279791   3.675   1.444  17.192 -0.2490 -0.0791  0.2632
19459TIP3    H179792   3.636   1.359  17.213  1.8755 -0.8023  1.5307
19459TIP3    H279793   3.762   1.422  17.159 -0.6313  1.5099 -1.8598
19460TIP3   OH279794   4.146   5.535   1.578  0.0195  0.1026  0.1844
19460TIP3    H179795   4.228   5.580   1.560 -1.4155  3.5021  1.6737
19460TIP3    H279796   4.091   5.555   1.502  0.2889 -1.5264 -0.4547
19461TIP3   OH279797   6.498   2.145  10.347  0.3176  0.0249 -0.2478
19461TIP3    H179798   6.454   2.211  10.400 -0.8679  0.5446 -1.8495
19461TIP3    H279799   6.589   2.175  10.342  0.6105 -0.3870  2.0012
19462TIP3   OH279800   5.515   6.431   4.326  0.0888 -0.6462  0.1372
19462TIP3    H179801   5.486   6.348   4.289  0.6936 -0.8918  0.2036
19462TIP3    H279802   5.442   6.460   4.381 -0.1956 -1.0396 -0.0288
19463TIP3   OH279803   6.069   2.437  11.139 -0.4344 -0.3184  0.6525
19463TIP3    H179804   6.092   2.511  11.196 -3.1788  1.3396 -0.2740
19463TIP3    H279805   6.092   2.465  11.051 -0.2172 -1.1188  0.4478
19464TIP3   OH279806   3.655   6.512   1.568 -0.2648  0.1455 -1.1133
19464TIP3    H179807   3.722   6.464   1.618 -1.0875 -0.9133 -1.0012
19464TIP3    H279808   3.572   6.478   1.602 -0.8608  1.4230 -1.2824
19465TIP3   OH279809   2.806   6.022  13.855  0.5377 -0.6380 -0.2463
19465TIP3    H179810   2.732   5.976  13.894  1.0401 -0.8237  0.4830
19465TIP3    H279811   2.767   6.076  13.786 -0.4215  0.1150  0.8662
19466TIP3   OH279812   3.272   5.243  12.678 -0.6953  0.0628  0.1563
19466TIP3    H179813   3.224   5.168  12.713  0.1718 -0.4842  0.1799
19466TIP3    H279814   3.297   5.294  12.755  0.1854 -0.5151  0.2491
19467TIP3   OH279815   1.158   1.753  15.221  0.1459  0.0034 -0.0642
19467TIP3    H179816   1.233   1.803  15.188 -0.1266 -0.7260 -1.8056
19467TIP3    H279817   1.173   1.663  15.192 -1.6050 -0.0726 -0.8456
19468TIP3   OH279818   2.610   0.332   4.675 -0.0287 -0.3771  0.4104
19468TIP3    H179819   2.567   0.278   4.742  1.1413  0.3465  1.7779
19468TIP3    H279820   2.673   0.385   4.724  2.6115 -1.5718 -1.5713
19469TIP3   OH279821   4.963   5.579   3.180  0.5116  0.1790  0.5170
19469TIP3    H179822   4.878   5.535   3.168 -0.7060  2.7683 -0.8291
19469TIP3    H279823   4.980   5.621   3.096  3.7109 -1.2021  0.4423
19470TIP3   OH279824   4.991   0.111  10.686 -0.1230 -0.1918 -0.3984
19470TIP3    H179825   4.967   0.176  10.620 -0.1984  0.2486  0.0531
19470TIP3    H279826   4.947   0.031  10.658 -2.1204  0.5846  0.3779
19471TIP3   OH279827   4.584   2.608   3.074  0.1944 -0.3642  0.0854
19471TIP3    H179828   4.576   2.693   3.031 -1.9151 -0.1017  0.9146
19471TIP3    H279829   4.518   2.554   3.031  0.7330 -1.2384  0.3618
19472TIP3   OH279830   0.414   2.547  12.428 -0.6121  0.2849 -0.6651
19472TIP3    H179831   0.363   2.616  12.385  0.7631  0.6614 -1.7373
19472TIP3    H279832   0.373   2.537  12.514 -1.5795  1.6003 -0.9526
19473TIP3   OH279833   0.637   0.259   1.478 -0.4152 -0.1367 -0.1429
19473TIP3    H179834   0.691   0.197   1.429 -1.6800 -1.2812 -0.1108
19473TIP3    H279835   0.596   0.313   1.411  0.2588  0.3137 -0.1967
19474TIP3   OH279836   3.557   0.238   5.525  0.5456  0.1363 -0.2655
19474TIP3    H179837   3.627   0.181   5.494  0.3447 -2.0194  3.0494
19474TIP3    H279838   3.568   0.241   5.620 -4.6355 -1.3846  0.5405
19475TIP3   OH279839   1.081   3.142  13.029  0.2226 -0.4595 -0.1777
19475TIP3    H179840   1.173   3.157  13.050  1.2949 -4.4978 -1.7018
19475TIP3    H279841   1.046   3.097  13.106  0.3068 -1.5615 -0.7678
19476TIP3   OH279842   6.216   0.732  14.459 -0.0717 -0.5824 -0.1979
19476TIP3    H179843   6.149   0.718  14.526 -1.0483  0.8758 -0.8405
19476TIP3    H279844   6.168   0.729  14.377  0.6506  0.4659 -0.6702
19477TIP3   OH279845   5.934   1.774  12.536  0.5696 -0.6910 -0.2491
19477TIP3    H179846   5.856   1.795  12.588 -0.2808 -1.4696 -1.1832
19477TIP3    H279847   5.989   1.724  12.596  0.4737  0.0978  0.5094
19478TIP3   OH279848   0.417   2.254  10.576  0.4452  0.2872 -0.5775
19478TIP3    H179849   0.339   2.275  10.627  1.8123  2.3072  0.7720
19478TIP3    H279850   0.407   2.305  10.495 -1.0486 -1.8345 -1.7950
19479TIP3   OH279851   6.649   0.577   3.890  0.5082 -0.0752 -0.3124
19479TIP3    H179852   6.643   0.658   3.840  0.9822 -1.4084 -2.6304
19479TIP3    H279853   6.722   0.591   3.950  0.0275  1.5147 -0.0814
19480TIP3   OH279854   4.178   6.044  16.357 -0.0083  0.2661  0.5060
19480TIP3    H179855   4.090   6.040  16.394  0.2289  0.2764  1.0933
19480TIP3    H279856   4.188   5.961  16.310 -0.7145  0.7294 -0.4772
19481TIP3   OH279857   0.296   6.364  16.449 -1.1087 -0.2107  0.0267
19481TIP3    H179858   0.344   6.425  16.393  1.6230 -0.7269  1.6832
19481TIP3    H279859   0.267   6.418  16.523 -3.2134  0.1154 -1.0053
19482TIP3   OH279860   0.683   3.607  11.956 -0.3225 -0.7274 -0.3536
19482TIP3    H179861   0.665   3.529  12.009 -0.4017  0.9038  2.1142
19482TIP3    H279862   0.622   3.673  11.989  0.5322  0.7334 -1.6051
19483TIP3   OH279863   2.152   4.897   5.357  0.0317 -0.0725  0.3803
19483TIP3    H179864   2.078   4.838   5.371 -0.5341  0.3802 -0.5987
19483TIP3    H279865   2.185   4.873   5.270  0.9553 -0.1839  0.7567
19484TIP3   OH279866   6.007   5.588   0.262 -0.1889  0.1585 -0.1195
19484TIP3    H179867   5.974   5.554   0.345  1.0032 -0.7610 -0.0141
19484TIP3    H279868   5.975   5.525   0.196 -0.6155  0.5537 -0.2957
19485TIP3   OH279869   2.866   4.667   5.269  0.3258  0.2877  0.4259
19485TIP3    H179870   2.853   4.759   5.289  1.0858  0.2168  1.2976
19485TIP3    H279871   2.891   4.665   5.176  0.6868  0.9972  0.5066
19486TIP3   OH279872   1.004   6.656  16.422 -0.5816  0.1659  0.2495
19486TIP3    H179873   1.031   6.668  16.514 -0.8997 -1.2930  0.5447
19486TIP3    H279874   0.997   6.745  16.388  0.6959  0.7026  1.3094
19487TIP3   OH279875   2.547   6.433  15.421 -0.1865 -0.3184  0.2279
19487TIP3    H179876   2.532   6.414  15.328  1.4716  0.8275 -0.3015
19487TIP3    H279877   2.612   6.367  15.447 -1.3006 -1.1989  0.8234
19488TIP3   OH279878   5.677   4.884   0.310  0.0918 -0.6829 -0.8280
19488TIP3    H179879   5.658   4.832   0.388 -0.7085  0.3406 -0.3385
19488TIP3    H279880   5.757   4.933   0.333  0.5479 -1.2951 -1.0997
19489TIP3   OH279881   1.864   1.612  12.101  0.4192  0.2996  0.0281
19489TIP3    H179882   1.947   1.620  12.149 -0.1340  0.5649  0.9582
19489TIP3    H279883   1.887   1.565  12.021  1.8368  2.0861 -0.6705
19490TIP3   OH279884   1.726   3.049   4.823 -0.2994 -0.9479  0.5575
19490TIP3    H179885   1.730   3.144   4.838 -1.2665 -0.9415  0.7903
19490TIP3    H279886   1.644   3.022   4.864 -0.0144 -1.8939  0.5055
19491TIP3   OH279887   0.894   2.265  15.886  0.2331 -0.3226 -0.0155
19491TIP3    H179888   0.829   2.314  15.936 -1.4409 -2.2539 -0.2056
19491TIP3    H279889   0.860   2.266  15.796 -1.2546 -3.9452  0.4085
19492TIP3   OH279890   6.378   3.605  16.232  0.2020 -0.0811 -0.1975
19492TIP3    H179891   6.404   3.630  16.143  1.9794 -3.5194 -0.7053
19492TIP3    H279892   6.456   3.621  16.285  0.3664 -1.5347  0.0245
19493TIP3   OH279893   1.419   5.265  11.412  0.2000  0.4014  0.0339
19493TIP3    H179894   1.414   5.360  11.422  0.0057  0.4901 -0.8828
19493TIP3    H279895   1.334   5.233  11.441  0.3942  0.4762  0.6875
19494TIP3   OH279896   3.278   5.026  16.581  0.3713  0.0285  0.0766
19494TIP3    H179897   3.342   5.093  16.559 -0.1035  0.2970 -0.4980
19494TIP3    H279898   3.331   4.949  16.603  0.9232  0.6846  1.0922
19495TIP3   OH279899   0.120   3.961  17.156 -0.0193 -0.3683 -0.4358
19495TIP3    H179900   0.125   3.881  17.209  0.5172 -0.8286 -1.1719
19495TIP3    H279901   0.027   3.984  17.157 -0.6803 -2.6854 -2.6524
19496TIP3   OH279902   1.153   5.031  16.554  0.0914  0.3884 -0.1650
19496TIP3    H179903   1.141   5.077  16.637  0.7572  2.4226 -1.1679
19496TIP3    H279904   1.214   4.960  16.575 -1.7229 -0.6933  1.6128
19497TIP3   OH279905   1.247   1.710   6.582  0.0480  0.0590  0.0894
19497TIP3    H179906   1.304   1.787   6.588 -0.4757  0.3067  2.1752
19497TIP3    H279907   1.297   1.639   6.622 -0.3729 -0.1605  0.2309
19498TIP3   OH279908   2.954   1.898  16.125 -0.2727 -0.1067 -0.3168
19498TIP3    H179909   3.036   1.936  16.155 -0.5620  0.8463 -0.7017
19498TIP3    H279910   2.964   1.804  16.140  1.3981 -0.1492 -1.5467
19499TIP3   OH279911   3.380   0.949   0.742  0.2522  0.3590 -0.2686
19499TIP3    H179912   3.472   0.927   0.755  0.2575  1.3971  1.7708
19499TIP3    H279913   3.337   0.918   0.822 -0.9279  1.1538 -0.5882
19500TIP3   OH279914   2.018   3.019  15.009  0.0607  0.1412 -0.2375
19500TIP3    H179915   2.074   2.941  15.001 -0.6197 -0.1992 -1.8216
19500TIP3    H279916   1.944   2.989  15.061 -0.5077 -0.4577 -1.3758
19501TIP3   OH279917   2.223   6.110   3.079 -0.8117  0.0514 -0.2632
19501TIP3    H179918   2.132   6.084   3.096  0.2202 -1.6686  2.9358
19501TIP3    H279919   2.268   6.028   3.060  0.6513  0.5641  0.9780
19502TIP3   OH279920   3.538   4.166  12.497 -0.1462 -0.1099 -0.5317
19502TIP3    H179921   3.590   4.215  12.561  2.6103 -0.0312 -2.7395
19502TIP3    H279922   3.602   4.130  12.436 -2.3744 -3.7776 -0.8439
19503TIP3   OH279923   4.018   3.903  13.784 -0.2544 -0.3197 -0.0196
19503TIP3    H179924   4.007   3.866  13.697  0.3133  0.1120 -0.2773
19503TIP3    H279925   4.043   3.828  13.838 -0.1664 -0.5075 -0.3182
19504TIP3   OH279926   6.737   6.415  12.784 -0.3690 -0.3095 -0.3042
19504TIP3    H179927   6.719   6.371  12.867  1.3122  1.1083  0.8446
19504TIP3    H279928   6.711   6.506  12.798  1.9760  0.4310 -0.5684
19505TIP3   OH279929   1.761   4.779  15.870 -0.0399  0.8277  0.3406
19505TIP3    H179930   1.752   4.706  15.931  1.2351  0.6173  0.2920
19505TIP3    H279931   1.777   4.855  15.926  0.5054  0.7452  0.2936
19506TIP3   OH279932   1.103   3.600   5.986 -0.5707 -0.2130  0.2371
19506TIP3    H179933   1.013   3.582   5.961 -0.3133  0.7914 -1.4647
19506TIP3    H279934   1.102   3.602   6.082 -2.5246  0.6946  0.2042
19507TIP3   OH279935   1.119   3.717   3.915 -0.3826  0.0350 -0.0545
19507TIP3    H179936   1.115   3.680   4.003  0.7870 -0.8384 -0.3602
19507TIP3    H279937   1.035   3.692   3.875 -0.1166 -1.2285  0.1564
19508TIP3   OH279938   5.162   1.745  11.322 -0.1174  0.0315 -0.2895
19508TIP3    H179939   5.223   1.754  11.249 -0.6222 -1.7717 -0.9656
19508TIP3    H279940   5.076   1.760  11.283 -0.4234 -1.3274 -0.1921
19509TIP3   OH279941   0.791   3.025   2.214  0.1114 -0.2243 -0.5419
19509TIP3    H179942   0.852   2.953   2.200 -0.8953 -0.8404 -1.8773
19509TIP3    H279943   0.787   3.035   2.309 -0.8655 -2.9538 -0.2464
19510TIP3   OH279944   1.137   3.900  14.819 -0.2096  0.0786  0.6494
19510TIP3    H179945   1.210   3.959  14.843  0.4763 -0.9495  1.1179
19510TIP3    H279946   1.059   3.949  14.843  0.3320  1.0579  0.4738
19511TIP3   OH279947   3.058   5.837  13.435  0.5562  0.3784 -0.6804
19511TIP3    H179948   3.091   5.863  13.522 -0.5273 -1.0138  0.1654
19511TIP3    H279949   3.003   5.910  13.408 -2.3596 -0.8401  1.6216
19512TIP3   OH279950   4.889   1.973   2.635 -0.0804 -0.0216  0.3530
19512TIP3    H179951   4.802   2.003   2.664  0.3074 -0.3846  1.9447
19512TIP3    H279952   4.870   1.913   2.562 -1.0811  0.9435 -0.2048
19513TIP3   OH279953   2.648   1.465   1.270 -0.0856  0.1579  0.5003
19513TIP3    H179954   2.707   1.389   1.267  0.3140  0.3675  2.1979
19513TIP3    H279955   2.656   1.497   1.360 -1.8775  0.9291  0.4006
19514TIP3   OH279956   2.741   1.598  14.770  0.2365 -0.0945 -0.6162
19514TIP3    H179957   2.729   1.503  14.763 -0.5045  0.1286 -2.5339
19514TIP3    H279958   2.708   1.619  14.857 -0.2255 -1.4984 -0.4259
19515TIP3   OH279959   4.198   2.313   1.703 -0.4026  0.2672 -0.0353
19515TIP3    H179960   4.156   2.268   1.776  0.2489  1.8117  1.3096
19515TIP3    H279961   4.271   2.256   1.679 -2.0163 -1.4425 -1.0986
19516TIP3   OH279962   2.682   4.225  12.183  0.5862  0.5303 -0.0730
19516TIP3    H179963   2.621   4.298  12.172 -0.6350 -0.4519  0.1319
19516TIP3    H279964   2.673   4.174  12.103  0.5625 -0.0559  0.3000
19517TIP3   OH279965   1.853   3.510   4.850 -0.4121  0.4615  0.1897
19517TIP3    H179966   1.859   3.584   4.911  3.7546  1.4485 -1.2441
19517TIP3    H279967   1.850   3.551   4.763  0.6056 -1.0198 -0.5712
19518TIP3   OH279968   0.007   0.285   2.645  0.1935 -0.8447 -0.1167
19518TIP3    H179969  -0.076   0.237   2.637 -0.2894  0.1220 -0.9544
19518TIP3    H279970   0.075   0.217   2.636 -0.4718 -1.2507 -2.2581
19519TIP3   OH279971   5.958   2.467   3.127  0.0261  0.8498  0.7314
19519TIP3    H179972   5.917   2.553   3.119 -0.1160  0.7633  0.5436
19519TIP3    H279973   5.964   2.434   3.038  0.5523  0.8810  0.7503
19520TIP3   OH279974   6.205   2.548  15.010  0.3832 -0.3089 -0.1590
19520TIP3    H179975   6.112   2.543  14.992  0.4571  0.3946 -0.7537
19520TIP3    H279976   6.212   2.596  15.093  0.0516 -3.3482  1.7052
19521TIP3   OH279977   1.391   3.475   5.172 -0.5662 -0.2420 -0.3140
19521TIP3    H179978   1.301   3.465   5.140 -0.1866  0.5466 -1.6686
19521TIP3    H279979   1.435   3.526   5.104  1.4799 -2.4240 -0.6914
19522TIP3   OH279980   5.829   2.414  15.017  0.9699  0.3928  0.3229
19522TIP3    H179981   5.841   2.461  15.100  2.7308 -1.2787  1.0361
19522TIP3    H279982   5.882   2.335  15.026 -0.3459 -0.7554 -1.6586
19523TIP3   OH279983   3.667   3.714  13.820 -0.3481  0.6147 -0.5860
19523TIP3    H179984   3.585   3.667  13.806 -0.3266 -0.0384  1.2545
19523TIP3    H279985   3.641   3.790  13.872  0.0859  0.8928 -0.7792
19524TIP3   OH279986   4.368   3.262  15.727  0.2200  0.2207  0.1935
19524TIP3    H179987   4.308   3.322  15.774  0.5913  0.3406  0.5159
19524TIP3    H279988   4.310   3.198  15.686 -0.2876  1.6891 -1.4199
19525TIP3   OH279989   6.548   5.728   2.874  0.0146 -0.1075 -0.1728
19525TIP3    H179990   6.542   5.645   2.826 -0.1647 -1.5332  2.2537
19525TIP3    H279991   6.522   5.706   2.963 -1.4316  2.8766  0.1905
19526TIP3   OH279992   6.713   4.931  13.885  0.2208 -0.2722  0.4253
19526TIP3    H179993   6.725   5.025  13.903 -1.5733  0.1102 -0.2457
19526TIP3    H279994   6.757   4.917  13.801  0.5697 -0.0502  0.5709
19527TIP3   OH279995   4.595   4.668   5.556  0.3131 -0.0307 -0.5098
19527TIP3    H179996   4.538   4.624   5.493  0.5570  1.5968 -1.9108
19527TIP3    H279997   4.534   4.708   5.619  0.0753 -1.7905  0.4039
19528TIP3   OH279998   3.601   1.367   3.427 -0.0278 -0.2753 -0.0011
19528TIP3    H179999   3.623   1.299   3.491  0.1914 -0.3853 -0.1929
19528TIP3    H280000   3.663   1.354   3.356 -0.0957  0.0206 -0.1152
19529TIP3   OH280001   1.180   2.769   3.483 -0.7061  0.0793  0.4225
19529TIP3    H180002   1.100   2.743   3.528 -1.4489  0.5082 -0.6170
19529TIP3    H280003   1.160   2.757   3.390  0.3159  0.5189  0.1343
19530TIP3   OH280004   5.501   1.828  17.003  0.2393 -0.0534  0.1528
19530TIP3    H180005   5.566   1.790  16.943  2.4013  2.9257  0.4990
19530TIP3    H280006   5.467   1.904  16.957 -0.3610  0.4954  1.4680
19531TIP3   OH280007   1.338   3.344  13.401  0.6123 -0.2756 -0.4238
19531TIP3    H180008   1.315   3.423  13.449 -2.1214 -2.1372  1.4874
19531TIP3    H280009   1.289   3.350  13.319 -1.5102 -1.0561  0.7497
19532TIP3   OH280010   0.851   1.195   5.110 -0.3134 -0.6877 -0.2819
19532TIP3    H180011   0.849   1.146   5.192  0.1187 -0.0720  0.0962
19532TIP3    H280012   0.941   1.189   5.080 -0.1167  0.3708  0.0674
19533TIP3   OH280013   0.320   2.419  11.170 -0.1300  0.8157  0.5317
19533TIP3    H180014   0.261   2.413  11.095 -1.5318  2.3067  1.4942
19533TIP3    H280015   0.375   2.495  11.152  1.9046 -0.8585 -0.6050
19534TIP3   OH280016   0.666   4.907   3.978  0.4867 -0.0728  0.0712
19534TIP3    H180017   0.641   4.856   4.055  0.2693  1.1154  0.7973
19534TIP3    H280018   0.759   4.888   3.967  1.3696  2.3297  2.6793
19535TIP3   OH280019   5.810   6.406   5.207  0.1489 -0.1384 -0.2845
19535TIP3    H180020   5.754   6.482   5.191  0.2163 -0.2146 -0.8875
19535TIP3    H280021   5.894   6.430   5.169  0.0900 -0.6270 -0.7163
19536TIP3   OH280022   2.706   5.333   5.452  0.2289 -0.1069  0.2087
19536TIP3    H180023   2.692   5.258   5.395 -0.0719 -0.3146  0.5529
19536TIP3    H280024   2.622   5.346   5.496  0.9741 -1.1032  1.9834
19537TIP3   OH280025   3.994   4.700   2.445  0.0400 -0.1907 -0.4642
19537TIP3    H180026   3.944   4.664   2.518 -0.8549  0.1024 -0.9213
19537TIP3    H280027   4.017   4.624   2.392 -0.5198 -0.2635 -0.6106
19538TIP3   OH280028   5.918   3.978   3.991  0.0765 -0.0763  0.1935
19538TIP3    H180029   5.983   4.047   4.004  0.8754 -0.8414  0.2944
19538TIP3    H280030   5.836   4.017   4.021  0.8682  0.1323  2.1709
19539TIP3   OH280031   0.459   0.591  14.462  0.0517  0.2669 -0.1053
19539TIP3    H180032   0.519   0.593  14.388  1.4984  0.7064  1.0526
19539TIP3    H280033   0.491   0.658  14.522 -0.6845 -0.5268  1.2232
19540TIP3   OH280034   1.284   2.706  11.571  0.0304 -0.0800  0.0013
19540TIP3    H180035   1.308   2.701  11.664 -0.2393 -0.3128  0.0573
19540TIP3    H280036   1.330   2.633  11.530  1.5005  1.0174 -0.3429
19541TIP3   OH280037   4.832   5.529   1.623  0.3446 -0.1567 -0.2711
19541TIP3    H180038   4.786   5.457   1.580  0.5908 -0.4704 -0.0145
19541TIP3    H280039   4.901   5.554   1.561  0.3796 -0.2688 -0.2780
19542TIP3   OH280040   2.102   1.441   6.557  0.1233 -0.1468  0.5852
19542TIP3    H180041   2.084   1.382   6.484  0.6846  0.1200  0.2244
19542TIP3    H280042   2.045   1.517   6.542 -1.4749 -1.0862  1.6850
19543TIP3   OH280043   0.098   0.729   0.339  0.0510  0.2004  0.1073
19543TIP3    H180044   0.149   0.648   0.345  2.2133  1.5244  0.5286
19543TIP3    H280045   0.085   0.742   0.245 -0.3630 -0.6645  0.0414
19544TIP3   OH280046   0.926   5.388   4.213 -0.3669  0.5495 -0.7533
19544TIP3    H180047   1.016   5.392   4.179 -1.0970  0.6073 -2.8009
19544TIP3    H280048   0.900   5.479   4.225  0.0195  0.5178  0.3010
19545TIP3   OH280049   1.913   2.468  15.068  0.5642 -0.2246  0.0940
19545TIP3    H180050   1.907   2.559  15.040  0.6495 -0.4677 -0.7174
19545TIP3    H280051   1.850   2.422  15.012 -0.0656 -0.5380  1.0424
19546TIP3   OH280052   1.405   3.451   1.984 -0.2619 -0.2499  0.4345
19546TIP3    H180053   1.356   3.531   1.964  0.4787  0.2081  0.4470
19546TIP3    H280054   1.350   3.381   1.949 -0.1688  0.3693 -1.0258
19547TIP3   OH280055   1.973   4.674  14.816 -0.0272 -0.6746  0.6567
19547TIP3    H180056   2.048   4.648  14.763 -1.1193 -0.4496 -1.0245
19547TIP3    H280057   1.945   4.594  14.860  0.8971 -0.8519  0.9355
19548TIP3   OH280058   4.010   6.721  11.683 -0.5178  0.0831 -0.1953
19548TIP3    H180059   4.051   6.647  11.638 -1.1887 -1.0744  1.0813
19548TIP3    H280060   4.074   6.748  11.748 -0.1587  0.8236 -0.8412
19549TIP3   OH280061   4.099   1.872   2.251 -0.0993 -0.5901  0.0709
19549TIP3    H180062   4.049   1.943   2.291  0.4590 -0.2685  0.1991
19549TIP3    H280063   4.134   1.911   2.170  1.4738 -0.2405  0.8931
19550TIP3   OH280064   6.109   2.645  11.307 -0.3371 -0.3414  0.3396
19550TIP3    H180065   6.170   2.675  11.239 -0.8440  0.3952  0.2124
19550TIP3    H280066   6.165   2.630  11.384 -0.1785  1.5554  0.6026
19551TIP3   OH280067   2.166   5.323  10.553  0.1456  0.5878 -0.4609
19551TIP3    H180068   2.152   5.392  10.618  0.8963 -0.0956  0.4505
19551TIP3    H280069   2.261   5.314  10.547  0.0797  0.4888 -1.4975
19552TIP3   OH280070   2.522   0.564   2.963 -0.1460 -0.2734  0.3779
19552TIP3    H180071   2.506   0.637   2.904 -1.1476  0.4174  1.4814
19552TIP3    H280072   2.444   0.509   2.955  1.1458 -1.8885 -1.3837
19553TIP3   OH280073   1.038   0.646   3.881 -0.3791 -0.5378 -0.2636
19553TIP3    H180074   1.105   0.675   3.818  0.2799 -1.6403 -0.0999
19553TIP3    H280075   1.007   0.726   3.922 -0.4294  0.1565 -1.6170
19554TIP3   OH280076   5.183   4.954  12.636 -0.3551 -0.1495  0.5793
19554TIP3    H180077   5.196   5.011  12.560  0.8097  0.1753  1.0232
19554TIP3    H280078   5.271   4.934  12.667 -0.7098 -2.7181  0.0459
19555TIP3   OH280079   4.162   3.132  11.563 -0.3455 -0.3133 -0.3353
19555TIP3    H180080   4.135   3.126  11.471  0.1773 -0.2517 -0.4924
19555TIP3    H280081   4.244   3.083  11.567 -0.1588  0.0278  0.0191
19556TIP3   OH280082   4.030   6.094   0.482 -0.2489 -0.0406 -0.0103
19556TIP3    H180083   4.019   6.002   0.507 -0.6990  0.0546  0.1439
19556TIP3    H280084   4.039   6.140   0.566 -1.0503  0.1862 -0.0438
19557TIP3   OH280085   5.685   4.338   1.436  0.5304  0.6130 -0.5106
19557TIP3    H180086   5.759   4.397   1.421  1.3132 -0.2696 -0.1644
19557TIP3    H280087   5.720   4.251   1.419  0.2610 -0.0433  2.1093
19558TIP3   OH280088   2.932   3.585  17.027 -0.4674 -0.4794 -0.4999
19558TIP3    H180089   2.882   3.524  17.083 -1.0002 -0.4941 -0.9842
19558TIP3    H280090   3.011   3.537  17.004 -0.5088 -0.6877 -0.2160
19559TIP3   OH280091   1.727   2.467   0.869  0.1342  0.1339 -0.3422
19559TIP3    H180092   1.801   2.454   0.927 -0.0868 -0.4847 -0.1996
19559TIP3    H280093   1.675   2.535   0.912 -0.2869 -0.6658  0.4441
19560TIP3   OH280094   6.642   5.496  12.490  0.4413 -0.0636 -0.9192
19560TIP3    H180095   6.675   5.427  12.547 -0.9599  1.3248  1.7348
19560TIP3    H280096   6.719   5.545  12.463  0.9717  1.2830  2.6640
19561TIP3   OH280097   0.205   4.309   1.602  0.3050  0.6085  0.1954
19561TIP3    H180098   0.224   4.387   1.551 -0.7941 -0.4409 -1.8974
19561TIP3    H280099   0.132   4.335   1.660 -1.5203  0.5626 -2.0208
19562TIP3   OH280100   5.409   3.353   1.078  0.0491  0.1593 -0.7474
19562TIP3    H180101   5.461   3.363   1.158 -1.7536  0.5405  0.4109
19562TIP3    H280102   5.415   3.260   1.057 -0.1187 -0.0961  0.2935
19563TIP3   OH280103   3.048   6.085   2.990  0.1141  0.2797  0.4338
19563TIP3    H180104   3.029   6.035   3.069 -1.4732  1.5546  0.8935
19563TIP3    H280105   2.986   6.052   2.925  0.4630  0.2066  0.1385
19564TIP3   OH280106   1.042   1.973  13.956 -0.3467  0.3976  0.0699
19564TIP3    H180107   1.037   2.066  13.980  1.4964  0.7499 -0.8257
19564TIP3    H280108   0.985   1.929  14.019 -0.3197  1.9988  1.2542
19565TIP3   OH280109   2.086   6.064  14.329 -0.0528 -0.2167 -0.3239
19565TIP3    H180110   2.176   6.094  14.341 -0.1233 -0.3146  0.4778
19565TIP3    H280111   2.050   6.061  14.418  0.6641 -5.0532 -0.0567
19566TIP3   OH280112   6.691   1.341  13.475 -0.4918 -0.0265 -0.4123
19566TIP3    H180113   6.653   1.280  13.412 -1.6001  0.4304 -0.1886
19566TIP3    H280114   6.649   1.319  13.558 -0.0206  0.2648 -0.0959
19567TIP3   OH280115   0.185   4.962   2.021  0.1694 -0.1723  0.1702
19567TIP3    H180116   0.215   5.024   2.087 -0.1499 -1.8420  1.9212
19567TIP3    H280117   0.110   5.005   1.979 -0.2219  0.5158  1.5500
19568TIP3   OH280118   3.671   6.392   4.480 -0.3041  0.2810  0.1070
19568TIP3    H180119   3.721   6.314   4.504 -0.7030  0.0011  0.0293
19568TIP3    H280120   3.584   6.378   4.516 -0.4046  0.6534  0.0194
19569TIP3   OH280121   0.764   5.088  11.408  0.1799 -0.0097 -0.3003
19569TIP3    H180122   0.730   5.082  11.319  0.1570  0.5119 -0.3296
19569TIP3    H280123   0.754   5.181  11.432  0.0999 -0.1643  0.2777
19570TIP3   OH280124   0.645   5.314   0.453 -0.5217 -0.6554 -0.1033
19570TIP3    H180125   0.611   5.225   0.461 -0.9367 -0.5202 -0.3658
19570TIP3    H280126   0.609   5.347   0.371 -2.3505  0.6050  1.1494
19571TIP3   OH280127   4.023   2.181  14.855  0.0794  0.1952  0.7414
19571TIP3    H180128   4.108   2.153  14.822  0.1436  0.5273  0.6223
19571TIP3    H280129   3.974   2.100  14.868  1.6147 -0.2571  4.1464
19572TIP3   OH280130   0.906   5.670  13.585  0.2237  0.7181 -0.1417
19572TIP3    H180131   0.856   5.636  13.511  1.0479 -0.8248 -0.0185
19572TIP3    H280132   0.953   5.745  13.549  0.4643  0.1079 -1.1402
19573TIP3   OH280133   4.255   3.645   0.393 -0.0533 -0.3327 -0.4996
19573TIP3    H180134   4.312   3.588   0.445  0.4018  0.1504 -0.4636
19573TIP3    H280135   4.181   3.664   0.450  1.1069  1.3149  0.4831
19574TIP3   OH280136   5.933   6.642   5.064 -0.1542 -0.9282 -0.4054
19574TIP3    H180137   5.853   6.681   5.100  0.1769 -1.5378  1.0259
19574TIP3    H280138   5.945   6.686   4.980 -1.0442  0.4165  0.1479
19575TIP3   OH280139   0.997   3.170  12.762 -0.2576 -0.3965 -0.4838
19575TIP3    H180140   0.907   3.143  12.778 -0.9728  2.1354 -0.0016
19575TIP3    H280141   1.044   3.144  12.841 -0.9472 -0.1169  0.0283
19576TIP3   OH280142   6.379   1.006  16.071 -0.0823  0.0448 -0.8012
19576TIP3    H180143   6.341   1.015  15.984 -0.0333  3.0978 -0.5599
19576TIP3    H280144   6.473   1.010  16.056 -0.0706  0.4090 -0.6273
19577TIP3   OH280145   3.038   6.247  15.036  0.5405 -0.2817  0.4052
19577TIP3    H180146   3.062   6.178  15.098  1.3019 -0.0715  0.3483
19577TIP3    H280147   3.107   6.246  14.970 -0.7977 -1.1680 -1.0034
19578TIP3   OH280148   4.510   1.203   1.674 -0.2130  0.0945 -0.3366
19578TIP3    H180149   4.481   1.247   1.754 -0.3754  0.2709 -0.4932
19578TIP3    H280150   4.508   1.110   1.697 -0.1634  0.1488 -0.1043
19579TIP3   OH280151   0.361   2.184  15.033 -0.2877  0.1271  0.8221
19579TIP3    H180152   0.432   2.248  15.024  0.5836 -0.6826  1.9480
19579TIP3    H280153   0.288   2.224  14.986  0.4459  1.6590  0.9580
19580TIP3   OH280154   3.253   5.951  15.085  0.2623 -0.3075  0.2479
19580TIP3    H180155   3.230   5.862  15.060  0.7942 -1.1937  2.7571
19580TIP3    H280156   3.305   5.984  15.012 -0.5298 -1.7996 -1.0113
19581TIP3   OH280157   3.656   4.508  13.572 -0.3341 -0.6191  0.2536
19581TIP3    H180158   3.573   4.556  13.571  0.0191 -0.0125 -0.6378
19581TIP3    H280159   3.710   4.552  13.506  1.1375 -0.2616  1.6748
19582TIP3   OH280160   6.786   2.100  14.568  0.1935  0.2910 -0.6440
19582TIP3    H180161   6.700   2.121  14.531 -0.0087 -0.2821 -0.5142
19582TIP3    H280162   6.786   2.005  14.574 -0.3121  0.4325  2.0925
19583TIP3   OH280163   5.741   6.584   0.155  0.1458  0.8807  0.0309
19583TIP3    H180164   5.671   6.612   0.095 -0.2725 -0.5945 -0.1833
19583TIP3    H280165   5.790   6.518   0.106  0.1058  0.0242  1.1176
19584TIP3   OH280166   5.931   1.278   0.701 -0.1973  0.0528 -0.3782
19584TIP3    H180167   6.000   1.244   0.758  0.3164 -1.9856 -2.1526
19584TIP3    H280168   5.971   1.280   0.614 -1.5075  1.5300 -0.9691
19585TIP3   OH280169   0.042   0.055  12.096 -0.1850 -0.5575  0.0274
19585TIP3    H180170   0.103   0.006  12.151  0.6292  1.3639  0.8742
19585TIP3    H280171  -0.037   0.065  12.149  0.5763  1.2377  0.8575
19586TIP3   OH280172   2.472   3.604   0.100  0.4325 -0.4915  0.3909
19586TIP3    H180173   2.382   3.606   0.067  0.4575  1.6384  0.3842
19586TIP3    H280174   2.465   3.558   0.184 -0.1975 -2.7457 -0.8611
19587TIP3   OH280175   5.050   5.917  15.617 -0.1348 -0.6479 -0.9677
19587TIP3    H180176   4.980   5.947  15.673  0.4415  0.3806 -0.7815
19587TIP3    H280177   5.011   5.848  15.563 -1.2651 -0.0934 -0.8524
19588TIP3   OH280178   0.873   0.864   3.118 -0.0574  0.5571 -0.3140
19588TIP3    H180179   0.947   0.865   3.179  0.8026  0.8678 -1.3481
19588TIP3    H280180   0.796   0.856   3.174  0.7500  0.3740  0.7860
19589TIP3   OH280181   0.373   6.743   5.323 -0.4668  0.2000 -0.8947
19589TIP3    H180182   0.296   6.796   5.346 -0.1894  0.3042 -0.2039
19589TIP3    H280183   0.439   6.807   5.296 -1.6061 -0.0305 -4.5282
19590TIP3   OH280184   2.027   4.391  14.949  0.7333  0.1587  0.0862
19590TIP3    H180185   2.050   4.299  14.964  0.5291 -0.0844 -1.0944
19590TIP3    H280186   2.063   4.437  15.025  2.2754 -0.6612 -0.1326
19591TIP3   OH280187   4.107   6.303  17.228 -0.7357  0.2674 -0.6439
19591TIP3    H180188   4.141   6.216  17.208  1.5252  0.8047  0.6694
19591TIP3    H280189   4.021   6.306  17.186  0.7563 -1.2203 -3.9761
19592TIP3   OH280190   0.752   6.323   4.504 -0.0733 -0.1379 -0.2421
19592TIP3    H180191   0.768   6.388   4.436 -1.0797  0.0827 -0.2697
19592TIP3    H280192   0.782   6.240   4.466 -0.2697  0.0497 -0.8055
19593TIP3   OH280193   1.190   0.280   0.475 -0.2980 -0.1033 -0.2975
19593TIP3    H180194   1.262   0.331   0.437  0.9636 -1.7301 -0.1565
19593TIP3    H280195   1.134   0.345   0.517  0.6204  1.2780 -1.1725
19594TIP3   OH280196   0.003   3.941  11.548  0.6428 -0.1963 -0.1153
19594TIP3    H180197   0.087   3.984  11.566  1.2761 -1.6187  0.4355
19594TIP3    H280198  -0.060   3.984  11.605  0.7469  1.7058 -1.4022
19595TIP3   OH280199   4.965   2.284   6.266  0.0820  0.3567  0.6650
19595TIP3    H180200   5.033   2.350   6.249  1.0564 -0.4907  1.2539
19595TIP3    H280201   5.013   2.207   6.296 -0.7224 -1.7679 -3.1564
19596TIP3   OH280202   2.046   6.471  13.483  0.4601  0.3138  0.2486
19596TIP3    H180203   2.045   6.411  13.409 -0.2785  0.9397 -0.2494
19596TIP3    H280204   2.067   6.556  13.445 -1.3106  0.9027  0.5524
19597TIP3   OH280205   6.054   1.707  14.352 -0.1013  0.0159  0.1938
19597TIP3    H180206   6.018   1.643  14.290  1.4886 -0.0846 -0.6586
19597TIP3    H280207   6.115   1.655  14.406 -0.4375  0.3846  0.9335
19598TIP3   OH280208   2.097   6.595   4.653  0.1170 -0.6480 -0.8015
19598TIP3    H180209   2.128   6.531   4.716  1.4836 -1.5533 -2.3557
19598TIP3    H280210   2.008   6.618   4.683  0.4220 -1.6849  0.9258
19599TIP3   OH280211   5.211   0.135  12.917  0.3771  0.1779 -0.6221
19599TIP3    H180212   5.253   0.193  12.854 -2.1506 -0.3259 -2.8675
19599TIP3    H280213   5.124   0.172  12.930 -0.2134 -1.4424  0.2459
19600TIP3   OH280214   1.432   4.481  13.570  0.0168 -0.7751  0.2479
19600TIP3    H180215   1.427   4.531  13.651  0.2320 -0.6129  0.1633
19600TIP3    H280216   1.395   4.395  13.591 -0.9847 -0.3544  0.2081
19601TIP3   OH280217   0.448   1.082  16.831 -0.0827  0.2194  0.2675
19601TIP3    H180218   0.373   1.131  16.798 -0.5285  0.4189  1.5579
19601TIP3    H280219   0.475   1.026  16.758 -1.9683 -0.4364  0.0680
19602TIP3   OH280220   5.761   1.797  16.469  0.3762 -0.3076  0.2474
19602TIP3    H180221   5.724   1.882  16.493  3.4211  1.0169  0.3512
19602TIP3    H280222   5.790   1.807  16.379  0.4894 -1.3461  0.1614
19603TIP3   OH280223   4.498   4.094   4.726 -0.0504  0.6429 -0.2010
19603TIP3    H180224   4.508   4.133   4.639  2.2960  0.9330  0.1753
19603TIP3    H280225   4.552   4.147   4.783  0.5386 -1.1365  0.9495
19604TIP3   OH280226   2.772   6.085  11.042 -0.7511  0.0917 -0.0529
19604TIP3    H180227   2.814   6.120  10.963  0.6917 -0.3246  0.5175
19604TIP3    H280228   2.678   6.103  11.029 -0.5597 -0.1574 -1.9460
19605TIP3   OH280229   6.216   3.766  13.571  0.1502 -0.2991 -0.0641
19605TIP3    H180230   6.291   3.765  13.632 -1.6130 -1.0331  2.1620
19605TIP3    H280231   6.209   3.676  13.540  0.8805  0.0186 -1.1948
19606TIP3   OH280232   3.994   4.121   3.707  0.2786 -0.2610 -0.1646
19606TIP3    H180233   4.065   4.060   3.727 -0.7380 -1.9327 -1.4563
19606TIP3    H280234   3.916   4.065   3.701 -0.5656  1.0643 -2.0131
19607TIP3   OH280235   5.876   0.242   1.350  0.0607 -0.2136  0.1021
19607TIP3    H180236   5.953   0.239   1.406  0.0364 -1.1927  0.0772
19607TIP3    H280237   5.861   0.152   1.324 -3.2633 -0.5972  3.0340
19608TIP3   OH280238   3.399   6.273  15.031 -0.1327  0.6254  0.3947
19608TIP3    H180239   3.492   6.286  15.015 -0.1015 -0.3171 -0.2383
19608TIP3    H280240   3.365   6.240  14.948 -1.1755  1.6614  0.3939
19609TIP3   OH280241   5.510   2.929  10.929  0.0310 -0.1597 -0.3301
19609TIP3    H180242   5.596   2.931  10.887 -0.1864  0.2712 -0.7503
19609TIP3    H280243   5.454   2.884  10.866 -0.6639  1.8723 -1.1820
19610TIP3   OH280244   2.067   1.187   5.404  0.1849  0.6693  0.5942
19610TIP3    H180245   2.040   1.275   5.430  0.0310  0.1863  2.1287
19610TIP3    H280246   2.156   1.199   5.369 -0.1347  1.5411  0.0650
19611TIP3   OH280247   3.976   3.103   0.318 -0.2668  0.0692  0.6579
19611TIP3    H180248   4.011   3.190   0.338 -3.2503  1.2026  1.2653
19611TIP3    H280249   3.947   3.069   0.402 -0.0322 -1.1034  0.2729
19612TIP3   OH280250   1.355   5.856  15.146 -0.6088  0.0937 -0.0909
19612TIP3    H180251   1.337   5.943  15.111 -3.9509 -0.8081 -0.7514
19612TIP3    H280252   1.325   5.859  15.236  0.6094  0.0296  0.3270
19613TIP3   OH280253   0.866   4.198   4.641  0.0276  0.4386  0.5973
19613TIP3    H180254   0.945   4.233   4.681  1.3758 -1.1349 -0.5947
19613TIP3    H280255   0.877   4.103   4.647 -1.3329  0.2118 -0.4007
19614TIP3   OH280256   6.492   3.237   5.191  0.0721  0.3691  0.0142
19614TIP3    H180257   6.552   3.308   5.211  0.8440  0.0393 -1.0467
19614TIP3    H280258   6.509   3.217   5.099 -0.5624 -0.7801  0.1357
19615TIP3   OH280259   6.761   3.707  16.111 -0.5834  0.9100 -0.3872
19615TIP3    H180260   6.849   3.716  16.146 -1.0475  1.0438  0.7752
19615TIP3    H280261   6.704   3.710  16.188 -1.5557  0.1313 -1.0590
19616TIP3   OH280262   3.732   1.994  16.879  0.1498 -0.2581  0.1806
19616TIP3    H180263   3.746   1.900  16.867  3.0271 -0.0598  1.6873
19616TIP3    H280264   3.736   2.007  16.973 -1.0535  1.2752  0.0341
19617TIP3   OH280265   3.276   5.165  15.390  0.4801  0.1763  0.5892
19617TIP3    H180266   3.345   5.134  15.448 -2.3235 -1.6223  3.0664
19617TIP3    H280267   3.269   5.259  15.409  1.0242  0.0138  1.5875
19618TIP3   OH280268   3.911   0.142   2.574 -0.3132 -0.2072 -0.2826
19618TIP3    H180269   3.937   0.125   2.483  2.0089  1.6834 -0.0429
19618TIP3    H280270   3.816   0.155   2.570 -0.6639 -2.9422 -1.9633
19619TIP3   OH280271   3.855   6.483  14.462 -0.4127  0.0831 -0.2988
19619TIP3    H180272   3.844   6.520  14.375  1.6048  0.4380 -0.4265
19619TIP3    H280273   3.794   6.532  14.518 -1.7099 -0.1473 -1.4849
19620TIP3   OH280274   6.573   2.650  12.514  0.8884  0.2250  0.2156
19620TIP3    H180275   6.537   2.668  12.601  0.2595  1.6324 -0.3295
19620TIP3    H280276   6.654   2.702  12.511  1.0588 -0.0497  0.0611
19621TIP3   OH280277   3.522   4.966   1.407 -0.4138 -0.0008  0.1578
19621TIP3    H180278   3.541   4.992   1.317  0.3578 -1.0486  0.0161
19621TIP3    H280279   3.460   4.893   1.398  1.1938 -1.4297  0.3976
19622TIP3   OH280280   0.600   4.506   4.151 -0.2377 -0.1418  0.1287
19622TIP3    H180281   0.611   4.577   4.215 -0.6616  0.7124 -0.7502
19622TIP3    H280282   0.506   4.487   4.152  0.0757 -1.7648  1.4984
19623TIP3   OH280283   6.633   0.533   3.316 -0.2838 -0.0335 -0.1015
19623TIP3    H180284   6.674   0.447   3.325 -0.4155 -0.0704  0.1598
19623TIP3    H280285   6.540   0.515   3.304 -0.0611  0.0048 -1.9918
19624TIP3   OH280286   4.965   0.842  13.008 -0.0761 -0.2659  0.0214
19624TIP3    H180287   5.020   0.880  12.940 -0.5499  0.2413 -0.0901
19624TIP3    H280288   4.892   0.802  12.961 -0.8270  0.7902  0.2626
19625TIP3   OH280289   5.711   0.660   5.145  0.5191  0.3576  0.0503
19625TIP3    H180290   5.662   0.660   5.063  0.5677  0.7164  0.0199
19625TIP3    H280291   5.645   0.647   5.213  0.1993  2.2380  0.1125
19626TIP3   OH280292   5.012   3.494   3.153 -0.3447 -0.3127  0.1384
19626TIP3    H180293   4.990   3.453   3.237  1.9297  0.0504  0.9749
19626TIP3    H280294   4.958   3.573   3.150 -0.1546 -0.1044  1.4793
19627TIP3   OH280295   3.449   4.823   4.909 -0.2147 -0.2176 -0.1902
19627TIP3    H180296   3.502   4.786   4.838  1.1594 -2.3406  1.8488
19627TIP3    H280297   3.414   4.747   4.955 -0.8866  1.0878  1.5253
19628TIP3   OH280298   1.279   3.413  14.183  0.3801  0.0982 -0.6180
19628TIP3    H180299   1.323   3.331  14.158 -1.5322 -0.4601 -2.2454
19628TIP3    H280300   1.187   3.389  14.193 -0.6138  2.4875 -3.4154
19629TIP3   OH280301   2.021   3.459   0.191  0.5437 -0.4467  0.1380
19629TIP3    H180302   2.038   3.372   0.153 -1.5634 -1.4597  1.4448
19629TIP3    H280303   1.977   3.507   0.122  1.3605 -0.5349 -0.4554
19630TIP3   OH280304   1.918   3.509   1.353  0.2014 -0.2801  0.4246
19630TIP3    H180305   1.957   3.507   1.441 -0.0161 -1.4940  0.4936
19630TIP3    H280306   1.829   3.475   1.365  0.1024 -0.2629 -0.2374
19631TIP3   OH280307   2.288   6.094  12.539 -0.0628 -0.2001 -0.0126
19631TIP3    H180308   2.375   6.121  12.509 -0.1094 -1.1158 -1.0014
19631TIP3    H280309   2.300   6.076  12.633  1.0203 -1.1424 -0.3184
19632TIP3   OH280310   2.804   3.956  15.192 -0.0901  0.0179 -0.5357
19632TIP3    H180311   2.800   4.021  15.121  0.1299  0.6039 -0.0081
19632TIP3    H280312   2.873   3.987  15.250  0.8503 -1.3298 -0.9005
19633TIP3   OH280313   2.517   2.637   4.780  0.0207  0.1701  0.6591
19633TIP3    H180314   2.462   2.702   4.824 -0.2769 -0.9643  2.0204
19633TIP3    H280315   2.467   2.612   4.702  0.0317  1.4014  0.2563
19634TIP3   OH280316   2.945   2.687  10.775 -0.5462 -0.3814  0.0718
19634TIP3    H180317   2.885   2.633  10.827  0.7828 -1.8521  0.1154
19634TIP3    H280318   2.977   2.628  10.706 -0.7810  0.9973 -1.2447
19635TIP3   OH280319   1.218   5.957   1.243  0.5727 -0.1919 -0.2810
19635TIP3    H180320   1.198   5.972   1.336  1.7576  0.0779 -0.0536
19635TIP3    H280321   1.173   6.028   1.197  0.4009 -0.0271  0.1390
19636TIP3   OH280322   3.098   2.977   1.770 -0.1293 -0.2426 -0.1074
19636TIP3    H180323   3.013   3.018   1.755  0.2992  0.7982  0.2830
19636TIP3    H280324   3.161   3.048   1.758  0.6057 -0.7368  0.8077
19637TIP3   OH280325   3.180   6.297  12.585 -0.0145  0.7819  0.2179
19637TIP3    H180326   3.210   6.223  12.638 -2.4218  0.6887  1.5149
19637TIP3    H280327   3.254   6.359  12.586  1.1842 -0.6214  0.9569
19638TIP3   OH280328   1.144   4.902  11.613 -0.1977 -0.3697  0.5173
19638TIP3    H180329   1.186   4.988  11.614 -0.8648 -0.0090 -1.1486
19638TIP3    H280330   1.054   4.918  11.642  0.2102 -0.8123  2.0494
19639TIP3   OH280331   0.345   4.784   1.303  0.1083 -0.1253 -0.0078
19639TIP3    H180332   0.399   4.761   1.227  0.8496  0.6525  0.2726
19639TIP3    H280333   0.260   4.808   1.266  0.8152  1.3685 -0.6958
19640TIP3   OH280334   6.634   0.498  16.562 -0.3487 -0.5379 -0.1724
19640TIP3    H180335   6.661   0.454  16.643 -2.3379 -0.2508  0.6861
19640TIP3    H280336   6.577   0.569  16.592 -0.0193  0.4041 -1.7504
19641TIP3   OH280337   4.387   4.980   0.193  0.4814 -0.0577 -0.0036
19641TIP3    H180338   4.337   5.057   0.220 -0.8974 -0.6077 -0.9398
19641TIP3    H280339   4.322   4.909   0.192  1.5590 -1.0502  0.0221
19642TIP3   OH280340   6.627   2.272   3.132  0.3875  0.4258  0.2322
19642TIP3    H180341   6.556   2.311   3.079  0.0500 -0.7850 -0.2134
19642TIP3    H280342   6.699   2.335   3.124 -0.3482  1.2588 -0.0006
19643TIP3   OH280343   1.975   5.297   4.709 -0.1433 -0.7845  0.1255
19643TIP3    H180344   1.968   5.201   4.709  0.2216 -0.8167 -1.6407
19643TIP3    H280345   2.064   5.315   4.738  0.1054 -0.9946 -0.5233
19644TIP3   OH280346   6.520   2.725  12.790 -0.2400 -0.4824 -0.0654
19644TIP3    H180347   6.605   2.749  12.825  0.0493 -2.9809  1.0377
19644TIP3    H280348   6.457   2.753  12.857 -0.3460  1.7163 -1.0554
19645TIP3   OH280349   0.535   5.129  13.025 -0.7359 -0.2129  0.0292
19645TIP3    H180350   0.541   5.061  12.959  3.3658 -1.6311  1.7249
19645TIP3    H280351   0.506   5.084  13.104  0.3012  0.3013  0.7167
19646TIP3   OH280352   6.451   1.698   5.384  0.1519  0.3623  0.2589
19646TIP3    H180353   6.434   1.771   5.443  1.0587 -0.1262  1.1499
19646TIP3    H280354   6.381   1.702   5.319 -0.0284  1.7840  0.5239
19647TIP3   OH280355   3.083   4.451  16.558 -0.1856  0.7386  0.4946
19647TIP3    H180356   3.001   4.411  16.588  0.7117 -1.3696  0.2504
19647TIP3    H280357   3.110   4.507  16.631 -1.0503  0.2463  1.2116
19648TIP3   OH280358   1.049   4.884   2.128  0.0180  0.1390 -0.1601
19648TIP3    H180359   1.019   4.798   2.097  0.1395 -0.2921  0.9105
19648TIP3    H280360   0.972   4.922   2.171 -0.0153  0.5472 -0.5703
19649TIP3   OH280361   3.103   1.472   5.752 -0.1198  0.3254  0.9526
19649TIP3    H180362   3.015   1.455   5.719  0.0087  2.7110 -0.7518
19649TIP3    H280363   3.154   1.397   5.722 -0.8637  0.5780 -1.0690
19650TIP3   OH280364   5.736   1.937  17.159 -0.4214  0.0920 -0.5991
19650TIP3    H180365   5.791   1.982  17.095  0.7765  0.7304  0.8611
19650TIP3    H280366   5.649   1.936  17.118  0.4653 -0.1846 -2.5553
19651TIP3   OH280367   0.225   5.350  17.142  0.5787 -0.3104  0.3426
19651TIP3    H180368   0.207   5.283  17.208 -0.4423 -0.5734 -0.1951
19651TIP3    H280369   0.149   5.348  17.084  0.4198  1.5184  0.4800
19652TIP3   OH280370   1.902   5.748  11.107  0.0028 -0.0659 -0.3653
19652TIP3    H180371   1.810   5.730  11.088  0.1653 -0.5506 -0.7211
19652TIP3    H280372   1.950   5.684  11.053  0.6083  1.4338 -1.6376
19653TIP3   OH280373   1.289   3.012   2.489 -0.1128  0.3641  0.0959
19653TIP3    H180374   1.287   2.928   2.441  2.0787  1.1729 -1.4801
19653TIP3    H280375   1.268   2.988   2.579 -2.7150 -1.4412 -0.8994
19654TIP3   OH280376   1.313   4.048   0.973 -0.0879 -0.1368  0.3527
19654TIP3    H180377   1.390   4.054   0.916 -0.5902 -1.2807 -0.4663
19654TIP3    H280378   1.348   4.050   1.062  0.8865 -0.6859 -0.0183
19655TIP3   OH280379   2.790   0.155  12.110 -0.3924  0.5997  0.1834
19655TIP3    H180380   2.743   0.172  12.029  1.4133 -1.4321 -1.3724
19655TIP3    H280381   2.723   0.156  12.179 -2.2461  0.4024 -1.5897
19656TIP3   OH280382   4.500   2.529  12.393  0.3084 -0.9482 -0.5085
19656TIP3    H180383   4.485   2.445  12.436  1.0900 -1.3920 -1.0704
19656TIP3    H280384   4.422   2.580  12.411  0.3176 -1.3901  0.8008
19657TIP3   OH280385   5.975   6.011  13.492 -0.5592  0.1230 -0.4023
19657TIP3    H180386   5.936   6.079  13.546 -1.6588 -0.7782 -0.0346
19657TIP3    H280387   6.029   6.058  13.428 -0.4433  1.2674  0.5322
19658TIP3   OH280388   4.088   3.242   5.946 -0.1009 -0.2216 -0.4907
19658TIP3    H180389   3.995   3.238   5.924  0.0632 -1.8651 -0.8821
19658TIP3    H280390   4.092   3.302   6.021 -1.6187 -1.0747  0.2938
19659TIP3   OH280391   0.033   0.508   5.643  0.2252 -0.0893 -0.1962
19659TIP3    H180392   0.125   0.520   5.666  0.4867  0.0228 -1.2770
19659TIP3    H280393  -0.007   0.469   5.721  1.6290 -2.0958 -0.4483
19660TIP3   OH280394   2.439   3.781   4.739  0.5420  0.0404  0.6430
19660TIP3    H180395   2.442   3.808   4.647 -3.4960  0.1326  0.4397
19660TIP3    H280396   2.463   3.688   4.737 -0.8014 -0.2969 -0.7204
19661TIP3   OH280397   0.389   0.153   0.922  0.3468  0.8530  0.0902
19661TIP3    H180398   0.380   0.164   1.017 -0.0159 -0.9906  0.2843
19661TIP3    H280399   0.311   0.195   0.886 -0.7301 -0.5026  0.7719
19662TIP3   OH280400   6.408   6.043   3.567  0.3917 -0.1866  0.8724
19662TIP3    H180401   6.472   6.037   3.496  0.9682 -2.9705  1.5858
19662TIP3    H280402   6.327   6.071   3.524  0.3464 -3.2736 -1.1601
19663TIP3   OH280403   3.490   1.197  10.405 -0.3188 -0.4503  0.6266
19663TIP3    H180404   3.463   1.216  10.495 -0.8644 -1.9303  0.7921
19663TIP3    H280405   3.408   1.194  10.355 -0.3514 -3.0976  0.7693
19664TIP3   OH280406   3.664   1.234   4.320 -0.1769  0.4347  0.1553
19664TIP3    H180407   3.749   1.198   4.346 -0.1746  1.5083  1.7177
19664TIP3    H280408   3.600   1.182   4.368 -0.3073  0.8484  0.4295
19665TIP3   OH280409   4.842   1.342   3.338 -0.5367 -0.8783 -0.0337
19665TIP3    H180410   4.818   1.295   3.258  0.5761 -0.1992 -0.7767
19665TIP3    H280411   4.802   1.291   3.409  0.6065 -2.9479 -0.8221
19666TIP3   OH280412   4.909   2.759   3.746  0.0256 -0.4346  0.3106
19666TIP3    H180413   4.946   2.784   3.830 -0.2447 -1.1724  0.6485
19666TIP3    H280414   4.920   2.664   3.741 -0.1631 -0.4252 -0.3806
19667TIP3   OH280415   3.987   1.786   0.785  0.7070  0.2428  0.0870
19667TIP3    H180416   3.898   1.770   0.754  0.4499  1.1886  0.3292
19667TIP3    H280417   4.030   1.701   0.780  0.4860  0.2487 -2.2928
19668TIP3   OH280418   3.517   2.301  12.906  0.1553  0.0946 -0.5218
19668TIP3    H180419   3.500   2.220  12.955  3.8436  0.0756  0.9025
19668TIP3    H280420   3.505   2.371  12.971  2.0306  0.2922 -0.3618
19669TIP3   OH280421   0.583   6.330   1.129 -0.5836 -1.0296  1.1527
19669TIP3    H180422   0.499   6.347   1.087  1.4069 -0.3562 -2.8155
19669TIP3    H280423   0.611   6.414   1.164 -0.0303 -0.4807 -0.5689
19670TIP3   OH280424   5.748   1.514  13.854  0.1904  0.1750  0.2574
19670TIP3    H180425   5.709   1.587  13.902 -0.4696 -0.8201  1.2931
19670TIP3    H280426   5.688   1.440  13.872 -0.2322 -0.1426 -2.3613
19671TIP3   OH280427   0.821   2.150  13.329 -0.3581  0.1594  0.5013
19671TIP3    H180428   0.859   2.235  13.308  0.6086 -0.2702  0.4737
19671TIP3    H280429   0.825   2.145  13.424 -0.5879  0.2242  0.5150
19672TIP3   OH280430   3.052   0.483   5.838  0.0887  0.7554 -0.1968
19672TIP3    H180431   3.100   0.402   5.852  1.8586  1.7935 -0.2014
19672TIP3    H280432   2.999   0.494   5.917 -0.3953 -0.5564 -0.3315
19673TIP3   OH280433   5.326   1.646  13.194 -0.0205  0.2730  0.2742
19673TIP3    H180434   5.254   1.706  13.177 -1.3128 -1.2541  0.2325
19673TIP3    H280435   5.307   1.569  13.139  1.4730 -0.2738  0.4845
19674TIP3   OH280436   1.066   0.115  14.743  0.1742 -0.3142  0.2891
19674TIP3    H180437   1.156   0.144  14.734 -0.2091  0.5758 -0.7396
19674TIP3    H280438   1.038   0.093  14.654 -0.8750  0.1794  0.4878
19675TIP3   OH280439   1.206   0.263   2.669  0.1824 -0.8765  0.0796
19675TIP3    H180440   1.295   0.287   2.696 -0.0800  0.5297 -0.2338
19675TIP3    H280441   1.164   0.233   2.750  0.4426  0.0529  0.5720
19676TIP3   OH280442   3.111   4.313  16.903 -0.3495  0.0301 -0.1172
19676TIP3    H180443   3.191   4.272  16.937 -0.5817  0.7012  1.2765
19676TIP3    H280444   3.046   4.242  16.903 -0.1858 -0.1200  0.2612
19677TIP3   OH280445   5.532   3.987  15.343 -0.4149 -0.1704 -1.0746
19677TIP3    H180446   5.512   4.052  15.275  0.3369  0.5249 -0.6439
19677TIP3    H280447   5.600   3.932  15.304 -0.1153  0.1146 -0.9559
19678TIP3   OH280448   2.866   0.290   4.470  0.3237  0.3182 -0.7735
19678TIP3    H180449   2.874   0.255   4.381 -0.1730 -1.8092 -0.0182
19678TIP3    H280450   2.774   0.313   4.479  0.5370  1.2976 -1.0790
19679TIP3   OH280451   4.923   4.159   6.269 -0.4330 -0.3034  0.9752
19679TIP3    H180452   4.852   4.102   6.238  0.1977 -1.2454  1.2427
19679TIP3    H280453   4.943   4.216   6.194 -0.7509 -0.7479  0.5510
19680TIP3   OH280454   4.857   6.616  13.566  1.1761  0.2114  0.2403
19680TIP3    H180455   4.782   6.588  13.513  2.2683  0.1720 -1.3303
19680TIP3    H280456   4.922   6.645  13.502  3.4635 -2.0828  1.4073
19681TIP3   OH280457   4.113   4.974  17.041 -0.2184 -0.2361 -0.4265
19681TIP3    H180458   4.037   4.965  17.099 -0.7012 -2.2621 -1.3219
19681TIP3    H280459   4.113   5.067  17.015 -2.1847 -0.1362 -0.1378
19682TIP3   OH280460   1.873   0.452  12.300 -0.0707 -0.0410 -0.1167
19682TIP3    H180461   1.789   0.405  12.304  0.8128 -1.6854 -0.4275
19682TIP3    H280462   1.866   0.518  12.369 -0.6871 -1.7834  1.5387
19683TIP3   OH280463   6.247   3.466   3.756  0.1534 -0.0395  0.0018
19683TIP3    H180464   6.337   3.479   3.787  0.7186 -1.8617 -0.8061
19683TIP3    H280465   6.222   3.380   3.789 -1.8995  1.1248  1.5638
19684TIP3   OH280466   1.912   5.909  12.513 -0.1032 -0.1383 -0.0894
19684TIP3    H180467   1.927   5.877  12.602 -0.3783 -1.0821 -0.3780
19684TIP3    H280468   1.836   5.859  12.482  1.1669 -1.2142 -1.5468
19685TIP3   OH280469   6.114   0.379  16.397 -0.2015  0.0469  0.1462
19685TIP3    H180470   6.126   0.468  16.364  1.4399  0.0507  0.7166
19685TIP3    H280471   6.111   0.325  16.318  0.2185  0.4577 -0.1569
19686TIP3   OH280472   2.277   3.348  15.574 -0.2166  0.8106 -0.0022
19686TIP3    H180473   2.296   3.426  15.521 -0.9778  0.9474 -0.0755
19686TIP3    H280474   2.212   3.377  15.638 -0.2118  0.3335  0.2211
19687TIP3   OH280475   3.538   4.704  12.715  0.1233 -0.0408 -0.1672
19687TIP3    H180476   3.551   4.798  12.722  1.4899 -0.3555  1.9999
19687TIP3    H280477   3.562   4.670  12.801 -1.7280 -2.2234 -0.4698
19688TIP3   OH280478   3.655   2.733  15.727 -0.0136 -0.5352 -0.1348
19688TIP3    H180479   3.580   2.759  15.673 -0.9823 -0.6799  1.1243
19688TIP3    H280480   3.713   2.810  15.727 -1.2843  0.4455  0.8182
19689TIP3   OH280481   2.127   1.465  11.810  0.6244 -0.2211 -0.0537
19689TIP3    H180482   2.181   1.386  11.805  0.1701 -0.3993 -2.8864
19689TIP3    H280483   2.047   1.437  11.854  1.8931 -0.4862  2.1378
19690TIP3   OH280484   4.494   2.631  14.472 -0.2259 -0.0491  0.0082
19690TIP3    H180485   4.471   2.595  14.557 -1.7096 -0.9468 -0.7479
19690TIP3    H280486   4.415   2.675  14.441  1.0094  2.3250  0.1028
19691TIP3   OH280487   3.101   5.764  15.864 -0.9125  0.0344 -0.8592
19691TIP3    H180488   3.174   5.723  15.910  0.4634  0.8586 -2.2411
19691TIP3    H280489   3.023   5.734  15.910  0.1883 -2.2909 -0.4484
19692TIP3   OH280490   5.919   5.080   6.187 -0.1085 -0.4022  0.1259
19692TIP3    H180491   5.873   5.133   6.252  0.3229  0.8299 -0.5568
19692TIP3    H280492   5.989   5.037   6.237  1.1790  1.7453  0.2001
19693TIP3   OH280493   2.301   4.117  15.358 -0.4461 -0.0159 -0.4178
19693TIP3    H180494   2.298   4.204  15.320  2.7210  0.7310  0.8300
19693TIP3    H280495   2.362   4.069  15.303  2.2328  0.3248  2.1127
19694TIP3   OH280496   2.297   2.074   4.157  0.5994  0.0065 -0.0098
19694TIP3    H180497   2.301   2.082   4.252 -0.9067 -0.1095  0.0765
19694TIP3    H280498   2.271   2.162   4.127  0.9139  0.0014 -0.3018
19695TIP3   OH280499   0.238   0.319   4.413  0.5378 -0.1091  0.1392
19695TIP3    H180500   0.244   0.397   4.468 -0.7381 -0.1102  0.2869
19695TIP3    H280501   0.312   0.264   4.441  0.9729  0.6952  0.5757
19696TIP3   OH280502   1.195   3.428  15.061 -0.4114 -0.0728 -0.2504
19696TIP3    H180503   1.176   3.476  14.981  0.0266  0.9918  0.2755
19696TIP3    H280504   1.116   3.436  15.114 -1.0255 -1.5118 -0.9196
19697TIP3   OH280505   4.803   3.319  12.669  0.9135  0.2897 -0.0007
19697TIP3    H180506   4.793   3.264  12.592  0.9536  1.7714 -1.0816
19697TIP3    H280507   4.847   3.263  12.733 -1.1743 -1.6747 -0.2294
19698TIP3   OH280508   5.875   0.539   5.611  0.8434 -0.0174  0.0127
19698TIP3    H180509   5.934   0.473   5.575  0.0751 -1.7228  1.7382
19698TIP3    H280510   5.788   0.498   5.607  0.2716  1.1052  0.5915
19699TIP3   OH280511   2.788   1.989  14.187  0.2212  0.0385  0.0066
19699TIP3    H180512   2.722   2.057  14.175  0.1717  0.2025  1.1789
19699TIP3    H280513   2.794   1.946  14.101 -1.3684  0.0574 -0.1320
19700TIP3   OH280514   6.640   3.924  13.638 -0.2512  0.1891  0.0470
19700TIP3    H180515   6.719   3.894  13.682  0.9371  2.5272 -0.4224
19700TIP3    H280516   6.572   3.862  13.666  1.5887 -1.5212  0.8990
19701TIP3   OH280517   6.217   2.965  13.955 -0.1294  0.1173  0.6003
19701TIP3    H180518   6.148   2.899  13.954  2.2182 -2.4438 -0.6097
19701TIP3    H280519   6.285   2.928  14.011  1.7552  0.8859 -1.0884
19702TIP3   OH280520   2.877   0.379   5.164 -0.3293  0.0935  0.2945
19702TIP3    H180521   2.850   0.380   5.256 -1.1957 -2.4701  0.1344
19702TIP3    H280522   2.959   0.330   5.163 -1.5608 -2.0511 -0.5254
19703TIP3   OH280523   6.632   6.300   6.152  0.3726 -0.2582  0.2135
19703TIP3    H180524   6.582   6.337   6.226 -0.8846 -0.5113 -0.4993
19703TIP3    H280525   6.714   6.350   6.152 -0.0600  0.4806  1.1124
19704TIP3   OH280526   3.187   0.897   6.459 -0.0056  0.2839 -0.0609
19704TIP3    H180527   3.186   0.981   6.506 -1.8704  0.6349 -0.6950
19704TIP3    H280528   3.233   0.915   6.377 -0.6332  0.7538 -0.3098
19705TIP3   OH280529   0.842   4.375  16.387  0.1284  0.1212 -0.2197
19705TIP3    H180530   0.932   4.384  16.356  0.1380  0.9558  0.0314
19705TIP3    H280531   0.833   4.444  16.454 -0.5863 -0.1810 -0.0016
19706TIP3   OH280532   2.469   5.279   0.827 -0.7053 -0.8905  0.0733
19706TIP3    H180533   2.511   5.260   0.743 -1.8054  0.2647 -0.7722
19706TIP3    H280534   2.453   5.194   0.866 -1.8304 -1.5381 -1.7395
19707TIP3   OH280535   6.716   1.364   1.261  0.2079  0.9029 -0.0285
19707TIP3    H180536   6.751   1.452   1.245  1.5164  0.4358  0.1939
19707TIP3    H280537   6.670   1.342   1.180  0.5315  1.4919 -0.3798
19708TIP3   OH280538   4.429   3.662  11.536 -0.6727  0.1003  0.1319
19708TIP3    H180539   4.484   3.709  11.473  0.5592 -1.2962  0.1595
19708TIP3    H280540   4.490   3.623  11.598 -1.5614 -2.6693 -0.6639
19709TIP3   OH280541   5.155   1.208  15.950  0.2219  0.3878  0.6212
19709TIP3    H180542   5.096   1.281  15.968 -0.4441  0.5458 -2.0864
19709TIP3    H280543   5.228   1.247  15.901 -0.0079 -0.7001 -0.6174
19710TIP3   OH280544   3.477   2.607   2.835  0.0765  0.4022  0.0234
19710TIP3    H180545   3.571   2.585   2.837 -0.2609 -1.1924 -0.3558
19710TIP3    H280546   3.467   2.679   2.897  1.2994 -0.4733  1.2641
19711TIP3   OH280547   3.574   0.649  14.619  0.1774 -0.1533 -0.1215
19711TIP3    H180548   3.596   0.572  14.671 -0.8955 -0.6191 -0.3550
19711TIP3    H280549   3.573   0.721  14.682 -1.6512 -0.8020  0.5937
19712TIP3   OH280550   2.847   2.531   5.718  0.2945 -0.0238 -0.1638
19712TIP3    H180551   2.930   2.547   5.674  0.8206  0.6565  1.0517
19712TIP3    H280552   2.870   2.520   5.811 -0.9870  0.4706  0.2310
19713TIP3   OH280553   2.345   1.101  13.294  0.2216  0.3501 -0.3571
19713TIP3    H180554   2.337   1.032  13.228  0.3352 -1.5411  1.5497
19713TIP3    H280555   2.255   1.117  13.321  0.2123  0.8122 -0.6698
19714TIP3   OH280556   0.957   0.694  11.491  0.0954 -0.1445  0.0123
19714TIP3    H180557   0.993   0.774  11.453  0.6050 -0.2322  0.3083
19714TIP3    H280558   0.869   0.687  11.453  0.5646 -0.1902 -1.0822
19715TIP3   OH280559   4.706   4.074   1.885 -0.0853  0.0848  0.7048
19715TIP3    H180560   4.746   3.998   1.842  1.2972  0.3568  1.4922
19715TIP3    H280561   4.776   4.139   1.890 -1.1079  1.2174  0.5543
19716TIP3   OH280562   4.138   4.227   4.125 -0.1347 -0.4887  0.0510
19716TIP3    H180563   4.206   4.289   4.150 -0.1809 -1.1278  1.8723
19716TIP3    H280564   4.059   4.280   4.117  0.2957  0.0412 -0.7021
19717TIP3   OH280565   2.938   3.558   5.931 -0.3023  0.0022  0.2158
19717TIP3    H180566   2.918   3.477   5.884 -0.8530  0.0238  0.4040
19717TIP3    H280567   2.942   3.532   6.023  1.3597 -0.1489  0.1136
19718TIP3   OH280568   4.598   2.409   2.366 -0.4938 -0.3160  1.0466
19718TIP3    H180569   4.573   2.457   2.445 -2.4805  1.3462 -0.5198
19718TIP3    H280570   4.515   2.395   2.320  0.7562 -0.0698 -1.3748
19719TIP3   OH280571   6.704   1.675   2.170 -0.1444 -0.2472  0.6194
19719TIP3    H180572   6.677   1.760   2.205  0.0005 -0.5326  1.4499
19719TIP3    H280573   6.728   1.624   2.248 -0.1919 -1.0341  0.1260
19720TIP3   OH280574   2.175   4.267  14.741  0.1863  0.1377  0.4342
19720TIP3    H180575   2.123   4.335  14.782 -0.0744  0.0378  0.2706
19720TIP3    H280576   2.265   4.287  14.766  0.1344  0.6836  0.1815
19721TIP3   OH280577   5.703   1.930  15.575 -0.1979  0.2798  0.2120
19721TIP3    H180578   5.699   1.953  15.482  0.6022  0.6315  0.2576
19721TIP3    H280579   5.789   1.962  15.603 -1.5543  2.7087  1.7417
19722TIP3   OH280580   4.382   3.476  13.812  0.3497 -0.0730  0.1635
19722TIP3    H180581   4.444   3.407  13.790 -1.0787 -1.8465  1.5799
19722TIP3    H280582   4.302   3.455  13.763 -1.0558 -1.0813  2.7870
19723TIP3   OH280583   5.358   0.708  13.229 -0.6809  0.1858 -0.0440
19723TIP3    H180584   5.403   0.744  13.153 -2.1875  1.7089 -0.2358
19723TIP3    H280585   5.357   0.613  13.214  0.7289  0.3114 -0.9628
19724TIP3   OH280586   5.180   5.890   2.688 -0.0846 -0.5288  0.2689
19724TIP3    H180587   5.139   5.977   2.684  2.3738  0.5757 -4.2096
19724TIP3    H280588   5.242   5.897   2.760  0.2329  1.5660 -0.1562
19725TIP3   OH280589   1.487   1.373   1.157 -0.1436 -0.0628 -0.3557
19725TIP3    H180590   1.556   1.375   1.222 -1.0940 -0.3435  0.6751
19725TIP3    H280591   1.470   1.465   1.136  0.2639  0.0198 -0.3292
19726TIP3   OH280592   2.728   5.956  15.974 -0.0031 -0.0403  0.4088
19726TIP3    H180593   2.640   5.993  15.964  0.3242  0.9090  1.0029
19726TIP3    H280594   2.775   5.984  15.895  0.4491  1.4345  1.1717
19727TIP3   OH280595   3.105   4.865   0.019 -0.1711 -0.1693  0.0978
19727TIP3    H180596   3.104   4.796   0.085 -0.4972  0.1139  0.3939
19727TIP3    H280597   3.192   4.859  -0.021 -0.4103 -1.1233 -0.2795
19728TIP3   OH280598   2.038   5.998   1.493  0.2732 -0.4034  0.8446
19728TIP3    H180599   2.111   5.976   1.551  0.2492 -0.1761  0.9613
19728TIP3    H280600   1.976   5.926   1.504  1.2534 -1.4979 -0.5648
19729TIP3   OH280601   0.380   1.098  14.346  0.6223 -0.1391 -0.1684
19729TIP3    H180602   0.367   1.184  14.307 -0.6038 -0.2690 -0.0793
19729TIP3    H280603   0.392   1.039  14.272  1.3022  0.0841 -0.2368
19730TIP3   OH280604   5.094   1.855  14.356  0.5173  0.1073  0.1300
19730TIP3    H180605   5.152   1.830  14.427  1.3102  3.4974  0.7532
19730TIP3    H280606   5.016   1.891  14.399 -0.1192 -0.2376 -0.7063
19731TIP3   OH280607   0.138   6.738   2.946  0.3654  0.5663 -0.2928
19731TIP3    H180608   0.057   6.789   2.958  0.3562  1.0577 -2.1554
19731TIP3    H280609   0.177   6.775   2.866  1.3675 -1.0579 -0.5711
19732TIP3   OH280610   1.662   2.680   4.512  0.1328 -0.5767 -0.3272
19732TIP3    H180611   1.726   2.746   4.538  1.0697 -1.3444 -0.6975
19732TIP3    H280612   1.588   2.731   4.477  0.0812  0.3439  1.1001
19733TIP3   OH280613   1.807   1.132   3.044  0.4163 -0.2415  0.5485
19733TIP3    H180614   1.768   1.152   3.129 -1.5033  2.3980 -0.8906
19733TIP3    H280615   1.740   1.083   2.998  0.5082  0.4183 -0.2974
19734TIP3   OH280616   5.051   2.296  15.141  0.4231  0.6650  0.1446
19734TIP3    H180617   5.033   2.291  15.047  1.7055  2.2659 -0.2094
19734TIP3    H280618   5.131   2.245  15.152  0.0008  0.0673  0.4511
19735TIP3   OH280619   0.084   1.204   3.730 -0.6312  0.0887  0.3437
19735TIP3    H180620   0.054   1.276   3.786 -1.2071  0.1820 -0.0714
19735TIP3    H280621   0.150   1.159   3.781 -0.2327  0.9495  0.5894
19736TIP3   OH280622   2.272   1.141   2.413 -0.5546  0.1261  0.2115
19736TIP3    H180623   2.224   1.127   2.495  0.1338 -0.7206  0.4802
19736TIP3    H280624   2.206   1.172   2.351 -1.8957 -3.0400 -0.0323
19737TIP3   OH280625   2.087   1.743  12.225  0.0760 -0.5024  0.2954
19737TIP3    H180626   2.070   1.822  12.173  0.7718 -0.6843 -0.2164
19737TIP3    H280627   2.039   1.758  12.306  0.1640  0.4416  0.1912
19738TIP3   OH280628   3.042   0.001  14.868 -0.1364  0.5082  0.1559
19738TIP3    H180629   3.105   0.012  14.939 -0.0114  0.8984 -0.0139
19738TIP3    H280630   2.979   0.072  14.880 -2.0402 -1.4102  1.8773
19739TIP3   OH280631   0.017   5.742   2.031  0.1445 -0.3563 -0.5800
19739TIP3    H180632   0.021   5.647   2.016  1.0618 -0.4618  0.2949
19739TIP3    H280633   0.100   5.763   2.073 -0.1990  0.7866 -0.4672
19740TIP3   OH280634   1.682   1.692   0.364  0.5049 -0.5292 -0.1891
19740TIP3    H180635   1.681   1.617   0.306  0.6255 -0.8781  0.2608
19740TIP3    H280636   1.641   1.762   0.313  4.8378  0.5030 -2.4708
19741TIP3   OH280637   1.302   0.553   1.342  0.2244 -0.0001 -0.1425
19741TIP3    H180638   1.368   0.587   1.282  0.7256 -0.4430  0.1591
19741TIP3    H280639   1.226   0.536   1.287 -0.8826  3.8657  0.0371
19742TIP3   OH280640   3.367   3.342  16.905 -0.0166  0.2473  0.0234
19742TIP3    H180641   3.296   3.296  16.860 -1.2394  0.0445  2.0956
19742TIP3    H280642   3.392   3.283  16.976  1.2220  0.9920  0.2212
19743TIP3   OH280643   0.406   2.378  14.085 -0.2892 -0.2506 -0.1258
19743TIP3    H180644   0.337   2.385  14.019 -0.1564 -0.2276 -0.2609
19743TIP3    H280645   0.483   2.418  14.045 -0.7363  1.6087  0.7853
19744TIP3   OH280646   2.247   2.903   4.625 -0.6775  0.2439 -0.9091
19744TIP3    H180647   2.256   2.842   4.552 -1.0828  1.0052 -1.5926
19744TIP3    H280648   2.264   2.989   4.588  1.7366  0.3817  0.4510
19745TIP3   OH280649   3.185   1.147   3.832 -0.2323  0.2715  0.1792
19745TIP3    H180650   3.195   1.164   3.738 -0.5515  0.1293  0.1194
19745TIP3    H280651   3.179   1.051   3.838 -1.4794  0.3488  0.2213
19746TIP3   OH280652   0.346   2.084  13.174  0.0735  0.5809  0.0275
19746TIP3    H180653   0.382   2.031  13.103 -3.7652 -1.0676 -0.8576
19746TIP3    H280654   0.399   2.062  13.250  0.5186 -2.2039 -1.0284
19747TIP3   OH280655   1.006   3.462   5.326  0.6534 -0.1183 -0.4327
19747TIP3    H180656   0.921   3.472   5.283 -0.2160  0.2623  1.3563
19747TIP3    H280657   1.024   3.368   5.322 -1.7483 -0.7954  2.6677
19748TIP3   OH280658   2.150   3.300  12.389  0.1668  0.0123  0.2229
19748TIP3    H180659   2.092   3.325  12.460 -0.4568  1.3982 -0.7478
19748TIP3    H280660   2.238   3.316  12.422 -0.1124  0.5345  0.7181
19749TIP3   OH280661   1.455   5.835  13.512 -0.1070  0.6936 -0.0465
19749TIP3    H180662   1.415   5.895  13.574  0.6477 -0.2870  1.4321
19749TIP3    H280663   1.386   5.814  13.450 -0.8140  1.8575  0.3436
19750TIP3   OH280664   6.754   5.987  13.768 -0.2801 -0.4630  0.0226
19750TIP3    H180665   6.694   5.994  13.843 -0.6432  0.7009 -0.3715
19750TIP3    H280666   6.696   5.972  13.693 -0.0725  0.6223 -0.3544
19751TIP3   OH280667   3.103   6.118   3.776 -0.5160 -0.5589  0.4300
19751TIP3    H180668   3.135   6.068   3.701 -0.5294  0.7721 -0.4799
19751TIP3    H280669   3.061   6.195   3.737 -1.6063 -0.4748  1.7590
19752TIP3   OH280670   3.013   4.738   4.715 -0.6545 -0.1226 -0.4746
19752TIP3    H180671   2.997   4.831   4.730 -0.6418 -0.3249  0.8119
19752TIP3    H280672   3.106   4.732   4.694 -0.8268  0.2422 -1.4009
19753TIP3   OH280673   2.584   3.493   5.813  0.0444 -0.2501  0.1918
19753TIP3    H180674   2.672   3.504   5.777 -0.5258  0.2225 -1.0711
19753TIP3    H280675   2.561   3.402   5.794  1.2848 -1.1706  2.8664
19754TIP3   OH280676   3.835   6.333   1.402 -0.4676  0.1385 -0.5929
19754TIP3    H180677   3.847   6.330   1.497 -0.4527  1.1053 -0.5680
19754TIP3    H280678   3.895   6.401   1.371  0.3471 -0.9255 -1.4319
19755TIP3   OH280679   2.155   0.621   3.105 -0.0359  0.3351  0.2159
19755TIP3    H180680   2.186   0.531   3.114 -2.1797 -0.3219  1.6055
19755TIP3    H280681   2.226   0.675   3.139  0.4303 -0.9827  1.3928
19756TIP3   OH280682   2.863   0.973   3.884 -0.0392 -0.3323  0.2765
19756TIP3    H180683   2.811   0.914   3.939  0.5217  2.0878  3.5045
19756TIP3    H280684   2.953   0.942   3.895  0.1665  0.6587  1.3542
19757TIP3   OH280685   2.233   4.450  12.766  0.7986  0.4111 -0.0999
19757TIP3    H180686   2.153   4.407  12.735  0.5812  0.8710 -0.1875
19757TIP3    H280687   2.202   4.516  12.829  1.0068  1.4151 -1.0326
19758TIP3   OH280688   3.368   0.176  15.934  0.2614 -0.3713 -0.6957
19758TIP3    H180689   3.362   0.085  15.905  2.2680 -0.1914 -1.7975
19758TIP3    H280690   3.306   0.223  15.878  2.4009 -0.4118 -3.2113
19759TIP3   OH280691   2.873   3.524   3.659  0.1791 -0.0214 -0.3114
19759TIP3    H180692   2.914   3.442   3.684  1.8572  0.8193 -0.2340
19759TIP3    H280693   2.785   3.519   3.695  0.3407 -1.6887 -0.1202
19760TIP3   OH280694   1.871   5.222  11.733 -0.1830 -0.2071 -0.3278
19760TIP3    H180695   1.861   5.263  11.647 -1.2470 -0.5092 -0.3575
19760TIP3    H280696   1.828   5.281  11.794 -1.6216 -1.1962 -0.3558
19761TIP3   OH280697   3.350   0.442   1.734  0.0632  0.2344 -0.0196
19761TIP3    H180698   3.347   0.479   1.822  0.3826  1.0687 -0.3519
19761TIP3    H280699   3.309   0.356   1.742 -0.7201  0.6768  0.7596
19762TIP3   OH280700   6.054   1.867  11.284 -0.1915  0.1972  0.1675
19762TIP3    H180701   5.971   1.830  11.253 -0.6679  1.3235  0.0856
19762TIP3    H280702   6.028   1.932  11.349  0.6218  0.6501  0.0443
19763TIP3   OH280703   0.738   4.371   2.168  0.0503 -0.0367 -0.4347
19763TIP3    H180704   0.811   4.325   2.209  0.3035 -1.1098 -2.0029
19763TIP3    H280705   0.674   4.382   2.237  1.6372  0.7901  0.9344
19764TIP3   OH280706   0.040   5.588  15.972 -0.3108  0.1361  0.6738
19764TIP3    H180707  -0.052   5.604  15.991 -0.9650 -1.4990 -0.9095
19764TIP3    H280708   0.073   5.673  15.942 -1.8137  0.3078 -0.5941
19765TIP3   OH280709   1.855   0.124  13.361 -0.1877 -0.1138 -0.0895
19765TIP3    H180710   1.878   0.071  13.437  1.1566 -0.4635 -0.7366
19765TIP3    H280711   1.770   0.090  13.334 -0.5734 -0.1464  1.0976
19766TIP3   OH280712   1.766   4.785   6.769 -0.4094 -0.0978  0.2387
19766TIP3    H180713   1.677   4.815   6.788 -1.4999 -1.9853 -1.6519
19766TIP3    H280714   1.760   4.690   6.769  1.8858 -0.2750  1.2168
19767TIP3   OH280715   6.152   0.725  15.957  0.3164 -0.1092  0.6967
19767TIP3    H180716   6.078   0.664  15.961  0.3702 -0.2667 -0.5530
19767TIP3    H280717   6.199   0.701  15.877  0.0746  1.8588 -0.0827
19768TIP3   OH280718   6.383   5.035  15.875  0.2862 -0.1110 -0.0182
19768TIP3    H180719   6.451   4.985  15.921  0.3732  0.5771  0.6037
19768TIP3    H280720   6.308   4.975  15.870  0.7568 -0.6838 -0.2384
19769TIP3   OH280721   6.409   0.400  16.414  0.7353  0.1027  0.5058
19769TIP3    H180722   6.320   0.379  16.440  0.5694  1.1076  0.7884
19769TIP3    H280723   6.401   0.426  16.322  0.6450  0.6860  0.6726
19770TIP3   OH280724   1.888   4.229   2.049  0.4359 -0.4748  0.0564
19770TIP3    H180725   1.899   4.322   2.070 -3.2281  0.2973 -1.0425
19770TIP3    H280726   1.814   4.200   2.103  1.0532 -2.5520 -0.1584
19771TIP3   OH280727   1.520   1.357   3.612 -0.1820  0.3104 -0.6389
19771TIP3    H180728   1.613   1.368   3.594  0.6776 -1.3271  2.4140
19771TIP3    H280729   1.491   1.443   3.645  0.4378  0.6030 -0.8582
19772TIP3   OH280730   1.734   4.285  11.163 -0.2523 -0.2078  0.5779
19772TIP3    H180731   1.697   4.364  11.122  0.6747 -0.3609 -0.5906
19772TIP3    H280732   1.746   4.224  11.090  1.1300 -0.6215  1.1422
19773TIP3   OH280733   5.858   0.716  17.239 -0.6180 -0.3284 -0.1891
19773TIP3    H180734   5.871   0.621  17.229  0.9104  0.0733 -2.5515
19773TIP3    H280735   5.945   0.750  17.259 -0.4811  0.9212 -2.6823
19774TIP3   OH280736   2.675   3.703   4.963 -0.0267  0.6014 -0.2610
19774TIP3    H180737   2.715   3.624   4.926  0.6031  0.5129  0.6166
19774TIP3    H280738   2.664   3.761   4.888  0.2018 -0.0260 -0.7842
19775TIP3   OH280739   6.376   1.551  13.515  0.4924  0.1665  0.2116
19775TIP3    H180740   6.294   1.520  13.476 -0.8738  3.1736  0.5200
19775TIP3    H280741   6.418   1.602  13.446  1.2518  0.0618  0.5935
19776TIP3   OH280742   4.971   4.275  16.186  0.3284 -0.0362  0.0998
19776TIP3    H180743   4.977   4.180  16.191 -0.0953 -0.0429  0.4492
19776TIP3    H280744   4.914   4.300  16.259  1.2122  0.5588  0.6096
19777TIP3   OH280745   4.672   0.359  15.297 -0.0269  0.3721  0.1740
19777TIP3    H180746   4.676   0.328  15.387  0.8389  0.1053  0.0420
19777TIP3    H280747   4.583   0.393  15.288 -1.0645 -2.1698  0.2847
19778TIP3   OH280748   2.207   0.233  16.586 -0.3932  0.0187 -0.5461
19778TIP3    H180749   2.212   0.210  16.493  0.1023  2.1110 -1.0728
19778TIP3    H280750   2.296   0.258  16.609 -0.8005  0.8916  0.0980
19779TIP3   OH280751   2.832   0.532  16.488  0.5441 -0.3284 -0.5492
19779TIP3    H180752   2.875   0.449  16.505 -0.2090 -0.8259 -1.0400
19779TIP3    H280753   2.827   0.538  16.393 -0.9786 -0.5589 -0.5020
19780TIP3   OH280754   3.401   1.780   4.960  0.1643  0.1105 -0.5079
19780TIP3    H180755   3.407   1.819   4.873 -0.7641  0.3149 -0.4780
19780TIP3    H280756   3.421   1.851   5.021 -3.1001  0.9660 -0.3775
19781TIP3   OH280757   6.422   5.740  16.363 -0.3421 -0.3357 -0.0098
19781TIP3    H180758   6.514   5.749  16.384 -0.0546 -0.7436 -1.0177
19781TIP3    H280759   6.375   5.762  16.443  0.6653 -1.0507  0.7832
19782TIP3   OH280760   4.340   6.563   3.583  0.0037 -0.2371 -0.1915
19782TIP3    H180761   4.279   6.496   3.554  0.8073 -1.4289  0.8021
19782TIP3    H280762   4.311   6.587   3.671  0.4846 -0.2092 -0.0386
19783TIP3   OH280763   2.186   5.770  13.423 -0.2720 -0.3862  0.3861
19783TIP3    H180764   2.233   5.848  13.394  1.2877 -1.9419 -1.3869
19783TIP3    H280765   2.094   5.795  13.419  0.1348  0.9137 -1.5377
19784TIP3   OH280766   0.154   3.665  12.782 -0.3797 -0.2165  0.2082
19784TIP3    H180767   0.073   3.625  12.752 -0.2786  1.1746 -1.9802
19784TIP3    H280768   0.220   3.597  12.768 -0.9804 -1.0058  1.1112
19785TIP3   OH280769   0.310   3.199  16.190  0.2426  0.0688 -0.0292
19785TIP3    H180770   0.305   3.103  16.189  0.4910  0.0690 -1.0626
19785TIP3    H280771   0.229   3.226  16.234  0.5634 -0.6367  1.0344
19786TIP3   OH280772   2.195   2.415   2.429  0.0631  0.2009 -0.0752
19786TIP3    H180773   2.264   2.475   2.404 -0.5020  0.5631 -0.7962
19786TIP3    H280774   2.132   2.469   2.476 -1.5204  0.6787 -2.6188
19787TIP3   OH280775   5.670   3.154  12.219 -0.0380  0.1205  0.5998
19787TIP3    H180776   5.644   3.242  12.245  0.6703  0.4740  0.1118
19787TIP3    H280777   5.624   3.139  12.136  0.5885  0.3947  0.2008
19788TIP3   OH280778   5.313   0.638   1.939  0.0596  0.8391 -0.1465
19788TIP3    H180779   5.348   0.580   2.006 -0.0085  2.4607  1.3223
19788TIP3    H280780   5.259   0.701   1.987 -3.8103 -0.7170 -2.1594
19789TIP3   OH280781   3.161   5.713  12.612  0.2940 -0.8303  0.1419
19789TIP3    H180782   3.241   5.698  12.561 -0.4069 -0.1137 -1.2204
19789TIP3    H280783   3.107   5.637  12.594  1.2643 -2.0859  2.3224
19790TIP3   OH280784   5.123   4.625   1.924 -0.1173  0.6036 -0.2488
19790TIP3    H180785   5.205   4.665   1.895  1.5780 -0.5209  2.7238
19790TIP3    H280786   5.096   4.677   1.999 -1.6257  0.3873 -0.6349
19791TIP3   OH280787   1.498   0.899  15.350 -0.1251  0.1137  0.3803
19791TIP3    H180788   1.491   0.895  15.446 -0.3502  0.8633  0.3907
19791TIP3    H280789   1.567   0.835  15.329 -2.0276 -2.1518  0.8101
19792TIP3   OH280790   1.637   2.409   0.422  0.1676  0.4770  0.1843
19792TIP3    H180791   1.590   2.436   0.501  1.4721  0.2283  1.0543
19792TIP3    H280792   1.636   2.487   0.366 -1.1814  0.5099  0.2290
19793TIP3   OH280793   0.356   1.253  11.303  0.0163 -0.3611  0.2225
19793TIP3    H180794   0.427   1.315  11.321 -0.3539  0.2386 -0.3353
19793TIP3    H280795   0.317   1.285  11.222 -0.9303 -0.6446  0.5531
19794TIP3   OH280796   4.955   5.637   6.118  0.0568  0.1318 -0.3737
19794TIP3    H180797   4.977   5.622   6.210  1.2037  0.1800 -0.6416
19794TIP3    H280798   5.024   5.693   6.085  0.1938 -0.6933 -1.5321
19795TIP3   OH280799   4.081   4.738   6.574  0.4437 -0.1564 -0.2233
19795TIP3    H180800   4.002   4.788   6.594  0.6345  0.7427 -1.6466
19795TIP3    H280801   4.065   4.651   6.611 -1.1493  0.0613 -0.3861
19796TIP3   OH280802   0.616   0.531   0.439 -0.1481 -0.7946 -0.2275
19796TIP3    H180803   0.644   0.560   0.526  0.6962  0.4548 -0.8979
19796TIP3    H280804   0.641   0.439   0.435  2.2499 -0.1686 -0.1267
19797TIP3   OH280805   3.413   4.114   2.444  0.1610  0.0815  0.0415
19797TIP3    H180806   3.503   4.099   2.415 -0.4265 -1.3557 -1.1156
19797TIP3    H280807   3.375   4.169   2.376  0.6080  2.0878  1.3571
19798TIP3   OH280808   4.491   3.198   4.400 -0.2797  0.3912 -0.1594
19798TIP3    H180809   4.486   3.209   4.494 -0.6080 -0.5604 -0.0531
19798TIP3    H280810   4.581   3.218   4.377  0.4528 -1.7737  0.7091
19799TIP3   OH280811   6.644   1.278  12.588 -0.1028  0.3223  0.0957
19799TIP3    H180812   6.551   1.259  12.575  0.2190 -1.9072  0.8494
19799TIP3    H280813   6.645   1.366  12.626 -1.9097  0.2854  0.2750
19800TIP3   OH280814   4.102   4.674  10.802 -0.1044 -0.1229  0.2335
19800TIP3    H180815   4.127   4.592  10.760 -1.6424 -0.7178  0.4700
19800TIP3    H280816   4.022   4.701  10.758  0.6786  1.5566 -0.2209
19801TIP3   OH280817   6.556   2.234  12.823  0.0262  0.7226 -0.2007
19801TIP3    H180818   6.488   2.206  12.884 -1.0103  0.9470 -1.2288
19801TIP3    H280819   6.558   2.330  12.831  0.4663  0.6914  0.0793
19802TIP3   OH280820   6.130   6.754   3.516 -0.7868 -0.0253 -0.0637
19802TIP3    H180821   6.199   6.765   3.450  1.2673 -2.1942  1.6463
19802TIP3    H280822   6.119   6.841   3.554  1.9205  0.1028  0.4927
19803TIP3   OH280823   4.295   1.260  10.909 -0.0003 -0.3285  0.6199
19803TIP3    H180824   4.334   1.190  10.962 -1.1989 -0.8990  0.7534
19803TIP3    H280825   4.308   1.231  10.819  0.6926 -0.0706  0.6270
19804TIP3   OH280826   1.114   5.333  14.083 -0.0898  0.0955 -0.2795
19804TIP3    H180827   1.129   5.337  14.178  0.2941  0.4444 -0.3512
19804TIP3    H280828   1.192   5.289  14.049 -0.8899 -1.3583 -0.2869
19805TIP3   OH280829   2.049   1.417   1.699  0.6818  0.8887  0.4247
19805TIP3    H180830   2.052   1.469   1.779 -2.1275  1.0058  0.5193
19805TIP3    H280831   1.996   1.469   1.639  1.2986 -0.0060 -0.9152
19806TIP3   OH280832   3.394   4.048   3.973 -0.0369 -0.0847  0.4376
19806TIP3    H180833   3.347   4.118   4.017  0.5941  0.5814  0.0543
19806TIP3    H280834   3.376   4.062   3.880  0.1895 -0.3542  0.3519
19807TIP3   OH280835   0.590   6.567   2.725  0.1328  0.1141 -0.0390
19807TIP3    H180836   0.588   6.532   2.814  1.4743 -0.0401 -0.0538
19807TIP3    H280837   0.677   6.544   2.692 -0.6733 -0.6036 -1.7113
19808TIP3   OH280838   0.657   1.049   2.264  0.1041  0.3946  0.6856
19808TIP3    H180839   0.594   1.089   2.204 -1.1986 -2.1931  0.2895
19808TIP3    H280840   0.732   1.029   2.209  1.4766  3.7008  1.2033
19809TIP3   OH280841   4.502   2.489  11.082  0.0585 -0.4724  0.8376
19809TIP3    H180842   4.590   2.493  11.121 -0.4251  0.4875  1.8790
19809TIP3    H280843   4.517   2.462  10.992  1.5452  0.8348  0.6650
19810TIP3   OH280844   4.855   1.592  14.976 -0.0523  0.3911 -0.1167
19810TIP3    H180845   4.915   1.572  14.904  0.7704 -0.8669  0.8955
19810TIP3    H280846   4.884   1.535  15.048 -0.7409  1.7503  1.2666
19811TIP3   OH280847   0.277   6.417  13.741 -0.3977 -0.6433 -0.3188
19811TIP3    H180848   0.202   6.422  13.800 -1.0356 -0.1253 -1.1568
19811TIP3    H280849   0.283   6.325  13.716  0.3031 -0.9877  1.0864
19812TIP3   OH280850   0.122   3.781  14.236 -0.1178 -0.2949  0.7967
19812TIP3    H180851   0.053   3.730  14.192 -0.4919  1.2408 -0.4606
19812TIP3    H280852   0.075   3.850  14.283  0.5069  0.2401  0.6456
19813TIP3   OH280853   1.723   1.860  13.422  0.3148 -0.6831 -0.0270
19813TIP3    H180854   1.723   1.941  13.473 -0.8025 -0.7287  0.0545
19813TIP3    H280855   1.676   1.797  13.477  0.0405 -1.0262 -0.6515
19814TIP3   OH280856   4.229   6.381  11.565 -0.3519  0.0002 -0.0568
19814TIP3    H180857   4.245   6.461  11.513  1.2038  0.9858  1.8592
19814TIP3    H280858   4.204   6.414  11.651 -0.5667 -1.6093  0.4999
19815TIP3   OH280859   4.731   5.240  11.296  0.4748 -0.1787 -0.1204
19815TIP3    H180860   4.664   5.278  11.239 -0.1018 -2.1902 -0.8189
19815TIP3    H280861   4.791   5.197  11.236  1.3445 -0.0312  0.6381
19816TIP3   OH280862   3.620   5.064  11.811  0.1504 -0.1103 -0.4713
19816TIP3    H180863   3.556   5.071  11.882  0.1365 -0.9181 -0.3924
19816TIP3    H280864   3.692   5.013  11.849  0.2942 -0.2584 -0.9376
19817TIP3   OH280865   0.774   5.647  16.083 -0.1290 -0.0920  0.0367
19817TIP3    H180866   0.703   5.711  16.088 -0.8405 -0.9121  0.7272
19817TIP3    H280867   0.756   5.598  16.003 -0.9127 -0.9369  0.7159
19818TIP3   OH280868   4.339   2.534  15.496  0.2338  0.6077 -0.4261
19818TIP3    H180869   4.416   2.478  15.494 -0.3034 -0.2340  1.6084
19818TIP3    H280870   4.329   2.564  15.405  1.6716 -0.9884 -1.1392
19819TIP3   OH280871   4.925   6.522   5.643 -0.3011 -0.5559 -0.1793
19819TIP3    H180872   4.971   6.451   5.598  0.6035  0.8892 -1.5725
19819TIP3    H280873   4.966   6.602   5.610 -1.3216  0.6243  1.3580
19820TIP3   OH280874   3.740   4.310  13.197 -0.0701 -0.2892 -0.2543
19820TIP3    H180875   3.811   4.374  13.193 -2.1890  2.0927 -2.2043
19820TIP3    H280876   3.756   4.251  13.124 -0.4514  0.6959 -1.1527
19821TIP3   OH280877   3.309   6.122  12.712 -0.1891  0.0454  0.9490
19821TIP3    H180878   3.315   6.047  12.772 -0.7670 -0.7440  0.0275
19821TIP3    H280879   3.400   6.147  12.696 -0.0278  0.2488  2.1368
19822TIP3   OH280880   4.049   3.086   2.854  0.6060  0.2077  0.5190
19822TIP3    H180881   4.086   3.096   2.941 -0.0152  0.9473  0.7032
19822TIP3    H280882   4.099   3.147   2.799 -1.3281  2.3473  1.0774
19823TIP3   OH280883   3.164   2.688   4.617  0.4775  0.1351 -0.2952
19823TIP3    H180884   3.108   2.745   4.564 -0.8269 -1.0866 -0.2684
19823TIP3    H280885   3.114   2.671   4.696  1.0548 -0.6457 -0.0870
19824TIP3   OH280886   1.268   2.980   4.614 -0.2185 -0.3435 -0.0475
19824TIP3    H180887   1.253   3.034   4.692 -0.6676 -2.9796  1.7337
19824TIP3    H280888   1.346   3.018   4.574  0.8363  0.2211  2.4475
19825TIP3   OH280889   1.799   0.208   1.106 -0.2628  0.8648  0.2765
19825TIP3    H180890   1.735   0.229   1.038  0.2072  0.3845 -0.3169
19825TIP3    H280891   1.748   0.161   1.172 -0.0589 -1.7143 -1.3371
19826TIP3   OH280892   1.935   2.884   0.063 -0.0136 -0.4483  0.8520
19826TIP3    H180893   1.909   2.797   0.033  0.6481 -0.7548  1.1630
19826TIP3    H280894   1.968   2.870   0.152  0.6186  0.0286  0.6981
19827TIP3   OH280895   1.962   6.133  15.020  0.4593  0.0330 -0.0310
19827TIP3    H180896   2.005   6.093  15.095 -2.0507 -1.6359  0.5722
19827TIP3    H280897   1.938   6.059  14.964 -0.1873  1.0521 -1.1260
19828TIP3   OH280898   2.944   6.439  12.582  0.0148  0.3621  0.2916
19828TIP3    H180899   2.908   6.446  12.670  2.5450  2.5373  1.2599
19828TIP3    H280900   3.021   6.383  12.592  1.3600  2.0811 -0.1247
19829TIP3   OH280901   1.999   5.190  13.905 -0.2799 -0.1403 -0.2112
19829TIP3    H180902   1.966   5.253  13.970 -0.4074 -0.1059 -0.3100
19829TIP3    H280903   1.978   5.230  13.821  0.0532 -0.0989 -0.2735
19830TIP3   OH280904   1.942   0.103   5.154  0.1099  0.0235  0.1063
19830TIP3    H180905   2.020   0.094   5.100 -0.4748 -1.8414 -0.4500
19830TIP3    H280906   1.906   0.189   5.130  1.7324  0.7064  0.0655
19831TIP3   OH280907   3.577   2.423   5.195  0.2198  0.2925  0.1118
19831TIP3    H180908   3.593   2.510   5.232  0.7644  0.3926 -0.3480
19831TIP3    H280909   3.664   2.385   5.187  0.1054  0.2492 -1.0082
19832TIP3   OH280910   0.660   2.650  17.135 -0.0763 -0.5622 -0.3430
19832TIP3    H180911   0.566   2.636  17.126 -0.6712  2.2637  0.6287
19832TIP3    H280912   0.678   2.632  17.227  0.0488  0.1491 -0.2192
19833TIP3   OH280913   3.831   0.369   1.565 -0.1717  0.2647  0.0257
19833TIP3    H180914   3.756   0.345   1.619  0.7277 -1.4367  0.5431
19833TIP3    H280915   3.903   0.376   1.627  0.9699 -2.1728 -0.9587
19834TIP3   OH280916   5.841   4.014   4.793  0.2691  1.0221 -0.2679
19834TIP3    H180917   5.857   3.943   4.730  0.3994  0.7161  0.1054
19834TIP3    H280918   5.759   4.054   4.764 -0.2615  0.1599  0.0281
19835TIP3   OH280919   3.133   1.024  10.436  0.6558 -0.1137 -0.0333
19835TIP3    H180920   3.179   0.953  10.391 -0.5742 -0.6572 -0.4556
19835TIP3    H280921   3.176   1.104  10.404  1.2310 -0.6069 -0.5046
19836TIP3   OH280922   0.036   0.332   0.428 -0.2207  0.1729 -0.2614
19836TIP3    H180923  -0.058   0.339   0.443 -0.4006  0.2448 -1.3971
19836TIP3    H280924   0.049   0.366   0.340  0.9351  0.5940  0.0633
19837TIP3   OH280925   0.174   4.085   3.442  0.0884 -0.6104  0.5444
19837TIP3    H180926   0.208   4.147   3.377 -2.7496 -0.8610 -1.2866
19837TIP3    H280927   0.181   4.000   3.398  0.8865 -1.1748  1.7516
19838TIP3   OH280928   5.501   2.008  13.773 -0.0223 -0.3843  0.3435
19838TIP3    H180929   5.500   1.920  13.737  0.3046 -0.4942  0.6021
19838TIP3    H280930   5.411   2.023  13.804 -0.5847  0.1027 -1.4475
19839TIP3   OH280931   6.185   0.145   2.881 -0.2804  0.6133  0.8017
19839TIP3    H180932   6.098   0.132   2.919 -0.9712  0.3630 -0.8286
19839TIP3    H280933   6.169   0.195   2.801  1.0804  0.5784  0.4966
19840TIP3   OH280934   2.190   5.324  14.225  0.4088  0.1445 -0.2456
19840TIP3    H180935   2.219   5.242  14.186  1.3123 -0.5376  1.7955
19840TIP3    H280936   2.269   5.379  14.228  0.1811  0.4680 -0.0895
19841TIP3   OH280937   1.228   2.918   2.736 -0.3711 -0.4003  0.1488
19841TIP3    H180938   1.171   2.853   2.776  1.5760 -0.0864  3.6534
19841TIP3    H280939   1.293   2.867   2.687 -0.2978 -0.9996  0.8638
19842TIP3   OH280940   3.549   1.641   2.996 -0.1584 -0.0406 -0.2124
19842TIP3    H180941   3.479   1.705   3.006  0.3881  0.4377  0.6419
19842TIP3    H280942   3.594   1.641   3.081  1.9102  0.9170 -1.2766
19843TIP3   OH280943   3.337   1.455  14.469  0.3029 -0.3493 -0.0821
19843TIP3    H180944   3.399   1.493  14.407  0.1303 -0.3346 -0.2459
19843TIP3    H280945   3.278   1.527  14.491  2.4921  0.6694  2.8583
19844TIP3   OH280946   5.181   1.318   0.133 -0.3026 -0.3526 -0.2867
19844TIP3    H180947   5.213   1.228   0.137  1.5141  0.3318  2.6752
19844TIP3    H280948   5.151   1.336   0.222  0.0429  2.1946 -0.6466
19845TIP3   OH280949   6.411   4.500  15.668  0.4669 -0.0447 -0.3370
19845TIP3    H180950   6.368   4.584  15.683 -1.1748 -0.7494 -0.9843
19845TIP3    H280951   6.502   4.522  15.651  0.3781  1.4870  1.0089
19846TIP3   OH280952   5.479   1.967   4.703 -0.3850 -0.3934  0.2707
19846TIP3    H180953   5.436   2.036   4.754 -0.8670  0.8077 -1.6978
19846TIP3    H280954   5.536   2.015   4.643  1.1309 -1.8374  0.5375
19847TIP3   OH280955   0.626   0.522   5.643  0.3523 -0.0452  0.1272
19847TIP3    H180956   0.687   0.567   5.701  0.0671  0.4164  0.0668
19847TIP3    H280957   0.601   0.587   5.577  2.3200 -1.1676 -1.7975
19848TIP3   OH280958   3.417   4.706   5.712  0.3074  0.3045  0.0245
19848TIP3    H180959   3.380   4.636   5.659 -0.3784  0.0564  0.8162
19848TIP3    H280960   3.462   4.763   5.649  0.1558 -0.3906 -0.7200
19849TIP3   OH280961   4.911   5.041  14.264 -0.1895  0.1192  0.2006
19849TIP3    H180962   4.858   5.000  14.333 -0.3450  2.5481  1.5758
19849TIP3    H280963   4.863   5.119  14.239  0.3852 -0.1877 -1.9948
19850TIP3   OH280964   5.940   4.869   1.728  0.0345  0.1209 -0.4646
19850TIP3    H180965   5.993   4.943   1.756  1.4323 -0.7079 -0.8790
19850TIP3    H280966   5.866   4.868   1.789  1.4477  0.1784  1.2963
19851TIP3   OH280967   1.219   2.032   3.888 -0.5023  0.3460  0.4824
19851TIP3    H180968   1.153   1.972   3.853  0.0026 -0.4036  0.7956
19851TIP3    H280969   1.208   2.027   3.983 -0.0049  0.2193  0.5366
19852TIP3   OH280970   0.823   1.100   4.623  0.4099  0.3178 -0.0950
19852TIP3    H180971   0.854   1.177   4.672  0.5036  1.1363 -1.4163
19852TIP3    H280972   0.738   1.126   4.589  0.2502 -0.3264 -0.1981
19853TIP3   OH280973   4.318   5.014  16.261  0.3155 -0.0150  0.2831
19853TIP3    H180974   4.405   5.053  16.268 -1.1291  3.7675 -1.6986
19853TIP3    H280975   4.288   5.036  16.173 -2.4728 -1.6892  0.7287
19854TIP3   OH280976   2.459   0.001   2.962  0.4948 -0.5138 -0.3093
19854TIP3    H180977   2.449   0.066   2.892  0.3974 -1.4113 -1.1277
19854TIP3    H280978   2.397  -0.068   2.940 -0.8275 -0.0055  1.5950
19855TIP3   OH280979   2.573   1.771  11.962  0.2375 -0.2524 -0.5445
19855TIP3    H180980   2.658   1.775  12.004 -0.1659  0.7882  0.1926
19855TIP3    H280981   2.589   1.803  11.873  0.5953  0.0330 -0.3761
19856TIP3   OH280982   2.533   1.006   4.587 -0.1467  0.0065 -0.2119
19856TIP3    H180983   2.610   0.970   4.544  0.7251  1.1176  0.3946
19856TIP3    H280984   2.488   0.929   4.625 -0.3315 -0.8414 -2.1165
19857TIP3   OH280985   3.822   5.766  16.843 -0.1427 -0.0208 -0.1693
19857TIP3    H180986   3.753   5.821  16.806 -0.3901 -0.0526  0.2387
19857TIP3    H280987   3.817   5.685  16.793 -0.0586  0.1662 -0.4868
19858TIP3   OH280988   5.948   3.288   0.249  0.2873  0.2813  0.1668
19858TIP3    H180989   5.891   3.362   0.266  0.9284  1.0405 -0.9370
19858TIP3    H280990   5.924   3.223   0.315 -0.5467  1.3148  0.8858
19859TIP3   OH280991   0.875   0.985  13.448 -0.2542  0.5656  0.8391
19859TIP3    H180992   0.802   0.942  13.404  0.6756  0.2472 -0.4085
19859TIP3    H280993   0.931   1.017  13.378  0.9090  0.6447  1.7741
19860TIP3   OH280994   3.554   3.897   5.289 -0.0827 -0.1462 -0.1230
19860TIP3    H180995   3.490   3.968   5.280  1.0215  0.9312  0.4979
19860TIP3    H280996   3.599   3.895   5.205 -0.4539 -0.4585 -0.3186
19861TIP3   OH280997   3.937   6.009   4.589 -0.3350  0.3229  0.3428
19861TIP3    H180998   3.843   6.023   4.599 -0.9501 -0.3199 -3.7028
19861TIP3    H280999   3.966   6.079   4.531  1.2419 -0.7961 -0.2683
19862TIP3   OH281000   1.362   0.160  13.005  0.0540 -0.0602  0.7570
19862TIP3    H181001   1.371   0.111  12.923 -1.5870  0.5459  0.1926
19862TIP3    H281002   1.301   0.231  12.984  0.7041  0.9267  2.1398
19863TIP3   OH281003   6.459   4.790   4.264 -0.1332 -0.2501 -0.8541
19863TIP3    H181004   6.528   4.725   4.255  0.6700  0.2379  1.3640
19863TIP3    H281005   6.416   4.793   4.178  0.8536 -2.5030 -1.4435
19864TIP3   OH281006   0.497   4.688   1.085  0.2574  0.3470 -0.4266
19864TIP3    H181007   0.504   4.597   1.057 -0.2175  0.2893 -0.3594
19864TIP3    H281008   0.547   4.737   1.020  1.2231 -0.0464  0.0089
19865TIP3   OH281009   0.273   4.334  13.951 -0.4515  0.1673  0.2471
19865TIP3    H181010   0.271   4.333  14.046 -0.8967 -0.9846  0.2220
19865TIP3    H281011   0.231   4.417  13.927 -0.3627  0.4412  1.0478
19866TIP3   OH281012   0.636   0.218  12.102 -0.2220 -0.0621  0.5510
19866TIP3    H181013   0.553   0.232  12.056  0.0112 -0.3646  0.0343
19866TIP3    H281014   0.626   0.132  12.144 -0.2296 -0.0255  0.6254
19867TIP3   OH281015   0.749   6.178  10.657 -0.7264  0.1890 -0.7207
19867TIP3    H181016   0.777   6.089  10.635 -1.8339 -0.2584 -0.3371
19867TIP3    H281017   0.655   6.170  10.673 -0.6340  1.2399  0.3616
19868TIP3   OH281018   4.309   5.774  13.113 -0.8226 -0.7354 -0.1270
19868TIP3    H181019   4.386   5.775  13.171 -1.7351 -2.2991  1.1688
19868TIP3    H281020   4.338   5.820  13.034  0.8884  0.2567  1.0326
19869TIP3   OH281021   4.074   6.629  16.731  0.1657 -0.6504 -0.3275
19869TIP3    H181022   3.980   6.631  16.713 -0.0720 -0.9442  0.8139
19869TIP3    H281023   4.112   6.581  16.658 -0.5400 -0.2575 -0.9563
19870TIP3   OH281024   4.767   6.430  16.356 -0.3102  0.0054 -0.2582
19870TIP3    H181025   4.759   6.371  16.281 -2.3824  0.8992 -0.7745
19870TIP3    H281026   4.822   6.383  16.418  0.4262 -1.2647 -1.8304
19871TIP3   OH281027   0.526   3.319   5.685  0.1684 -0.1901  0.0483
19871TIP3    H181028   0.614   3.286   5.705  0.1265 -0.6241 -0.4485
19871TIP3    H281029   0.481   3.322   5.769 -0.5969 -3.6939 -0.1527
19872TIP3   OH281030   4.906   0.568   5.268 -0.2375  0.0684  0.0802
19872TIP3    H181031   4.899   0.509   5.343  1.1777 -0.6861 -0.3407
19872TIP3    H281032   4.959   0.642   5.300  0.5547 -0.3589 -0.2087
19873TIP3   OH281033   0.983   1.110  14.531 -0.1938 -0.1194 -0.2181
19873TIP3    H181034   0.957   1.078  14.445 -2.8996 -0.9129  0.8623
19873TIP3    H281035   1.077   1.091  14.537 -0.4356 -1.9748 -2.1379
19874TIP3   OH281036   0.842   3.878   3.128  0.5717 -0.0377 -0.1479
19874TIP3    H181037   0.759   3.887   3.082 -0.2209 -2.0343  0.8472
19874TIP3    H281038   0.844   3.787   3.157  2.6409  0.2577  0.7283
19875TIP3   OH281039   3.938   2.138  16.735 -0.4571 -0.1021 -0.3829
19875TIP3    H181040   3.882   2.078  16.783  0.7789  0.2021  1.4931
19875TIP3    H281041   3.917   2.225  16.771  2.6750 -0.2009  1.9160
19876TIP3   OH281042   0.239   3.213   3.471 -0.2535 -0.2119 -0.1857
19876TIP3    H181043   0.170   3.252   3.417  0.1183  0.4503 -0.1845
19876TIP3    H281044   0.230   3.255   3.556 -0.0084 -0.3126 -0.1092
19877TIP3   OH281045   1.180   0.176   2.416 -0.0862 -0.2570  0.2457
19877TIP3    H181046   1.091   0.164   2.382 -0.4054 -2.4897  1.7816
19877TIP3    H281047   1.170   0.237   2.489 -0.5120 -1.2042  0.9893
19878TIP3   OH281048   3.895   5.693  13.221  0.1974  0.4061 -0.1933
19878TIP3    H181049   3.884   5.599  13.208  3.5262  0.1216 -1.3544
19878TIP3    H281050   3.938   5.700  13.307 -0.2235  0.8867 -0.0178
19879TIP3   OH281051   5.594   3.936  13.122 -0.1176 -0.1533 -0.6035
19879TIP3    H181052   5.561   3.913  13.036 -0.2110 -2.0181 -0.1014
19879TIP3    H281053   5.666   3.996  13.105 -0.7440  0.2445 -1.9222
19880TIP3   OH281054   3.657   6.483   0.548 -0.4487 -0.4607  0.0183
19880TIP3    H181055   3.684   6.488   0.640  2.0381  2.4085 -0.7981
19880TIP3    H281056   3.694   6.400   0.517  0.8464 -0.2510  0.9535
19881TIP3   OH281057   4.617   1.451  12.374 -0.1117  0.6784 -0.1065
19881TIP3    H181058   4.628   1.470  12.467 -0.9584  3.1839 -0.4796
19881TIP3    H281059   4.527   1.479  12.355  0.0517  0.1450 -1.6555
19882TIP3   OH281060   2.611   5.924   5.796 -0.3839  0.1063  0.9579
19882TIP3    H181061   2.559   5.854   5.756  1.2077  0.0897 -1.1577
19882TIP3    H281062   2.701   5.891   5.795  0.5507  2.5431 -1.0022
19883TIP3   OH281063   4.085   5.771  15.113 -0.2736 -0.0272 -0.4699
19883TIP3    H181064   4.078   5.696  15.054  0.9323  0.4573 -1.2585
19883TIP3    H281065   3.995   5.789  15.141 -0.7867 -0.6081 -1.7291
19884TIP3   OH281066   2.751   1.424   3.025 -0.1367 -0.2723 -0.3933
19884TIP3    H181067   2.689   1.429   2.953  0.1280  0.8925 -0.5472
19884TIP3    H281068   2.712   1.478   3.094 -0.3039 -1.2306  0.2863
19885TIP3   OH281069   2.830   0.916   1.137 -0.2179  0.0444  0.8274
19885TIP3    H181070   2.883   0.968   1.198  1.6321  0.3796 -1.0325
19885TIP3    H281071   2.878   0.833   1.130 -1.4850 -0.7399  1.3554
19886TIP3   OH281072   1.720   0.952   0.854 -0.3347  1.0483  0.1233
19886TIP3    H181073   1.646   0.921   0.906  0.4683  0.4339  0.9099
19886TIP3    H281074   1.696   0.932   0.764  0.3331 -2.3701  0.6108
19887TIP3   OH281075   5.436   3.955   2.923 -0.2698 -0.3816  0.2444
19887TIP3    H181076   5.377   4.025   2.952  1.1587 -0.0466  2.4615
19887TIP3    H281077   5.386   3.875   2.937 -1.5776  0.1081 -1.4599
19888TIP3   OH281078   2.147   3.050  11.678  0.3612 -0.1062 -0.7821
19888TIP3    H181079   2.087   2.991  11.633  1.4613 -0.9603 -1.1527
19888TIP3    H281080   2.174   3.112  11.610 -0.4673  0.5707 -0.4959
19889TIP3   OH281081   5.261   2.353  11.843  0.0802 -0.4988  0.1550
19889TIP3    H181082   5.220   2.440  11.850 -1.5428 -1.1110 -1.1776
19889TIP3    H281083   5.312   2.357  11.762 -1.2734 -1.2621 -0.7599
19890TIP3   OH281084   1.317   3.053  14.647 -0.1240  0.3868  0.0015
19890TIP3    H181085   1.298   3.143  14.674  1.2982  0.6293  0.2199
19890TIP3    H281086   1.268   2.999  14.709 -2.3032  0.9965 -1.1210
19891TIP3   OH281087   2.256   1.566  15.385 -0.1437  0.0560 -0.5201
19891TIP3    H181088   2.171   1.539  15.350  0.4170  0.7741 -2.5275
19891TIP3    H281089   2.258   1.661  15.374  0.9166  0.0424 -0.5005
19892TIP3   OH281090   5.110   3.573  16.709 -0.0860 -0.0101 -0.4431
19892TIP3    H181091   5.087   3.555  16.800 -0.8981  1.4326 -0.3325
19892TIP3    H281092   5.201   3.603  16.712  0.5562 -1.9537 -0.3758
19893TIP3   OH281093   5.985   0.856   5.190  0.3483 -0.2975  0.0988
19893TIP3    H181094   6.018   0.782   5.240  1.5860 -0.2405 -0.6207
19893TIP3    H281095   5.982   0.928   5.252  1.0532 -0.4449  0.3058
19894TIP3   OH281096   3.543   0.236  10.993  0.0992 -0.1314  0.1933
19894TIP3    H181097   3.556   0.316  10.944 -0.2915  0.1292  0.5083
19894TIP3    H281098   3.456   0.246  11.032  0.2939 -0.4478  0.7120
19895TIP3   OH281099   3.438   1.252  16.609  0.1746  0.1601 -0.4421
19895TIP3    H181100   3.347   1.258  16.638 -0.1835  3.8396 -2.1419
19895TIP3    H281101   3.477   1.336  16.634  3.2794 -1.5162  0.6853
19896TIP3   OH281102   4.013   1.786  15.638 -0.3012 -0.1192 -0.1107
19896TIP3    H181103   4.021   1.694  15.613  0.6792 -0.0149 -0.2154
19896TIP3    H281104   3.923   1.810  15.614 -0.0992 -0.6515 -1.4509
19897TIP3   OH281105   1.218   4.382   4.790 -0.3542  0.2257 -0.1387
19897TIP3    H181106   1.179   4.310   4.841  0.9567 -0.3745  0.0304
19897TIP3    H281107   1.217   4.350   4.700 -1.7906  0.9023 -0.3826
19898TIP3   OH281108   3.346   3.451   6.520 -0.4056 -0.2099  0.3047
19898TIP3    H181109   3.270   3.430   6.575 -2.0957  0.4638 -1.7224
19898TIP3    H281110   3.330   3.540   6.490  0.7217 -0.4050 -0.9279
19899TIP3   OH281111   1.662   1.334  16.208 -0.7191  0.3042 -0.2792
19899TIP3    H181112   1.583   1.287  16.180  0.5923 -1.9155 -0.3805
19899TIP3    H281113   1.720   1.330  16.131  0.3360 -0.0139  0.5272
19900TIP3   OH281114   5.139   3.018   1.032 -0.5076  0.2623  0.6104
19900TIP3    H181115   5.185   3.078   1.090 -1.7382  1.2982  0.5253
19900TIP3    H281116   5.064   2.988   1.082  0.0825 -1.1931  0.6387
19901TIP3   OH281117   2.595   0.316   4.414  0.7523  0.5381 -0.4453
19901TIP3    H181118   2.572   0.223   4.420  0.7448  0.7026  2.9588
19901TIP3    H281119   2.602   0.345   4.505  1.8670  3.6174 -1.4529
19902TIP3   OH281120   0.338   5.762  11.207  0.0293 -0.2288 -0.1405
19902TIP3    H181121   0.426   5.725  11.219  0.9436  1.3675 -1.5617
19902TIP3    H281122   0.318   5.803  11.291  0.7686 -0.3770  0.1155
19903TIP3   OH281123   0.101   2.535   0.667  0.2570 -0.7092 -0.3516
19903TIP3    H181124   0.175   2.564   0.720  0.6852 -0.8205 -0.8813
19903TIP3    H281125   0.095   2.599   0.597 -0.7602 -0.1540  0.2228
19904TIP3   OH281126   0.788   5.511   1.416  0.2476  0.4684 -0.7030
19904TIP3    H181127   0.882   5.523   1.400  0.4662 -0.0641  0.1974
19904TIP3    H281128   0.749   5.516   1.328  0.9948  1.7021 -0.9872
19905TIP3   OH281129   1.129   0.325   2.055  0.0499  0.0065  0.1639
19905TIP3    H181130   1.091   0.355   2.137 -1.7250  0.9163 -0.9473
19905TIP3    H281131   1.053   0.302   2.001  1.2128 -1.5410 -0.8669
19906TIP3   OH281132   3.894   4.602   5.832  0.3018  0.1712  0.2427
19906TIP3    H181133   3.987   4.619   5.850  0.6902 -0.7302 -0.8876
19906TIP3    H281134   3.854   4.599   5.919  1.3167  0.6202  0.7433
19907TIP3   OH281135   0.949   2.268  12.589 -0.1108 -0.4712  0.3830
19907TIP3    H181136   0.919   2.357  12.603  0.2205 -0.4634  1.0735
19907TIP3    H281137   1.045   2.274  12.590 -0.0782 -0.6651 -0.6748
19908TIP3   OH281138   6.521   4.401   0.281  0.4579 -0.2271  0.0190
19908TIP3    H181139   6.465   4.342   0.332  0.1100 -1.0823 -1.3266
19908TIP3    H281140   6.524   4.361   0.194  1.3174  1.0353 -0.5352
19909TIP3   OH281141   5.942   5.821   3.983 -0.4754  0.2671  0.4608
19909TIP3    H181142   5.955   5.906   3.941  0.6531 -0.4746 -0.7416
19909TIP3    H281143   5.984   5.830   4.069 -0.4269  0.9523  0.3704
19910TIP3   OH281144   3.131   6.539  16.244  0.1616  0.2715 -0.1685
19910TIP3    H181145   3.154   6.623  16.283 -1.4137 -0.1588  1.7753
19910TIP3    H281146   3.083   6.562  16.164 -1.9885  1.2705  1.3683
19911TIP3   OH281147   4.866   3.426  16.075 -0.3143  0.5892  0.0263
19911TIP3    H181148   4.804   3.476  16.021 -1.5444 -0.1019  0.7646
19911TIP3    H281149   4.900   3.489  16.138 -0.4217  0.9294 -0.2573
19912TIP3   OH281150   3.147   5.364  13.845 -0.9325  0.0918  0.0085
19912TIP3    H181151   3.198   5.297  13.799 -3.1045 -1.2627 -0.4918
19912TIP3    H281152   3.099   5.409  13.775 -1.5184  0.4046  0.6161
19913TIP3   OH281153   3.570   4.295   4.743 -0.0874  0.7761 -0.0175
19913TIP3    H181154   3.485   4.252   4.752 -0.2569  1.0546 -0.2947
19913TIP3    H281155   3.634   4.226   4.765 -0.3045 -0.0415 -1.8136
19914TIP3   OH281156   5.760   1.475  14.336  0.6074  0.3151  0.4966
19914TIP3    H181157   5.789   1.402  14.391 -0.9171 -1.0915 -0.4930
19914TIP3    H281158   5.835   1.494  14.280  1.0012 -0.5648  0.7131
19915TIP3   OH281159   0.596   2.011  15.734  0.1238  0.1543 -0.1943
19915TIP3    H181160   0.610   1.922  15.764 -1.9511 -0.1994 -0.1843
19915TIP3    H281161   0.548   2.053  15.806  1.1164  1.2949 -0.1786
19916TIP3   OH281162   3.949   1.440   1.619  0.6227 -0.0227  0.5860
19916TIP3    H181163   3.862   1.479   1.618  0.8510  0.5103  1.1556
19916TIP3    H281164   3.966   1.415   1.528 -0.2206 -0.3514  0.5166
19917TIP3   OH281165   6.266   4.746   4.907 -0.2116  0.5547 -0.7165
19917TIP3    H181166   6.229   4.756   4.820  0.5063 -1.1183 -1.2278
19917TIP3    H281167   6.291   4.653   4.913 -2.1694  0.1424  2.0200
19918TIP3   OH281168   4.345   5.251  15.518 -0.3215 -0.3248 -0.4437
19918TIP3    H181169   4.324   5.334  15.561 -1.1741 -0.5632 -0.3762
19918TIP3    H281170   4.415   5.273  15.456  1.4633 -0.1422  1.5855
19919TIP3   OH281171   1.884   0.698  16.799 -0.3587  0.0592 -0.2197
19919TIP3    H181172   1.791   0.677  16.810  0.0321 -1.3905  0.3673
19919TIP3    H281173   1.908   0.742  16.880 -0.0620 -1.3057  0.4450
19920TIP3   OH281174   3.091   4.659   5.460 -0.5859  0.0074 -0.3014
19920TIP3    H181175   3.042   4.737   5.487  0.0069  0.8986 -1.7068
19920TIP3    H281176   3.057   4.639   5.373 -1.3679 -1.8644  0.4215
19921TIP3   OH281177   4.291   3.698  15.579 -0.3825  0.0412  0.1817
19921TIP3    H181178   4.266   3.700  15.671 -1.5796  1.3500 -0.1472
19921TIP3    H281179   4.387   3.696  15.580 -0.3516  1.1437  1.4652
19922TIP3   OH281180   1.558   5.367  12.979 -0.3538 -0.1078  0.0653
19922TIP3    H181181   1.632   5.347  13.035  1.6054 -0.2574 -2.5133
19922TIP3    H281182   1.548   5.290  12.923 -0.4461  1.1682 -1.7114
19923TIP3   OH281183   0.059   6.035   3.437  0.5627  0.3202 -0.2008
19923TIP3    H181184   0.105   5.971   3.384  0.0465 -0.9629  0.8812
19923TIP3    H281185   0.124   6.104   3.452  1.2276 -0.1066 -1.0826
19924TIP3   OH281186   5.364   4.679   1.570  0.1396 -0.0834  0.0690
19924TIP3    H181187   5.307   4.719   1.636 -0.6407 -1.1086  0.0352
19924TIP3    H281188   5.305   4.656   1.498  0.3706 -2.1751  0.4898
19925TIP3   OH281189   2.838   6.619   6.258 -0.9078 -0.2497 -0.3518
19925TIP3    H181190   2.838   6.557   6.331 -1.0229  1.4101  1.1040
19925TIP3    H281191   2.885   6.696   6.292  0.1515  0.0726 -2.4593
19926TIP3   OH281192   0.549   5.102   0.022  0.2203  0.3424  0.3649
19926TIP3    H181193   0.527   5.192   0.046 -0.8200 -0.2089  1.5248
19926TIP3    H281194   0.642   5.105  -0.003  1.0211  1.2043  3.2453
19927TIP3   OH281195   4.930   5.776  10.640  0.4489  0.8268 -0.4069
19927TIP3    H181196   4.850   5.739  10.604  0.8859  1.0502 -1.6368
19927TIP3    H281197   4.938   5.737  10.727 -0.7423  0.4475 -0.4608
19928TIP3   OH281198   5.105   1.205   1.452  0.9362  0.1749 -0.6755
19928TIP3    H181199   5.090   1.110   1.450 -0.9865  0.4701 -1.9905
19928TIP3    H281200   5.195   1.216   1.422  0.4752 -1.1085 -2.5707
19929TIP3   OH281201   4.636   2.468  16.829 -0.3000  0.5432  0.8595
19929TIP3    H181202   4.720   2.431  16.802 -0.0115  0.2044  2.1512
19929TIP3    H281203   4.573   2.397  16.816 -0.1693  0.3976  1.0103
19930TIP3   OH281204   0.037   1.813  13.261 -0.0656  0.2270 -0.0105
19930TIP3    H181205   0.053   1.786  13.170 -0.0958  0.7574 -0.1710
19930TIP3    H281206   0.033   1.730  13.309 -0.1900 -0.0648 -0.5151
19931TIP3   OH281207   0.033   2.358  14.068  0.4473 -0.1812 -0.2277
19931TIP3    H181208   0.060   2.340  14.158 -0.9489  0.0656  0.2604
19931TIP3    H281209   0.107   2.331  14.015  1.0457 -0.9230  0.9575
19932TIP3   OH281210   3.701   2.132  12.477  0.1648  0.0655  0.3833
19932TIP3    H181211   3.641   2.058  12.488  1.4224 -1.6149 -3.0968
19932TIP3    H281212   3.645   2.208  12.466 -1.3157 -1.1458 -0.6617
19933TIP3   OH281213   2.348   6.075   5.658 -0.3195  0.2796  0.4099
19933TIP3    H181214   2.281   6.126   5.702 -1.8696 -0.4927 -1.0023
19933TIP3    H281215   2.325   5.984   5.676  1.1147  0.0066  0.9958
19934TIP3   OH281216   5.533   6.741  12.583  0.6493 -0.7904  0.6504
19934TIP3    H181217   5.602   6.698  12.634 -0.4306 -1.6741  1.3874
19934TIP3    H281218   5.481   6.669  12.548  0.0854 -0.1203  0.1052
19935TIP3   OH281219   4.457   0.361  13.659  0.2520 -0.2985  0.3649
19935TIP3    H181220   4.402   0.429  13.697  1.1101  0.1439  0.8208
19935TIP3    H281221   4.532   0.354  13.718 -0.1984 -2.1959  0.7563
19936TIP3   OH281222   5.175   3.996  11.996 -0.0482 -0.1643 -0.1913
19936TIP3    H181223   5.260   3.966  11.964 -0.0883  0.5800 -0.9934
19936TIP3    H281224   5.171   4.088  11.972 -0.5576  0.1271  0.9614
19937TIP3   OH281225   4.409   1.688  10.702  0.1450 -0.3826 -0.1988
19937TIP3    H181226   4.503   1.690  10.685  0.0849  0.5237 -0.4679
19937TIP3    H281227   4.381   1.601  10.672  0.8864 -0.6477 -0.1429
19938TIP3   OH281228   3.008   1.298  12.522  0.8260 -0.2814  0.0672
19938TIP3    H181229   3.049   1.230  12.576  1.2937 -0.2002 -0.1892
19938TIP3    H281230   3.003   1.259  12.435 -0.7058 -0.7394  0.3489
19939TIP3   OH281231   6.210   1.376  14.039  0.2381 -0.5823 -0.5186
19939TIP3    H181232   6.228   1.423  13.958  2.2160 -1.5272 -0.6661
19939TIP3    H281233   6.280   1.403  14.099 -0.9056 -0.2888  0.7146
19940TIP3   OH281234   5.850   1.608  14.878  0.0753 -1.1451 -0.3579
19940TIP3    H181235   5.896   1.653  14.807  1.0015 -0.1094  0.8887
19940TIP3    H281236   5.841   1.518  14.846  3.3696 -1.5076 -0.4840
19941TIP3   OH281237   2.884   6.430  13.200 -0.2515  0.1272  0.2925
19941TIP3    H181238   2.831   6.454  13.276  0.7579  1.9137  0.4697
19941TIP3    H281239   2.901   6.513  13.155  0.6628 -0.6770 -0.8890
19942TIP3   OH281240   0.405   1.836  14.671  0.3264  0.0631 -0.3922
19942TIP3    H181241   0.497   1.808  14.677  0.5414  0.9583  0.6052
19942TIP3    H281242   0.371   1.826  14.760 -0.2346  0.7816 -0.5238
19943TIP3   OH281243   4.762   4.530  13.802 -0.5327  0.1127  0.3785
19943TIP3    H181244   4.856   4.536  13.819 -0.5737 -0.5425  0.8525
19943TIP3    H281245   4.752   4.448  13.753 -1.0595 -0.7240  1.8496
19944TIP3   OH281246   5.646   3.721   2.456 -0.4034 -0.3464 -0.2237
19944TIP3    H181247   5.585   3.745   2.527 -0.5577  1.4848 -0.9596
19944TIP3    H281248   5.600   3.652   2.408 -1.0784 -0.3399  0.3956
19945TIP3   OH281249   6.246   1.581   0.237  0.5218 -0.2000  0.0554
19945TIP3    H181250   6.173   1.562   0.179  0.0363  0.1306  0.5482
19945TIP3    H281251   6.290   1.656   0.197  0.2762 -0.0646  0.0426
19946TIP3   OH281252   1.851   4.892   3.896 -0.3637  0.2568  0.0808
19946TIP3    H181253   1.885   4.981   3.907 -1.6871  0.6171  1.5406
19946TIP3    H281254   1.758   4.905   3.877 -0.4103 -0.7992 -0.4516
19947TIP3   OH281255   4.928   3.984   1.086 -0.0138  0.5305 -0.2610
19947TIP3    H181256   4.925   4.039   1.007 -1.1482  0.1100 -0.5191
19947TIP3    H281257   4.948   4.044   1.157 -0.4088  1.1451 -0.6672
19948TIP3   OH281258   4.036   0.901   5.257 -0.2958 -0.0456 -0.5683
19948TIP3    H181259   4.042   0.820   5.206  2.0114 -0.5543  0.4588
19948TIP3    H281260   4.047   0.971   5.192 -2.4014 -0.5202 -1.4728
19949TIP3   OH281261   6.362   3.627  15.008 -0.6667 -0.4224  0.5213
19949TIP3    H181262   6.335   3.594  14.922 -2.1490  2.1441 -0.0619
19949TIP3    H281263   6.295   3.595  15.068 -0.4602 -0.9840  0.4437
19950TIP3   OH281264   2.531   3.385  16.775  0.3706  0.1079  0.1055
19950TIP3    H181265   2.517   3.394  16.869  0.5609 -0.1538  0.1595
19950TIP3    H281266   2.530   3.290  16.760 -0.4142  0.1671 -0.2731
19951TIP3   OH281267   0.004   3.610  11.262 -0.0457  0.1653 -0.0625
19951TIP3    H181268   0.087   3.563  11.265 -0.1001  0.0204 -0.7144
19951TIP3    H281269  -0.043   3.582  11.340 -0.0799 -0.8732 -0.4534
19952TIP3   OH281270   1.607   1.786   5.217  0.3279 -0.0761 -0.7266
19952TIP3    H181271   1.543   1.836   5.165 -1.4587 -0.9116  0.5931
19952TIP3    H281272   1.591   1.695   5.193 -1.3421 -0.5906  2.0620
19953LIG     O181273   5.155   4.872  16.423 -0.2663  0.4416  0.3580
19953LIG     O281274   5.311   4.989  16.595 -0.4524  0.3387 -0.8280
19953LIG     O381275   5.032   4.753  16.684 -0.2440 -0.3877  0.0437
19953LIG     O481276   5.431   5.177  16.673  0.8685  0.2975  0.0709
19953LIG     O581277   5.131   5.015  16.819 -0.6131 -0.2361  0.0054
19953LIG     O681278   5.208   5.176  17.036  0.2145 -0.2583  0.3953
19953LIG     O781279   5.378   5.397  16.963 -0.5187  0.2357 -0.1777
19953LIG     O881280   5.675   5.312  16.778 -0.0678  0.5971  0.3176
19953LIG     O981281   5.567   5.502  16.722  0.1125 -0.2228  0.1457
19953LIG      N81282   5.478   4.599  16.137 -0.3436  1.2229  0.1116
19953LIG     C181283   5.329   4.792  16.305  0.1967 -0.5079 -0.2130
19953LIG     C281284   5.485   4.781  16.304 -0.9443  0.3634  0.1771
19953LIG     C381285   5.267   4.917  16.355 -0.1756  0.5190 -0.4484
19953LIG     C481286   5.519   4.634  16.274  0.2011  0.0661 -0.4864
19953LIG     C581287   5.269   4.730  16.178  0.9487 -0.2567 -0.1240
19953LIG     C681288   5.279   4.684  16.393  0.0815  0.7009 -0.2077
19953LIG     C781289   5.473   4.531  16.383  0.4244  0.2201 -0.8611
19953LIG     C881290   5.329   4.599  16.131 -0.4958  0.1964 -0.7000
19953LIG     C981291   5.356   5.004  16.457 -0.8285 -0.0478 -0.3511
19953LIG    C1081292   5.341   4.569  16.447 -0.5848 -0.0837  0.1867
19953LIG    C1181293   5.555   4.853  16.413 -0.3513 -0.0080 -0.3070
19953LIG    C1281294   5.183   4.745  16.475 -0.1392 -0.1403  0.0372
19953LIG    C1381295   5.496   4.955  16.482 -0.1233  0.7187  0.0345
19953LIG    C1481296   5.549   4.487  16.069 -0.2274 -0.6280  0.0244
19953LIG    C1581297   5.299   4.508  16.565 -0.5376  0.5536  0.0322
19953LIG    C1681298   5.120   4.687  16.586  0.2206  0.6043 -1.2392
19953LIG    C1781299   5.183   4.565  16.622  0.2183 -0.5496 -0.3356
19953LIG    C1881300   5.305   5.111  16.671  0.5475 -0.1172 -0.7610
19953LIG    C1981301   5.255   5.079  16.818  0.4709 -0.4531 -0.3167
19953LIG    C2081302   5.249   5.206  16.906 -0.4703 -0.2889  0.6345
19953LIG    C2181303   5.381   5.273  16.898  0.4846  0.0288  0.3509
19953LIG    C2281304   5.423   5.300  16.746 -0.3594 -0.6263  0.0913
19953LIG    C2381305   5.559   5.380  16.745 -0.2997 -0.8127 -0.0207
19953LIG     H181306   5.511   4.841  16.215  1.5999 -2.5211 -1.0984
19953LIG     H281307   5.227   4.991  16.282 -0.7914 -0.2427 -0.8960
19953LIG     H381308   5.629   4.644  16.261  0.1536  1.5065  0.1360
19953LIG     H481309   5.297   4.796  16.092  0.6013 -0.1895 -0.1878
19953LIG     H581310   5.158   4.727  16.189  0.8279  1.4711 -0.6990
19953LIG     H681311   5.556   4.525  16.457 -1.8135 -0.4927  1.6681
19953LIG     H781312   5.458   4.434  16.330  2.3732 -0.3948 -0.3407
19953LIG     H881313   5.294   4.509  16.186 -0.8466  0.1235 -1.0397
19953LIG     H981314   5.293   4.574  16.028 -2.6260 -4.6598  1.0844
19953LIG    H1081315   5.351   5.109  16.422  0.2253 -0.3530 -1.4706
19953LIG    H1181316   5.661   4.830  16.426 -0.7004 -2.0224 -0.9410
19953LIG    H1281317   5.557   5.019  16.548  1.4550  2.1511 -2.6976
19953LIG    H1381318   5.490   4.393  16.063 -2.7802  0.9496 -0.3550
19953LIG    H1481319   5.635   4.452  16.130  0.5874 -0.9542 -1.2985
19953LIG    H1581320   5.576   4.502  15.963 -1.5097 -1.4756 -0.4388
19953LIG    H1681321   5.353   4.424  16.605 -1.9403  0.4338  1.7323
19953LIG    H1781322   5.153   4.525  16.718 -0.3476  2.9509  1.0509
19953LIG    H1881323   5.229   5.170  16.615 -0.5281 -0.5128  0.2559
19953LIG    H1981324   5.336   5.020  16.867  1.1633 -1.3429 -2.4803
19953LIG    H2081325   5.169   5.265  16.857 -1.4143 -1.9423  0.1580
19953LIG    H2181326   5.019   4.700  16.764 -1.0272 -0.2946 -0.0215
19953LIG    H2281327   5.456   5.206  16.945 -0.2141  0.5060  2.1904
19953LIG    H2381328   5.344   5.358  16.694  2.0124  2.4005 -0.2796
19953LIG    H2481329   5.142   4.924  16.791  0.1572 -0.7546  1.9141
19953LIG    H2581330   5.114   5.188  17.022  0.3551 -0.4234 -0.7795
19953LIG    H2681331   5.413   5.378  17.050 -1.1731 -0.8775 -0.1477
19953LIG    H2781332   5.748   5.374  16.785 -0.8095  1.9341 -2.6627
   6.78697   6.78697  17.23950
